/*--------------------------------*- C++ -*----------------------------------*\
  =========                 |
  \\      /  F ield         | OpenFOAM: The Open Source CFD Toolbox
   \\    /   O peration     | Website:  https://openfoam.org
    \\  /    A nd           | Version:  7
     \\/     M anipulation  |
\*---------------------------------------------------------------------------*/
FoamFile
{
    version     2.0;
    format      ascii;
    class       volScalarField;
    location    "0.35";
    object      p;
}
// * * * * * * * * * * * * * * * * * * * * * * * * * * * * * * * * * * * * * //

dimensions      [0 2 -2 0 0 0 0];

internalField   nonuniform List<scalar> 
6400
(
-4.65028e-09
-9.81775e-06
-3.57116e-05
-7.24796e-05
-0.000114444
-0.000156944
-0.000196978
-0.0002322
-0.000260957
-0.000282123
-0.000294951
-0.00029898
-0.000293949
-0.000279743
-0.000256347
-0.000223806
-0.000182206
-0.000131662
-7.23033e-05
-4.25407e-06
7.23703e-05
0.00015746
0.000250903
0.000352592
0.000462424
0.000580295
0.000706098
0.000839709
0.000980978
0.00112973
0.00128576
0.00144883
0.00161866
0.0017949
0.00197715
0.00216498
0.00235784
0.00255514
0.00275622
0.00296033
0.00316668
0.00337437
0.00358245
0.00378992
0.00399571
0.00419871
0.00439777
0.00459173
0.00477942
0.00495966
0.00513133
0.00529333
0.00544464
0.00558431
0.00571151
0.0058255
0.0059257
0.00601168
0.00608316
0.00614003
0.00618236
0.00621042
0.00622464
0.00622564
0.00621422
0.00619134
0.00615813
0.00611588
0.006066
0.00601009
0.00594984
0.00588712
0.00582394
0.00576248
0.00570513
0.00565449
0.00561327
0.00558434
0.00557053
0.00557175
9.3343e-06
-4.90932e-07
-2.16583e-05
-5.06111e-05
-8.33815e-05
-0.000116709
-0.000148057
-0.000175426
-0.000197312
-0.000212612
-0.000220545
-0.000220578
-0.000212367
-0.000195711
-0.000170516
-0.000136754
-9.44404e-05
-4.36311e-05
1.55924e-05
8.3143e-05
0.000158936
0.000242883
0.00033489
0.000434857
0.000542683
0.000658264
0.000781488
0.000912221
0.0010503
0.00119555
0.00134775
0.00150665
0.00167195
0.00184331
0.00202033
0.00220255
0.00238945
0.00258045
0.0027749
0.00297207
0.00317118
0.00337139
0.00357179
0.00377141
0.00396924
0.00416424
0.00435532
0.00454139
0.00472136
0.00489414
0.00505868
0.00521396
0.00535906
0.00549309
0.00561531
0.00572506
0.00582181
0.00590519
0.00597498
0.00603109
0.00607365
0.00610291
0.00611933
0.00612352
0.00611624
0.00609843
0.00607118
0.0060357
0.00599335
0.00594562
0.00589409
0.00584049
0.00578664
0.00573446
0.00568601
0.00564338
0.0056087
0.00558394
0.00557161
0.00557289
3.46686e-05
2.00548e-05
-1.17292e-06
-2.70898e-05
-5.53452e-05
-8.35094e-05
-0.000109536
-0.000131779
-0.000148943
-0.000160038
-0.000164327
-0.000161284
-0.000150548
-0.000131885
-0.000105165
-7.03213e-05
-2.73301e-05
2.37889e-05
8.29872e-05
0.000150204
0.000225376
0.000308433
0.000399295
0.000497872
0.00060407
0.000717787
0.000838909
0.000967302
0.00110281
0.00124523
0.00139436
0.00154993
0.00171166
0.00187919
0.00205213
0.00223003
0.00241236
0.00259856
0.00278798
0.00297993
0.00317365
0.0033683
0.00356301
0.00375686
0.00394887
0.00413803
0.00432331
0.00450367
0.00467806
0.00484545
0.00500483
0.00515527
0.00529586
0.0054258
0.00554438
0.00565098
0.00574515
0.00582652
0.00589492
0.0059503
0.00599279
0.00602266
0.00604037
0.00604653
0.0060419
0.00602738
0.00600403
0.00597303
0.00593567
0.00589335
0.00584758
0.00579995
0.00575212
0.00570582
0.00566283
0.00562493
0.00559383
0.00557113
0.00555906
0.00555926
7.12138e-05
4.85041e-05
2.39386e-05
-2.15059e-06
-2.89844e-05
-5.47206e-05
-7.77458e-05
-9.67656e-05
-0.000110725
-0.000118791
-0.000120328
-0.00011487
-0.000102079
-8.17297e-05
-5.36848e-05
-1.7865e-05
2.57695e-05
7.72192e-05
0.000136455
0.000203434
0.00027811
0.00036043
0.000450323
0.000547711
0.000652507
0.000764616
0.000883929
0.00101031
0.00114361
0.00128364
0.00143019
0.00158299
0.00174176
0.00190615
0.00207577
0.00225018
0.00242887
0.00261127
0.00279677
0.00298466
0.00317421
0.00336462
0.00355502
0.00374452
0.00393217
0.00411699
0.00429797
0.00447411
0.00464439
0.00480781
0.00496341
0.00511027
0.00524753
0.00537442
0.00549026
0.00559446
0.0056866
0.00576634
0.00583352
0.00588812
0.00593028
0.00596029
0.00597861
0.00598585
0.00598276
0.00597023
0.0059493
0.00592111
0.00588691
0.00584804
0.00580591
0.00576202
0.0057179
0.0056751
0.00563518
0.0055997
0.00557008
0.0055477
0.00553427
0.00553108
0.000113504
8.09413e-05
5.13573e-05
2.34234e-05
-3.61729e-06
-2.84114e-05
-4.97205e-05
-6.65908e-05
-7.8218e-05
-8.3943e-05
-8.32553e-05
-7.57724e-05
-6.12103e-05
-3.93706e-05
-1.01288e-05
2.65925e-05
7.08368e-05
0.000122613
0.000181901
0.000248675
0.000322902
0.00040454
0.000493533
0.000589811
0.000693296
0.000803902
0.000921527
0.00104605
0.00117732
0.00131515
0.00145934
0.00160963
0.00176575
0.00192735
0.00209406
0.00226543
0.00244098
0.00262013
0.00280229
0.00298678
0.00317287
0.00335977
0.00354665
0.00373262
0.00391675
0.00409808
0.00427563
0.00444841
0.00461543
0.00477571
0.00492831
0.00507233
0.00520693
0.00533136
0.00544495
0.00554716
0.00563756
0.00571584
0.00578186
0.00583561
0.00587723
0.00590705
0.00592551
0.00593323
0.00593097
0.00591961
0.00590016
0.00587375
0.00584158
0.00580494
0.00576519
0.00572371
0.00568191
0.0056412
0.00560297
0.00556854
0.00553913
0.00551589
0.00549982
0.00549145
0.000156812
0.000114026
7.85502e-05
4.76704e-05
1.92569e-05
-5.72674e-06
-2.63549e-05
-4.1981e-05
-5.20436e-05
-5.60637e-05
-5.36635e-05
-4.45574e-05
-2.85292e-05
-5.42532e-06
2.48515e-05
6.23642e-05
0.00010715
0.000159217
0.000218552
0.000285134
0.000358944
0.000439951
0.000528108
0.000623356
0.000725626
0.000834844
0.00095092
0.00107374
0.00120316
0.00133902
0.00148111
0.00162919
0.00178299
0.00194218
0.00210639
0.0022752
0.00244811
0.00262459
0.00280404
0.00298579
0.00316913
0.00335328
0.00353742
0.00372067
0.00390213
0.00408083
0.00425582
0.0044261
0.00459071
0.00474866
0.00489904
0.00504093
0.00517353
0.00529608
0.00540794
0.00550856
0.00559751
0.00567452
0.00573943
0.00579227
0.00583318
0.00586248
0.00588065
0.00588831
0.0058862
0.00587523
0.00585638
0.00583077
0.00579958
0.00576406
0.00572549
0.0056852
0.0056445
0.00560466
0.00556691
0.00553238
0.00550215
0.00547713
0.00545757
0.00544312
0.000197969
0.00014502
0.000103247
6.87244e-05
3.81168e-05
1.20919e-05
-8.67785e-06
-2.38137e-05
-3.29778e-05
-3.58662e-05
-3.22348e-05
-2.18987e-05
-4.71674e-06
1.94094e-05
5.05382e-05
8.87077e-05
0.000133942
0.000186243
0.000245596
0.000311987
0.000385402
0.000465819
0.000553201
0.0006475
0.000748658
0.000856613
0.000971287
0.00109258
0.00122037
0.00135449
0.00149475
0.00164093
0.00179276
0.00194994
0.0021121
0.00227883
0.00244966
0.00262405
0.00280142
0.00298111
0.00316243
0.00334459
0.00352679
0.00370816
0.00388779
0.00406473
0.00423802
0.00440667
0.0045697
0.00472615
0.00487507
0.00501558
0.00514684
0.0052681
0.00537872
0.00547814
0.00556596
0.00564188
0.00570578
0.00575765
0.00579768
0.00582619
0.00584366
0.00585073
0.00584815
0.00583682
0.00581774
0.00579202
0.00576082
0.00572537
0.0056869
0.00564669
0.00560596
0.00556589
0.00552758
0.00549202
0.00546013
0.00543268
0.00540915
0.00538846
0.000234306
0.000171598
0.000123456
8.492e-05
5.16068e-05
2.39593e-05
2.44769e-06
-1.27793e-05
-2.15817e-05
-2.38168e-05
-1.93697e-05
-8.15633e-06
9.88663e-06
3.47979e-05
6.65911e-05
0.000105273
0.000150849
0.000203312
0.000262642
0.000328826
0.000401853
0.000481711
0.00056837
0.000661792
0.000761934
0.000868747
0.000982167
0.00110211
0.00122846
0.00136108
0.00149979
0.00164438
0.0017946
0.00195016
0.0021107
0.00227584
0.00244511
0.00261799
0.0027939
0.0029722
0.00315219
0.00333311
0.00351414
0.00369443
0.00387305
0.00404905
0.00422148
0.00438932
0.0045516
0.00470732
0.00485554
0.00499535
0.00512591
0.00524645
0.00535631
0.00545495
0.00554192
0.00561695
0.0056799
0.00573079
0.00576979
0.00579725
0.00581365
0.00581965
0.00581601
0.00580366
0.0057836
0.00575693
0.00572483
0.0056885
0.00564917
0.00560806
0.00556634
0.00552513
0.00548541
0.00544806
0.00541391
0.00538361
0.00535601
0.00532933
0.000263711
0.000191802
0.000137428
9.4734e-05
5.84286e-05
2.87851e-05
6.11054e-06
-9.64198e-06
-1.85039e-05
-2.0476e-05
-1.5564e-05
-3.78189e-06
1.4856e-05
4.03276e-05
7.26004e-05
0.000111648
0.000157454
0.000209996
0.000269249
0.000335198
0.000407835
0.000487153
0.000573131
0.000665744
0.00076496
0.000870747
0.000983056
0.00110182
0.00122694
0.0013583
0.00149572
0.00163903
0.00178798
0.00194231
0.00210167
0.00226569
0.00243391
0.00260584
0.0027809
0.00295845
0.0031378
0.0033182
0.00349882
0.00367879
0.0038572
0.00403309
0.00420546
0.0043733
0.00453561
0.00469137
0.00483961
0.0049794
0.00510987
0.00523024
0.00533983
0.00543806
0.00552449
0.00559882
0.00566092
0.0057108
0.00574866
0.00577482
0.00578982
0.0057943
0.00578908
0.00577508
0.00575333
0.00572496
0.00569115
0.0056531
0.00561205
0.00556918
0.00552565
0.0054825
0.00544068
0.00540098
0.00536414
0.00533076
0.00529916
0.00526698
0.000284492
0.000203989
0.000143635
9.67853e-05
5.73542e-05
2.5489e-05
1.36666e-06
-1.52266e-05
-2.44709e-05
-2.64937e-05
-2.141e-05
-9.32606e-06
9.66876e-06
3.5493e-05
6.80691e-05
0.000107337
0.000153257
0.000205791
0.000264907
0.000330584
0.000402819
0.000481607
0.000566941
0.000658804
0.000757181
0.000862052
0.00097339
0.00109114
0.00121523
0.00134555
0.00148197
0.00162429
0.00177232
0.0019258
0.0020844
0.00224777
0.00241547
0.002587
0.00276179
0.00293924
0.00311862
0.0032992
0.00348014
0.00366057
0.00383955
0.0040161
0.00418921
0.00435784
0.00452096
0.00467751
0.00482648
0.00496693
0.00509793
0.00521868
0.00532846
0.00542668
0.00551286
0.0055867
0.00564805
0.00569692
0.00573351
0.00575818
0.00577145
0.00577402
0.0057667
0.00575047
0.00572639
0.00569562
0.00565935
0.00561881
0.00557526
0.00552987
0.00548379
0.00543805
0.00539355
0.00535104
0.00531123
0.00527468
0.00523931
0.00520235
0.000295255
0.000206762
0.000140736
8.98269e-05
4.72426e-05
1.30363e-05
-1.27162e-05
-3.03707e-05
-4.02384e-05
-4.25589e-05
-3.75452e-05
-2.53877e-05
-6.24596e-06
1.97429e-05
5.24576e-05
9.18063e-05
0.000137725
0.000190162
0.000249074
0.000314437
0.000386248
0.000464513
0.00054923
0.000640396
0.000738012
0.000842075
0.000952575
0.00106948
0.00119273
0.00132225
0.00145791
0.00159955
0.001747
0.0019
0.00205826
0.00222144
0.00238911
0.00256078
0.00273591
0.00291386
0.00309395
0.0032754
0.00345739
0.00363903
0.00381934
0.00399735
0.00417198
0.00434219
0.00450688
0.00466496
0.00481539
0.00495716
0.00508932
0.005211
0.00532145
0.00542005
0.0055063
0.00557986
0.00564057
0.00568844
0.00572368
0.00574665
0.00575791
0.00575816
0.00574829
0.00572928
0.00570226
0.00566842
0.00562899
0.00558526
0.00553848
0.00548988
0.0054406
0.00539169
0.00534403
0.00529835
0.00525537
0.00521564
0.0051768
0.00513577
0.000294826
0.00019892
0.000127549
7.27309e-05
2.70369e-05
-9.55184e-06
-3.70395e-05
-5.5904e-05
-6.65709e-05
-6.93805e-05
-6.46335e-05
-5.25958e-05
-3.34902e-05
-7.50566e-06
2.51964e-05
6.44935e-05
0.0001103
0.000162547
0.000221184
0.000286185
0.000357548
0.000435285
0.000519406
0.000609922
0.000706847
0.000810199
0.000919987
0.0010362
0.0011588
0.00128773
0.00142289
0.00156414
0.00171133
0.00186422
0.00202256
0.00218599
0.00235412
0.00252647
0.00270249
0.00288157
0.00306301
0.00324603
0.00342978
0.00361337
0.00379579
0.00397602
0.00415297
0.00432554
0.00449257
0.00465295
0.00480556
0.00494933
0.00508326
0.00520644
0.00531807
0.00541746
0.00550409
0.0055776
0.0056378
0.00568471
0.00571851
0.00573961
0.00574857
0.00574615
0.00573327
0.00571097
0.00568043
0.00564288
0.00559965
0.00555204
0.00550138
0.00544892
0.00539585
0.00534323
0.00529198
0.00524283
0.00519653
0.00515366
0.00511167
0.00506728
0.000282199
0.000179411
0.000103022
4.44733e-05
-4.24087e-06
-4.31984e-05
-7.24707e-05
-9.26403e-05
-0.000104233
-0.000107679
-0.000103357
-9.16008e-05
-7.26904e-05
-4.68607e-05
-1.43102e-05
2.48105e-05
7.03946e-05
0.000122361
0.000180651
0.000245236
0.000316118
0.000393318
0.000476855
0.000566757
0.000663053
0.000765781
0.000874971
0.000990635
0.00111276
0.00124131
0.0013762
0.00151735
0.00166459
0.00181773
0.00197652
0.00214064
0.00230971
0.00248326
0.00266074
0.00284154
0.00302497
0.00321023
0.00339646
0.00358273
0.00376802
0.00395126
0.00413132
0.00430703
0.0044772
0.00464063
0.00479615
0.00494262
0.00507898
0.00520425
0.00531756
0.00541819
0.00550555
0.00557926
0.0056391
0.00568508
0.0057174
0.00573646
0.00574287
0.00573743
0.00572111
0.00569502
0.00566039
0.00561854
0.00557086
0.00551874
0.00546355
0.00540662
0.00534919
0.00529238
0.00523714
0.00518425
0.0051345
0.00508853
0.0050437
0.0049966
0.000256488
0.000147309
6.62168e-05
4.12695e-06
-4.74926e-05
-8.87706e-05
-0.000119837
-0.000141368
-0.000153976
-0.00015817
-0.000154401
-0.000143063
-0.000124486
-9.89461e-05
-6.66752e-05
-2.78495e-05
1.74065e-05
6.89999e-05
0.000126866
0.000190976
0.000261338
0.000337981
0.000420937
0.000510249
0.000605965
0.000708143
0.000816836
0.000932079
0.00105389
0.00118224
0.0013171
0.00145839
0.00160598
0.0017597
0.00191933
0.00208456
0.00225502
0.00243026
0.00260974
0.00279286
0.00297889
0.00316706
0.00335647
0.00354616
0.00373508
0.00392211
0.00410607
0.00428573
0.00445983
0.0046271
0.0047863
0.0049362
0.00507566
0.00520364
0.00531918
0.00542151
0.00550998
0.00558417
0.00564383
0.00568895
0.00571975
0.00573664
0.00574027
0.00573148
0.0057113
0.00568092
0.00564166
0.00559492
0.00554218
0.0054849
0.00542456
0.00536257
0.00530023
0.00523873
0.00517911
0.0051222
0.00506887
0.00501982
0.00497241
0.00492319
0.000216905
0.000101783
1.62896e-05
-4.91491e-05
-0.000103547
-0.000147078
-0.000179924
-0.000202843
-0.000216529
-0.00022156
-0.000218449
-0.000207644
-0.000189521
-0.000164394
-0.000132522
-9.41055e-05
-4.92833e-05
1.84216e-06
5.92029e-05
0.000122773
0.000192566
0.000268621
0.000350985
0.000439715
0.000534883
0.000636567
0.000744842
0.000859772
0.000981397
0.00110973
0.00124475
0.00138641
0.00153462
0.00168924
0.00185004
0.00201676
0.00218905
0.00236646
0.00254847
0.00273446
0.00292372
0.00311544
0.00330872
0.00350256
0.00369587
0.00388748
0.00407615
0.00426058
0.00443943
0.00461136
0.00477502
0.00492911
0.0050724
0.00520374
0.00532211
0.00542664
0.00551665
0.00559164
0.00565134
0.00569572
0.00572499
0.0057396
0.00574022
0.00572777
0.00570334
0.00566821
0.00562378
0.00557156
0.00551313
0.00545007
0.00538395
0.00531628
0.00524846
0.0051818
0.00511738
0.00505616
0.00499908
0.00494693
0.00489714
0.00484625
0.000162743
4.20861e-05
-4.75279e-05
-0.000116127
-0.000173175
-0.000218882
-0.000253477
-0.000277796
-0.000292601
-0.000298537
-0.000296171
-0.000286001
-0.000268442
-0.000243841
-0.000212484
-0.000174589
-0.000130307
-7.9748e-05
-2.29802e-05
3.99739e-05
0.000109137
0.000184557
0.0002663
0.000354441
0.000449071
0.000550292
0.000658206
0.000772904
0.000894454
0.0010229
0.00115825
0.00130049
0.00144956
0.00160533
0.00176763
0.0019362
0.00211071
0.00229074
0.00247576
0.00266516
0.00285823
0.00305414
0.00325197
0.00345068
0.00364914
0.00384612
0.00404032
0.00423035
0.00441481
0.00459223
0.00476119
0.00492028
0.00506816
0.00520358
0.00532543
0.00543274
0.00552475
0.00560092
0.00566093
0.00570472
0.00573251
0.00574477
0.00574221
0.00572581
0.00569674
0.00565639
0.00560625
0.00554797
0.00548323
0.00541374
0.0053412
0.00526723
0.00519336
0.00512099
0.00505134
0.00498545
0.0049244
0.00486908
0.00481701
0.00476482
9.33598e-05
-3.2466e-05
-0.000125942
-0.000197524
-0.000257093
-0.000304897
-0.000341204
-0.000366921
-0.000382877
-0.000389774
-0.000388229
-0.000378785
-0.000361892
-0.000337928
-0.000307199
-0.000269938
-0.000226308
-0.000176421
-0.000120344
-5.80939e-05
1.03614e-05
8.50849e-05
0.000166158
0.000253675
0.000347752
0.000448514
0.000556092
0.000670605
0.000792152
0.000920809
0.00105662
0.0011996
0.00134971
0.00150688
0.00167094
0.00184167
0.00201876
0.0022018
0.00239029
0.0025836
0.00278104
0.00298175
0.00318478
0.00338906
0.00359342
0.00379657
0.00399712
0.00419362
0.00438455
0.00456836
0.0047435
0.00490845
0.00506175
0.00520203
0.00532807
0.0054388
0.00553338
0.00561117
0.00567183
0.00571526
0.00574167
0.00575155
0.00574567
0.00572506
0.00569101
0.00564498
0.00558862
0.00552368
0.005452
0.00537542
0.00529578
0.00521485
0.00513429
0.00505565
0.00498027
0.00490932
0.004844
0.00478533
0.00473099
0.00467769
8.16812e-06
-0.000122496
-0.000219599
-0.000293998
-0.000355968
-0.000405789
-0.00044377
-0.00047088
-0.000488011
-0.000495918
-0.000495265
-0.000486634
-0.000470508
-0.000447289
-0.000417303
-0.000380796
-0.000337936
-0.000288836
-0.000233562
-0.000172121
-0.000104471
-3.05316e-05
4.97948e-05
0.000136626
0.000230101
0.000330372
0.000437599
0.000551933
0.000673506
0.000802426
0.000938775
0.0010826
0.0012339
0.00139263
0.00155867
0.00173181
0.00191178
0.00209819
0.00229053
0.00248822
0.00269052
0.00289659
0.00310545
0.003316
0.003527
0.0037371
0.00394485
0.00414869
0.004347
0.00453813
0.00472038
0.00489211
0.00505173
0.00519774
0.00532878
0.00544367
0.00554145
0.00562142
0.00568315
0.00572652
0.00575173
0.00575929
0.00575
0.00572499
0.00568563
0.0056335
0.00557039
0.0054982
0.00541892
0.00533457
0.00524713
0.00515853
0.00507061
0.00498506
0.00490337
0.00482687
0.0047569
0.00469462
0.00463788
0.00458354
-9.33719e-05
-0.000228575
-0.000329093
-0.000406158
-0.000470416
-0.000522179
-0.000561795
-0.000590293
-0.000608623
-0.000617588
-0.000617898
-0.000610167
-0.000594911
-0.000572551
-0.00054343
-0.000507803
-0.000465843
-0.000417663
-0.000363321
-0.000302817
-0.000236093
-0.000163056
-8.35848e-05
2.46072e-06
9.52442e-05
0.000194948
0.000301763
0.000415871
0.00053744
0.000666617
0.000803518
0.000948229
0.00110079
0.00126119
0.00142935
0.00160509
0.00178816
0.00197821
0.00217475
0.00237719
0.00258482
0.00279676
0.00301203
0.00322948
0.00344783
0.00366566
0.00388144
0.00409351
0.00430015
0.00449956
0.00468992
0.00486944
0.00503637
0.00518906
0.00532602
0.00544592
0.00554768
0.00563049
0.00569384
0.00573758
0.00576188
0.00576725
0.00575457
0.00572501
0.00568006
0.00562145
0.00555109
0.00547105
0.0053835
0.00529065
0.00519465
0.00509764
0.00500161
0.00490843
0.00481979
0.00473716
0.00466204
0.00459576
0.00453636
0.00448083
-0.000211765
-0.000351235
-0.000454973
-0.000534567
-0.00060101
-0.000654648
-0.000695866
-0.000725751
-0.000745306
-0.000755382
-0.000756727
-0.000749989
-0.000735709
-0.00071433
-0.000686206
-0.0006516
-0.000610687
-0.000563577
-0.000510321
-0.000450907
-0.000385265
-0.00031328
-0.000234813
-0.000149696
-5.7741e-05
4.12665e-05
0.000147548
0.000261322
0.000382794
0.000512147
0.000649541
0.000795102
0.000948914
0.001111
0.00128133
0.00145976
0.00164608
0.00183995
0.00204092
0.00224843
0.00246174
0.00268
0.00290219
0.00312713
0.0033535
0.00357981
0.00380445
0.00402565
0.00424157
0.00445027
0.0046498
0.00483818
0.00501352
0.00517398
0.0053179
0.00544381
0.00555046
0.00563693
0.00570262
0.0057473
0.00577111
0.00577457
0.0057586
0.00572445
0.00567372
0.00560827
0.00553018
0.00544171
0.00534522
0.00524311
0.00513776
0.0050315
0.00492655
0.00482495
0.00472859
0.00463914
0.00455824
0.00448743
0.00442494
0.0043679
-0.000347482
-0.00049097
-0.000597751
-0.000679749
-0.000748286
-0.000803741
-0.000846535
-0.000877813
-0.000898626
-0.00090987
-0.00091233
-0.000906686
-0.000893501
-0.000873235
-0.000846254
-0.000812825
-0.000773126
-0.000727261
-0.000675272
-0.000617135
-0.000552763
-0.000482024
-0.000404755
-0.000320763
-0.000229829
-0.000131709
-2.61471e-05
8.71119e-05
0.000208312
0.000337679
0.000475417
0.000621696
0.000776645
0.000940337
0.00111278
0.00129388
0.00148346
0.00168123
0.00188677
0.00209952
0.00231879
0.00254369
0.00277322
0.00300617
0.00324116
0.00347664
0.00371092
0.00394214
0.00416831
0.00438736
0.00459716
0.00479558
0.00498052
0.00514997
0.00530206
0.00543514
0.00554779
0.00563894
0.00570787
0.00575425
0.00577819
0.00578019
0.0057612
0.00572255
0.00566594
0.00559339
0.00550715
0.00540967
0.00530355
0.00519141
0.00507586
0.00495947
0.00484468
0.00473377
0.00462883
0.0045317
0.00444427
0.00436824
0.00430203
0.00424292
-0.000500959
-0.000648237
-0.000757898
-0.000842187
-0.000912739
-0.000969965
-0.00101432
-0.001047
-0.00106912
-0.0010816
-0.00108526
-0.00108082
-0.00106886
-0.00104986
-0.00102418
-0.000992111
-0.000953817
-0.0009094
-0.000858892
-0.000802256
-0.000739388
-0.000670136
-0.000594312
-0.000511697
-0.000422043
-0.000325074
-0.000220498
-0.000108021
1.26424e-05
0.000141762
0.000279588
0.000426339
0.000582194
0.000747278
0.000921644
0.00110526
0.00129799
0.00149959
0.00170967
0.00192772
0.00215305
0.0023848
0.00262196
0.0028633
0.00310741
0.00335268
0.00359733
0.0038394
0.00407678
0.00430724
0.00452849
0.0047382
0.00493407
0.00511387
0.00527551
0.00541713
0.00553712
0.0056342
0.00570753
0.00575664
0.00578157
0.00578279
0.00576125
0.00571836
0.00565594
0.00557613
0.0054814
0.0053744
0.00525798
0.00513501
0.00500838
0.0048809
0.00475528
0.00463404
0.00451949
0.00441372
0.00431881
0.00423667
0.00416592
0.00410393
-0.000672595
-0.000823454
-0.000935847
-0.00102233
-0.00109483
-0.00115379
-0.0011997
-0.00123381
-0.00125728
-0.00127107
-0.00127604
-0.00127293
-0.00126235
-0.00124477
-0.00122059
-0.00119008
-0.00115341
-0.00111068
-0.0010619
-0.00100704
-0.000945953
-0.000878482
-0.000804413
-0.000723498
-0.000635459
-0.000539986
-0.000436752
-0.000325422
-0.000205669
-7.71746e-05
6.03583e-05
0.000207202
0.000363589
0.0005297
0.000705645
0.00089145
0.00108704
0.00129221
0.00150663
0.00172983
0.00196116
0.00219979
0.0024447
0.00269466
0.00294823
0.00320377
0.00345942
0.00371311
0.00396261
0.00420556
0.00443946
0.00466179
0.00487003
0.0050617
0.0052345
0.00538628
0.0055152
0.00561979
0.00569898
0.00575216
0.00577926
0.00578068
0.00575736
0.00571075
0.00564277
0.00555574
0.00545229
0.00533534
0.00520799
0.0050734
0.00493475
0.00479516
0.00465761
0.0045249
0.00439959
0.00428401
0.00418048
0.00409117
0.00401481
0.00394882
-0.000862757
-0.001017
-0.00113199
-0.00122058
-0.00129497
-0.00135564
-0.00140311
-0.00143869
-0.00146357
-0.00147877
-0.00148517
-0.00148353
-0.00147448
-0.00145852
-0.00143605
-0.00140733
-0.00137254
-0.00133177
-0.00128502
-0.00123224
-0.00117328
-0.00110795
-0.00103601
-0.000957197
-0.000871191
-0.000777654
-0.000676222
-0.000566518
-0.000448171
-0.000320816
-0.000184102
-3.77026e-05
0.000118673
0.000285267
0.000462253
0.00064972
0.000847655
0.00105593
0.00127427
0.00150225
0.00173927
0.00198455
0.0022371
0.00249569
0.00275888
0.00302498
0.00329209
0.00355805
0.00382051
0.00407696
0.00432472
0.00456107
0.00478324
0.0049885
0.00517426
0.0053381
0.00547791
0.00559192
0.00567883
0.00573784
0.00576868
0.00577167
0.0057477
0.00569823
0.00562527
0.00553127
0.00541909
0.00529189
0.00515305
0.00500608
0.00485447
0.00470168
0.00455099
0.00440552
0.00426812
0.00414138
0.00402789
0.00393009
0.00384679
0.00377538
-0.00107178
-0.00122923
-0.0013467
-0.00143731
-0.00151354
-0.00157591
-0.00162496
-0.00166205
-0.00168843
-0.00170514
-0.00171309
-0.00171309
-0.00170577
-0.00169164
-0.00167111
-0.00164445
-0.00161183
-0.00157334
-0.00152897
-0.00147864
-0.0014222
-0.00135943
-0.00129008
-0.00121385
-0.00113039
-0.00103933
-0.000940278
-0.000832807
-0.000716503
-0.000590951
-0.000455749
-0.000310512
-0.000154886
1.14351e-05
0.000188695
0.000377057
0.00057658
0.000787208
0.00100875
0.00124084
0.00148297
0.00173439
0.00199415
0.00226109
0.00253376
0.00281047
0.00308927
0.00336794
0.00364405
0.00391492
0.00417772
0.00442951
0.00466726
0.00488799
0.00508879
0.00526691
0.00541991
0.0055457
0.00564268
0.00570976
0.00574646
0.00575292
0.00572991
0.00567889
0.0056019
0.00550155
0.00538088
0.00524334
0.00509262
0.00493256
0.00476705
0.00459991
0.00443478
0.00427513
0.00412412
0.00398464
0.0038596
0.00375175
0.00365987
0.00358126
-0.00129999
-0.00146046
-0.0015803
-0.00167287
-0.0017509
-0.00181496
-0.00186562
-0.00190429
-0.00193225
-0.00195059
-0.00196026
-0.00196207
-0.00195668
-0.00194463
-0.00192631
-0.00190201
-0.00187189
-0.00183604
-0.00179443
-0.00174699
-0.00169353
-0.00163383
-0.0015676
-0.00149453
-0.00141423
-0.00132632
-0.00123034
-0.00112585
-0.00101238
-0.000889467
-0.000756658
-0.000613506
-0.000459594
-0.000294545
-0.00011804
7.01621e-05
0.000270207
0.000482125
0.000705809
0.000940997
0.00118725
0.0014439
0.0017101
0.00198471
0.00226635
0.00255335
0.00284375
0.0031353
0.00342548
0.00371151
0.00399042
0.00425904
0.00451411
0.00475234
0.00497049
0.00516545
0.00533439
0.00547484
0.0055848
0.00566284
0.00570814
0.0057206
0.00570082
0.00565015
0.00557066
0.00546503
0.00533653
0.00518885
0.00502605
0.00485235
0.00467205
0.00448937
0.0043084
0.00413298
0.00396664
0.00381263
0.00367419
0.00355443
0.00345204
0.00336405
-0.00154764
-0.00171099
-0.00183308
-0.00192754
-0.00200736
-0.00207311
-0.00212542
-0.00216574
-0.00219539
-0.0022155
-0.00222705
-0.00223088
-0.00222766
-0.00221795
-0.00220214
-0.00218053
-0.00215329
-0.00212049
-0.0020821
-0.00203802
-0.00198808
-0.00193202
-0.00186954
-0.0018003
-0.0017239
-0.00163991
-0.00154785
-0.00144724
-0.00133757
-0.00121833
-0.001089
-0.000949094
-0.000798115
-0.000635618
-0.000461204
-0.000274545
-7.54045e-05
0.000136348
0.000360713
0.000597533
0.000846475
0.001107
0.00137834
0.00165947
0.00194908
0.00224557
0.00254702
0.00285119
0.00315553
0.00345719
0.00375305
0.00403979
0.00431389
0.00457177
0.00480983
0.00502455
0.00521267
0.00537123
0.00549777
0.00559038
0.00564784
0.00566966
0.00565618
0.00560857
0.0055288
0.00541964
0.0052845
0.00512735
0.0049526
0.00476491
0.00456901
0.00436964
0.00417134
0.00397841
0.00379482
0.00362421
0.00347024
0.00333643
0.00322123
0.00312126
-0.001815
-0.00198105
-0.0021053
-0.00220161
-0.00228319
-0.00235066
-0.00240467
-0.00244672
-0.00247818
-0.00250021
-0.00251383
-0.0025199
-0.00251911
-0.00251203
-0.00249907
-0.00248053
-0.00245658
-0.00242728
-0.00239261
-0.00235246
-0.00230663
-0.00225488
-0.00219687
-0.00213224
-0.00206058
-0.00198143
-0.00189428
-0.00179862
-0.0016939
-0.00157956
-0.00145505
-0.00131979
-0.00117325
-0.00101491
-0.000844267
-0.000660921
-0.000464528
-0.000254846
-3.1758e-05
0.000204712
0.000454364
0.000716801
0.000991394
0.00127725
0.00157321
0.00187778
0.00218913
0.0025051
0.00282317
0.00314046
0.0034538
0.00375971
0.00405446
0.00433418
0.00459488
0.00483265
0.00504367
0.00522446
0.00537195
0.00548367
0.00555781
0.0055934
0.00559033
0.00554946
0.00547262
0.00536252
0.00522269
0.00505734
0.00487126
0.00466955
0.00445747
0.0042403
0.00402313
0.00381082
0.00360784
0.0034183
0.00324636
0.00309602
0.00296534
0.00285036
-0.00210227
-0.00227087
-0.00239718
-0.00249529
-0.00257863
-0.00264783
-0.00270361
-0.00274749
-0.00278089
-0.00280502
-0.00282091
-0.00282946
-0.00283138
-0.00282726
-0.00281752
-0.00280245
-0.00278224
-0.00275696
-0.00272657
-0.00269096
-0.00264993
-0.00260322
-0.00255049
-0.00249137
-0.00242541
-0.00235216
-0.00227107
-0.00218161
-0.00208319
-0.00197523
-0.0018571
-0.00172821
-0.00158793
-0.00143568
-0.0012709
-0.00109307
-0.000901743
-0.000696566
-0.00047728
-0.000243762
3.95178e-06
0.000265637
0.000540849
0.000828893
0.00112878
0.00143921
0.00175854
0.00208474
0.0024154
0.00274773
0.00307853
0.00340426
0.00372102
0.00402469
0.00431091
0.00457529
0.00481347
0.00502131
0.00519503
0.00533141
0.00542794
0.00548292
0.00549566
0.00546653
0.00539704
0.00528973
0.00514816
0.00497675
0.00478062
0.00456536
0.00433682
0.00410089
0.00386335
0.00362967
0.00340496
0.00319389
0.00300122
0.0028315
0.00268227
0.00254875
-0.0024096
-0.00258061
-0.0027089
-0.00280878
-0.00289387
-0.00296485
-0.00302245
-0.00306828
-0.00310377
-0.00313017
-0.00314856
-0.00315985
-0.00316479
-0.00316397
-0.00315783
-0.00314669
-0.00313072
-0.00311
-0.00308451
-0.00305412
-0.00301864
-0.0029778
-0.00293126
-0.00287865
-0.0028195
-0.00275335
-0.00267964
-0.00259781
-0.00250726
-0.00240737
-0.00229749
-0.00217696
-0.00204512
-0.00190131
-0.0017449
-0.00157528
-0.00139189
-0.00119425
-0.00098195
-0.000754706
-0.000512361
-0.000254929
1.73754e-05
0.000304104
0.000604531
0.000917625
0.001242
0.00157588
0.00191708
0.00226298
0.00261048
0.00295607
0.00329578
0.00362526
0.00393985
0.00423465
0.0045047
0.00474512
0.0049513
0.0051191
0.00524505
0.00532656
0.00536209
0.0053513
0.00529514
0.00519583
0.0050568
0.00488259
0.00467864
0.00445102
0.00420622
0.00395087
0.00369151
0.00343443
0.00318547
0.00294999
0.00273349
0.0025412
0.00236991
0.00221385
-0.00273715
-0.00291041
-0.0030406
-0.00314221
-0.00322906
-0.00330186
-0.00336138
-0.00340926
-0.003447
-0.00347587
-0.00349699
-0.00351131
-0.00351958
-0.00352244
-0.00352033
-0.00351358
-0.00350238
-0.00348683
-0.0034669
-0.00344247
-0.00341336
-0.00337931
-0.00333997
-0.00329497
-0.00324386
-0.00318615
-0.0031213
-0.00304874
-0.00296785
-0.00287799
-0.00277849
-0.00266867
-0.00254781
-0.00241521
-0.00227016
-0.00211198
-0.00193999
-0.00175359
-0.00155222
-0.00133539
-0.00110274
-0.000854044
-0.000589226
-0.000308424
-1.20211e-05
0.000299313
0.000624568
0.00096235
0.00131083
0.00166769
0.00203011
0.00239472
0.0027576
0.00311429
0.00345986
0.00378895
0.00409597
0.00437522
0.00462108
0.00482833
0.00499231
0.00510922
0.0051764
0.00519248
0.00515759
0.00507335
0.00494286
0.00477063
0.00456233
0.00432453
0.0040644
0.00378942
0.00350706
0.00322457
0.0029487
0.00268569
0.00244192
0.00222345
0.00202618
0.00184304
-0.00308499
-0.00326037
-0.00339238
-0.0034957
-0.00358432
-0.00365899
-0.00372052
-0.00377058
-0.00381073
-0.00384228
-0.00386638
-0.003884
-0.00389595
-0.00390287
-0.00390523
-0.00390338
-0.00389753
-0.00388777
-0.00387411
-0.00385645
-0.0038346
-0.00380831
-0.00377728
-0.00374111
-0.00369938
-0.00365161
-0.00359728
-0.0035358
-0.00346658
-0.00338897
-0.0033023
-0.00320585
-0.00309892
-0.00298074
-0.00285056
-0.00270763
-0.00255117
-0.00238045
-0.00219476
-0.00199341
-0.00177582
-0.00154145
-0.00128991
-0.00102095
-0.000734525
-0.000430828
-0.000110355
0.000226025
0.000577008
0.000940787
0.00131497
0.00169655
0.0020818
0.00246631
0.00284499
0.00321209
0.00356138
0.00388627
0.00418002
0.0044361
0.00464838
0.00481155
0.00492143
0.00497527
0.00497196
0.00491217
0.0047984
0.00463489
0.0044274
0.00418295
0.00390945
0.00361533
0.00330919
0.00299942
0.00269393
0.00240004
0.00212524
0.00187663
0.00164898
0.00143368
-0.00345317