/*--------------------------------*- C++ -*----------------------------------*\
  =========                 |
  \\      /  F ield         | OpenFOAM: The Open Source CFD Toolbox
   \\    /   O peration     | Website:  https://openfoam.org
    \\  /    A nd           | Version:  7
     \\/     M anipulation  |
\*---------------------------------------------------------------------------*/
FoamFile
{
    version     2.0;
    format      ascii;
    class       volVectorField;
    location    "0.975";
    object      U;
}
// * * * * * * * * * * * * * * * * * * * * * * * * * * * * * * * * * * * * * //

dimensions      [0 1 -1 0 0 0 0];

internalField   nonuniform List<vector> 
6400
(
(8.60579e-06 -8.63908e-06 0)
(3.36701e-05 -1.58319e-05 0)
(6.38657e-05 -1.44774e-05 0)
(8.24279e-05 -8.75089e-06 0)
(8.10299e-05 -1.29694e-06 0)
(5.69879e-05 6.55102e-06 0)
(9.9342e-06 1.41332e-05 0)
(-5.9285e-05 2.11486e-05 0)
(-0.000149139 2.74716e-05 0)
(-0.000257755 3.30649e-05 0)
(-0.000383122 3.79387e-05 0)
(-0.000523213 4.21283e-05 0)
(-0.000676051 4.56813e-05 0)
(-0.000839753 4.86497e-05 0)
(-0.00101255 5.10849e-05 0)
(-0.0011928 5.30361e-05 0)
(-0.00137897 5.45481e-05 0)
(-0.00156965 5.5661e-05 0)
(-0.00176353 5.64092e-05 0)
(-0.00195939 5.68213e-05 0)
(-0.00215608 5.69195e-05 0)
(-0.0023525 5.67207e-05 0)
(-0.00254761 5.62366e-05 0)
(-0.00274041 5.5474e-05 0)
(-0.00292988 5.44362e-05 0)
(-0.00311506 5.31228e-05 0)
(-0.00329494 5.15309e-05 0)
(-0.00346854 4.96562e-05 0)
(-0.00363486 4.74935e-05 0)
(-0.0037929 4.50371e-05 0)
(-0.00394163 4.22817e-05 0)
(-0.00408004 3.92236e-05 0)
(-0.00420711 3.58611e-05 0)
(-0.00432183 3.21953e-05 0)
(-0.0044232 2.82302e-05 0)
(-0.00451027 2.39743e-05 0)
(-0.00458211 1.94403e-05 0)
(-0.00463788 1.46454e-05 0)
(-0.00467676 9.61168e-06 0)
(-0.00469808 4.3666e-06 0)
(-0.00470124 -1.05706e-06 0)
(-0.00468575 -6.6213e-06 0)
(-0.00465129 -1.22829e-05 0)
(-0.00459767 -1.7994e-05 0)
(-0.00452487 -2.37018e-05 0)
(-0.00443305 -2.935e-05 0)
(-0.00432256 -3.48788e-05 0)
(-0.00419394 -4.02261e-05 0)
(-0.00404795 -4.53283e-05 0)
(-0.00388552 -5.01212e-05 0)
(-0.00370782 -5.45412e-05 0)
(-0.0035162 -5.85263e-05 0)
(-0.00331221 -6.20174e-05 0)
(-0.00309757 -6.49593e-05 0)
(-0.00287416 -6.73023e-05 0)
(-0.00264403 -6.90031e-05 0)
(-0.00240933 -7.00257e-05 0)
(-0.00217231 -7.03424e-05 0)
(-0.00193531 -6.99343e-05 0)
(-0.00170068 -6.87923e-05 0)
(-0.00147081 -6.69171e-05 0)
(-0.00124805 -6.43196e-05 0)
(-0.0010347 -6.10208e-05 0)
(-0.000832964 -5.70521e-05 0)
(-0.000644932 -5.24544e-05 0)
(-0.000472533 -4.72783e-05 0)
(-0.000317508 -4.15834e-05 0)
(-0.000181378 -3.54387e-05 0)
(-6.54051e-05 -2.89232e-05 0)
(2.94387e-05 -2.21279e-05 0)
(0.000102523 -1.51567e-05 0)
(0.000153614 -8.13587e-06 0)
(0.000182954 -1.22472e-06 0)
(0.000191376 5.36152e-06 0)
(0.000180495 1.13143e-05 0)
(0.000152994 1.61567e-05 0)
(0.000112999 1.91413e-05 0)
(6.68226e-05 1.90488e-05 0)
(2.51488e-05 1.40478e-05 0)
(3.57501e-06 3.5891e-06 0)
(1.59211e-05 -3.37999e-05 0)
(5.40975e-05 -5.39188e-05 0)
(8.79206e-05 -4.09976e-05 0)
(8.94832e-05 -9.59356e-06 0)
(4.30664e-05 3.07657e-05 0)
(-5.81785e-05 7.43563e-05 0)
(-0.0002164 0.000117816 0)
(-0.000430729 0.000159225 0)
(-0.000698366 0.000197532 0)
(-0.00101534 0.000232208 0)
(-0.00137704 0.00026305 0)
(-0.00177858 0.000290049 0)
(-0.00221502 0.000313317 0)
(-0.0026815 0.000333034 0)
(-0.00317335 0.00034941 0)
(-0.00368613 0.000362668 0)
(-0.00421566 0.000373028 0)
(-0.00475799 0.000380692 0)
(-0.00530939 0.000385842 0)
(-0.00586638 0.000388634 0)
(-0.00642561 0.000389195 0)
(-0.00698392 0.000387627 0)
(-0.00753824 0.000384003 0)
(-0.0080856 0.000378373 0)
(-0.00862308 0.000370767 0)
(-0.00914779 0.000361196 0)
(-0.00965687 0.00034966 0)
(-0.0101475 0.000336148 0)
(-0.0106167 0.000320647 0)
(-0.0110617 0.000303142 0)
(-0.0114797 0.000283625 0)
(-0.0118677 0.000262095 0)
(-0.0122229 0.000238567 0)
(-0.0125425 0.000213071 0)
(-0.0128239 0.000185658 0)
(-0.0130645 0.000156403 0)
(-0.0132617 0.00012541 0)
(-0.0134133 9.28083e-05 0)
(-0.0135172 5.87588e-05 0)
(-0.0135717 2.34538e-05 0)
(-0.0135751 -1.2883e-05 0)
(-0.0135263 -4.99969e-05 0)
(-0.0134246 -8.76036e-05 0)
(-0.0132696 -0.000125391 0)
(-0.0130613 -0.00016302 0)
(-0.0128003 -0.000200131 0)
(-0.0124878 -0.000236347 0)
(-0.0121252 -0.000271278 0)
(-0.0117148 -0.000304526 0)
(-0.0112591 -0.000335693 0)
(-0.0107616 -0.000364386 0)
(-0.0102258 -0.000390226 0)
(-0.00965616 -0.000412849 0)
(-0.00905725 -0.000431922 0)
(-0.00843428 -0.000447144 0)
(-0.00779278 -0.000458252 0)
(-0.00713859 -0.000465033 0)
(-0.00647783 -0.000467321 0)
(-0.00581677 -0.00046501 0)
(-0.0051618 -0.000458051 0)
(-0.00451932 -0.000446458 0)
(-0.00389566 -0.000430311 0)
(-0.00329699 -0.000409754 0)
(-0.00272921 -0.000384997 0)
(-0.00219792 -0.000356314 0)
(-0.00170824 -0.000324048 0)
(-0.00126478 -0.000288604 0)
(-0.000871523 -0.000250457 0)
(-0.000531716 -0.000210154 0)
(-0.000247769 -0.000168328 0)
(-2.11224e-05 -0.000125713 0)
(0.000147918 -8.31799e-05 0)
(0.000260378 -4.17874e-05 0)
(0.000318896 -2.87739e-06 0)
(0.000328094 3.17925e-05 0)
(0.000295084 5.98367e-05 0)
(0.000229939 7.79712e-05 0)
(0.000146395 8.16523e-05 0)
(6.49315e-05 6.50608e-05 0)
(1.39316e-05 2.50636e-05 0)
(1.4783e-05 -6.43201e-05 0)
(4.17071e-05 -8.79471e-05 0)
(4.51417e-05 -4.44817e-05 0)
(-5.02077e-06 3.85546e-05 0)
(-0.000126718 0.000142845 0)
(-0.000328755 0.00025613 0)
(-0.000614367 0.000370438 0)
(-0.000982846 0.000480744 0)
(-0.00143074 0.000584007 0)
(-0.00195279 0.000678493 0)
(-0.00254265 0.000763337 0)
(-0.00319338 0.000838243 0)
(-0.0038978 0.000903279 0)
(-0.00464874 0.000958743 0)
(-0.00543917 0.00100506 0)
(-0.00626231 0.00104272 0)
(-0.00711168 0.00107224 0)
(-0.0079811 0.0010941 0)
(-0.0088647 0.00110874 0)
(-0.00975689 0.00111656 0)
(-0.0106523 0.0011179 0)
(-0.0115459 0.001113 0)
(-0.0124326 0.00110209 0)
(-0.0133077 0.00108529 0)
(-0.0141663 0.00106271 0)
(-0.0150039 0.00103439 0)
(-0.0158157 0.00100036 0)
(-0.0165972 0.000960601 0)
(-0.0173438 0.000915116 0)
(-0.0180509 0.000863894 0)
(-0.0187139 0.000806943 0)
(-0.0193284 0.000744296 0)
(-0.0198898 0.000676027 0)
(-0.020394 0.000602254 0)
(-0.0208366 0.000523155 0)
(-0.0212136 0.000438971 0)
(-0.0215213 0.000350017 0)
(-0.0217563 0.000256684 0)
(-0.0219153 0.000159445 0)
(-0.0219957 5.88575e-05 0)
(-0.0219953 -4.44388e-05 0)
(-0.0219124 -0.000149721 0)
(-0.021746 -0.000256187 0)
(-0.0214955 -0.000362963 0)
(-0.0211613 -0.000469107 0)
(-0.0207444 -0.000573624 0)
(-0.0202465 -0.000675471 0)
(-0.0196704 -0.000773577 0)
(-0.0190194 -0.000866853 0)
(-0.0182978 -0.000954213 0)
(-0.0175107 -0.00103458 0)
(-0.016664 -0.00110693 0)
(-0.0157642 -0.00117028 0)
(-0.0148187 -0.00122373 0)
(-0.0138355 -0.00126646 0)
(-0.0128231 -0.00129776 0)
(-0.0117906 -0.00131707 0)
(-0.0107474 -0.00132394 0)
(-0.00970303 -0.0013181 0)
(-0.00866743 -0.00129943 0)
(-0.00765037 -0.00126797 0)
(-0.00666156 -0.00122396 0)
(-0.00571046 -0.00116781 0)
(-0.00480613 -0.00110011 0)
(-0.00395706 -0.00102166 0)
(-0.00317111 -0.000933412 0)
(-0.00245525 -0.000836526 0)
(-0.00181551 -0.000732358 0)
(-0.00125676 -0.000622476 0)
(-0.000782528 -0.000508688 0)
(-0.000394853 -0.000393092 0)
(-9.40158e-05 -0.000278143 0)
(0.000121718 -0.000166774 0)
(0.000256441 -6.25614e-05 0)
(0.000317038 3.00284e-05 0)
(0.000313671 0.000105324 0)
(0.000260141 0.000156115 0)
(0.000174315 0.000173366 0)
(8.18197e-05 0.000146518 0)
(1.89011e-05 6.65171e-05 0)
(9.23041e-06 -8.35261e-05 0)
(1.04344e-05 -8.98282e-05 0)
(-3.85391e-05 5.72615e-06 0)
(-0.000164068 0.000162961 0)
(-0.000382999 0.000354834 0)
(-0.000704342 0.00056228 0)
(-0.00113139 0.000772183 0)
(-0.00166317 0.000975834 0)
(-0.0022956 0.00116765 0)
(-0.00302245 0.00134422 0)
(-0.00383607 0.00150368 0)
(-0.00472798 0.00164519 0)
(-0.00568928 0.00176862 0)
(-0.00671094 0.0018743 0)
(-0.00778401 0.00196284 0)
(-0.00889976 0.002035 0)
(-0.0100498 0.00209161 0)
(-0.0112259 0.00213349 0)
(-0.0124204 0.0021614 0)
(-0.0136257 0.00217603 0)
(-0.0148348 0.00217796 0)
(-0.0160407 0.00216767 0)
(-0.0172367 0.00214553 0)
(-0.0184161 0.00211182 0)
(-0.0195726 0.00206672 0)
(-0.0206999 0.00201035 0)
(-0.0217915 0.00194278 0)
(-0.0228414 0.00186403 0)
(-0.0238434 0.00177412 0)
(-0.0247912 0.00167308 0)
(-0.0256788 0.00156097 0)
(-0.0265002 0.00143789 0)
(-0.0272495 0.00130404 0)
(-0.0279211 0.00115969 0)
(-0.0285093 0.00100521 0)
(-0.0290091 0.000841116 0)
(-0.0294154 0.000668045 0)
(-0.0297239 0.000486779 0)
(-0.0299306 0.000298253 0)
(-0.030032 0.000103554 0)
(-0.0300254 -9.60754e-05 0)
(-0.0299087 -0.000299242 0)
(-0.0296807 -0.00050441 0)
(-0.029341 -0.000709909 0)
(-0.0288901 -0.000913953 0)
(-0.0283294 -0.00111465 0)
(-0.0276615 -0.00131004 0)
(-0.02689 -0.0014981 0)
(-0.0260195 -0.00167679 0)
(-0.0250555 -0.00184406 0)
(-0.0240049 -0.00199791 0)
(-0.0228754 -0.00213642 0)
(-0.0216757 -0.00225775 0)
(-0.0204154 -0.00236022 0)
(-0.0191049 -0.00244231 0)
(-0.0177554 -0.00250273 0)
(-0.0163786 -0.00254041 0)
(-0.0149868 -0.00255453 0)
(-0.0135925 -0.00254459 0)
(-0.0122084 -0.00251037 0)
(-0.0108474 -0.002452 0)
(-0.00952206 -0.00236992 0)
(-0.00824459 -0.00226492 0)
(-0.00702675 -0.00213816 0)
(-0.00587958 -0.00199114 0)
(-0.00481321 -0.0018257 0)
(-0.00383667 -0.00164408 0)
(-0.00295771 -0.00144888 0)
(-0.00218258 -0.00124312 0)
(-0.0015158 -0.00103025 0)
(-0.000959937 -0.000814286 0)
(-0.000515329 -0.000599844 0)
(-0.000179787 -0.000392361 0)
(5.17458e-05 -0.000198298 0)
(0.000187595 -2.54542e-05 0)
(0.000239806 0.000116663 0)
(0.000224365 0.000216465 0)
(0.00016153 0.000260037 0)
(7.97459e-05 0.000231326 0)
(1.9204e-05 0.000112841 0)
(1.79971e-06 -8.27592e-05 0)
(-3.08386e-05 -4.27358e-05 0)
(-0.000146496 0.000129384 0)
(-0.00036366 0.000383057 0)
(-0.000695711 0.000683506 0)
(-0.00115049 0.00100539 0)
(-0.00173037 0.00133063 0)
(-0.00243355 0.00164678 0)
(-0.00325508 0.00194551 0)
(-0.00418777 0.00222155 0)
(-0.00522285 0.00247177 0)
(-0.00635058 0.00269463 0)
(-0.00756065 0.00288964 0)
(-0.00884252 0.00305707 0)
(-0.0101857 0.00319765 0)
(-0.0115797 0.00331236 0)
(-0.0130145 0.00340235 0)
(-0.0144804 0.00346876 0)
(-0.0159678 0.0035127 0)
(-0.0174676 0.00353516 0)
(-0.018971 0.003537 0)
(-0.0204694 0.00351894 0)
(-0.0219546 0.00348156 0)
(-0.0234183 0.00342528 0)
(-0.0248525 0.00335041 0)
(-0.0262494 0.00325716 0)
(-0.0276012 0.00314567 0)
(-0.0289001 0.00301602 0)
(-0.0301386 0.00286828 0)
(-0.0313089 0.00270256 0)
(-0.0324038 0.00251902 0)
(-0.0334157 0.00231788 0)
(-0.0343376 0.0020995 0)
(-0.0351626 0.00186439 0)
(-0.0358839 0.0016132 0)
(-0.0364953 0.00134681 0)
(-0.0369911 0.00106628 0)
(-0.0373658 0.000772915 0)
(-0.0376148 0.000468233 0)
(-0.037734 0.000154006 0)
(-0.0377203 -0.000167763 0)
(-0.0375714 -0.000494836 0)
(-0.0372859 -0.000824758 0)
(-0.0368634 -0.00115487 0)
(-0.0363047 -0.00148234 0)
(-0.0356119 -0.00180418 0)
(-0.034788 -0.00211728 0)
(-0.0338374 -0.00241847 0)
(-0.0327659 -0.00270453 0)
(-0.0315803 -0.00297225 0)
(-0.0302889 -0.00321851 0)
(-0.0289009 -0.00344027 0)
(-0.027427 -0.00363469 0)
(-0.0258786 -0.00379913 0)
(-0.0242684 -0.00393122 0)
(-0.0226098 -0.00402895 0)
(-0.0209168 -0.00409065 0)
(-0.0192042 -0.00411506 0)
(-0.0174871 -0.00410139 0)
(-0.0157807 -0.00404934 0)
(-0.0141002 -0.0039591 0)
(-0.012461 -0.00383139 0)
(-0.0108775 -0.0036675 0)
(-0.00936402 -0.00346924 0)
(-0.00793364 -0.00323902 0)
(-0.00659855 -0.00297979 0)
(-0.00536957 -0.0026951 0)
(-0.00425601 -0.00238911 0)
(-0.00326535 -0.00206661 0)
(-0.00240305 -0.00173309 0)
(-0.00167226 -0.00139485 0)
(-0.00107352 -0.00105911 0)
(-0.000604515 -0.000734202 0)
(-0.000259699 -0.000429854 0)
(-2.99775e-05 -0.000157504 0)
(9.76732e-05 6.92928e-05 0)
(0.000140382 0.000234435 0)
(0.000119685 0.000318988 0)
(6.50161e-05 0.000301019 0)
(1.678e-05 0.000154201 0)
(-6.29649e-06 -5.86109e-05 0)
(-7.69983e-05 6.20659e-05 0)
(-0.000267966 0.000338283 0)
(-0.000587392 0.000711873 0)
(-0.00104356 0.00114172 0)
(-0.00164204 0.00159706 0)
(-0.00238348 0.00205537 0)
(-0.00326462 0.00250069 0)
(-0.00427933 0.00292202 0)
(-0.00541931 0.00331216 0)
(-0.00667469 0.00366666 0)
(-0.00803457 0.00398315 0)
(-0.0094874 0.00426071 0)
(-0.0110214 0.00449945 0)
(-0.0126246 0.00470014 0)
(-0.0142853 0.00486399 0)
(-0.015992 0.00499239 0)
(-0.0177334 0.00508682 0)
(-0.0194986 0.0051487 0)
(-0.0212769 0.00517934 0)
(-0.0230582 0.00517989 0)
(-0.0248323 0.00515134 0)
(-0.0265895 0.00509446 0)
(-0.0283201 0.00500985 0)
(-0.0300148 0.00489798 0)
(-0.0316643 0.00475915 0)
(-0.0332593 0.00459359 0)
(-0.0347909 0.00440149 0)
(-0.0362499 0.00418301 0)
(-0.0376276 0.00393836 0)
(-0.0389151 0.00366784 0)
(-0.0401041 0.00337185 0)
(-0.0411862 0.003051 0)
(-0.0421533 0.00270607 0)
(-0.0429978 0.0023381 0)
(-0.0437126 0.00194841 0)
(-0.0442909 0.00153858 0)
(-0.0447267 0.00111056 0)
(-0.0450147 0.000666576 0)
(-0.0451504 0.00020922 0)
(-0.0451303 -0.000258596 0)
(-0.0449518 -0.000733641 0)
(-0.0446134 -0.00121238 0)
(-0.044115 -0.00169099 0)
(-0.0434576 -0.00216541 0)
(-0.0426436 -0.00263138 0)
(-0.0416766 -0.00308448 0)
(-0.0405619 -0.00352017 0)
(-0.039306 -0.0039339 0)
(-0.037917 -0.00432111 0)
(-0.0364044 -0.00467737 0)
(-0.0347789 -0.00499838 0)
(-0.0330525 -0.00528012 0)
(-0.0312387 -0.00551885 0)
(-0.0293518 -0.00571125 0)
(-0.0274072 -0.00585444 0)
(-0.0254211 -0.00594608 0)
(-0.0234102 -0.00598441 0)
(-0.0213919 -0.00596831 0)
(-0.0193837 -0.00589734 0)
(-0.0174031 -0.0057718 0)
(-0.0154675 -0.00559275 0)
(-0.0135936 -0.005362 0)
(-0.0117977 -0.00508218 0)
(-0.0100949 -0.00475672 0)
(-0.00849918 -0.00438987 0)
(-0.00702308 -0.0039867 0)
(-0.00567729 -0.00355317 0)
(-0.00447051 -0.00309612 0)
(-0.00340914 -0.00262337 0)
(-0.00249702 -0.00214382 0)
(-0.00173513 -0.00166756 0)
(-0.0011213 -0.00120613 0)
(-0.000649949 -0.000772757 0)
(-0.000311767 -0.000382688 0)
(-9.34273e-05 -5.36297e-05 0)
(2.25707e-05 0.000193789 0)
(5.81914e-05 0.000335639 0)
(4.23685e-05 0.000344221 0)
(1.28943e-05 0.000185327 0)
(-1.44887e-05 -9.73238e-06 0)
(-0.000125149 0.000229293 0)
(-0.000396152 0.000639588 0)
(-0.000824259 0.00115786 0)
(-0.00141166 0.00173816 0)
(-0.00216086 0.00234538 0)
(-0.00307007 0.00295322 0)
(-0.00413406 0.00354262 0)
(-0.00534516 0.00410018 0)
(-0.00669372 0.00461687 0)
(-0.00816868 0.00508696 0)
(-0.00975799 0.00550724 0)
(-0.011449 0.00587633 0)
(-0.0132286 0.00619412 0)
(-0.0150839 0.00646142 0)
(-0.0170018 0.00667957 0)
(-0.0189696 0.00685021 0)
(-0.0209747 0.00697511 0)
(-0.0230049 0.00705601 0)
(-0.0250484 0.00709454 0)
(-0.0270935 0.00709213 0)
(-0.029129 0.00705 0)
(-0.0311436 0.00696917 0)
(-0.0331265 0.00685043 0)
(-0.035067 0.00669437 0)
(-0.0369545 0.00650145 0)
(-0.0387786 0.00627203 0)
(-0.0405289 0.00600638 0)
(-0.0421953 0.00570481 0)
(-0.0437678 0.00536768 0)
(-0.0452364 0.00499545 0)
(-0.0465916 0.00458879 0)
(-0.047824 0.00414858 0)
(-0.0489246 0.00367596 0)
(-0.049885 0.00317243 0)
(-0.050697 0.00263982 0)
(-0.0513533 0.00208038 0)
(-0.0518472 0.00149674 0)
(-0.0521729 0.000891999 0)
(-0.0523253 0.000269662 0)
(-0.0523008 -0.000366319 0)
(-0.0520965 -0.00101158 0)
(-0.0517109 -0.00166135 0)
(-0.0511438 -0.00231052 0)
(-0.0503967 -0.00295365 0)
(-0.049472 -0.00358503 0)
(-0.0483742 -0.00419876 0)
(-0.0471089 -0.00478882 0)
(-0.0456837 -0.00534913 0)
(-0.0441075 -0.00587364 0)
(-0.0423908 -0.00635646 0)
(-0.0405456 -0.00679189 0)
(-0.0385855 -0.00717457 0)
(-0.0365251 -0.00749957 0)
(-0.0343806 -0.00776246 0)
(-0.0321689 -0.00795943 0)
(-0.0299082 -0.00808737 0)
(-0.027617 -0.00814393 0)
(-0.0253147 -0.00812763 0)
(-0.0230207 -0.0080379 0)
(-0.0207545 -0.00787513 0)
(-0.0185355 -0.00764071 0)
(-0.0163825 -0.00733709 0)
(-0.0143135 -0.00696776 0)
(-0.0123455 -0.00653731 0)
(-0.0104943 -0.0060514 0)
(-0.00877383 -0.00551683 0)
(-0.00719625 -0.00494154 0)
(-0.00577149 -0.00433463 0)
(-0.00450698 -0.00370647 0)
(-0.00340738 -0.00306877 0)
(-0.00247432 -0.00243475 0)
(-0.0017061 -0.00181931 0)
(-0.00109746 -0.00123933 0)
(-0.000639337 -0.000713952 0)
(-0.000318639 -0.000265051 0)
(-0.00011809 8.23044e-05 0)
(-1.59784e-05 0.000299397 0)
(1.50244e-05 0.00035323 0)
(8.28876e-06 0.000203159 0)
(-2.25272e-05 6.42272e-05 0)
(-0.000173686 0.000461155 0)
(-0.000526871 0.00103723 0)
(-0.00106707 0.00172606 0)
(-0.00178985 0.00247832 0)
(-0.00269411 0.00325559 0)
(-0.0037751 0.00402863 0)
(-0.00502518 0.00477585 0)
(-0.00643478 0.00548177 0)
(-0.00799269 0.00613578 0)
(-0.00968653 0.00673103 0)
(-0.011503 0.00726352 0)
(-0.0134283 0.00773143 0)
(-0.0154484 0.00813446 0)
(-0.0175491 0.0084734 0)
(-0.0197163 0.00874974 0)
(-0.0219362 0.00896534 0)
(-0.0241951 0.00912224 0)
(-0.0264797 0.00922249 0)
(-0.028777 0.00926799 0)
(-0.0310741 0.00926047 0)
(-0.0333587 0.00920141 0)
(-0.0356184 0.00909204 0)
(-0.0378411 0.00893332 0)
(-0.0400151 0.00872605 0)
(-0.0421285 0.0084708 0)
(-0.0441698 0.00816807 0)
(-0.0461276 0.00781829 0)
(-0.0479906 0.00742191 0)
(-0.0497478 0.00697949 0)
(-0.0513881 0.00649171 0)
(-0.0529011 0.00595951 0)
(-0.0542765 0.00538413 0)
(-0.0555044 0.00476715 0)
(-0.0565755 0.00411056 0)
(-0.057481 0.00341681 0)
(-0.0582128 0.00268887 0)
(-0.0587637 0.00193019 0)
(-0.0591274 0.00114479 0)
(-0.0592985 0.000337225 0)
(-0.0592729 -0.000487409 0)
(-0.0590476 -0.00132349 0)
(-0.0586211 -0.00216492 0)
(-0.0579932 -0.00300514 0)
(-0.0571654 -0.0038372 0)
(-0.0561406 -0.00465383 0)
(-0.0549235 -0.00544752 0)
(-0.0535205 -0.00621059 0)
(-0.0519396 -0.00693532 0)
(-0.0501906 -0.00761405 0)
(-0.0482849 -0.00823926 0)
(-0.0462357 -0.00880374 0)
(-0.0440575 -0.00930068 0)
(-0.0417664 -0.00972381 0)
(-0.03938 -0.0100675 0)
(-0.0369166 -0.0103269 0)
(-0.0343961 -0.0104981 0)
(-0.0318387 -0.010578 0)
(-0.0292654 -0.0105647 0)
(-0.0266976 -0.0104576 0)
(-0.0241565 -0.0102571 0)
(-0.0216634 -0.00996488 0)
(-0.0192388 -0.00958411 0)
(-0.0169027 -0.0091192 0)
(-0.0146738 -0.00857597 0)
(-0.0125694 -0.00796162 0)
(-0.0106051 -0.00728479 0)
(-0.0087945 -0.00655554 0)
(-0.00714876 -0.00578541 0)
(-0.00567649 -0.00498748 0)
(-0.00438336 -0.00417646 0)
(-0.00327183 -0.00336881 0)
(-0.00234097 -0.00258295 0)
(-0.00158617 -0.00183946 0)
(-0.000998989 -0.00116143 0)
(-0.000566999 -0.000574834 0)
(-0.000273619 -0.000109022 0)
(-9.79266e-05 0.000202829 0)
(-1.49055e-05 0.000323059 0)
(3.39844e-06 0.000206001 0)
(-3.03133e-05 0.000163066 0)
(-0.000221741 0.000758254 0)
(-0.000657589 0.00153287 0)
(-0.00131118 0.002419 0)
(-0.00217126 0.00336518 0)
(-0.00323279 0.00433076 0)
(-0.00448768 0.00528433 0)
(-0.00592557 0.00620235 0)
(-0.00753467 0.00706777 0)
(-0.00930201 0.00786871 0)
(-0.0112137 0.00859736 0)
(-0.0132552 0.00924913 0)
(-0.0154115 0.00982181 0)
(-0.0176674 0.010315 0)
(-0.0200079 0.0107294 0)
(-0.0224177 0.0110668 0)
(-0.0248821 0.0113291 0)
(-0.0273864 0.0115187 0)
(-0.0299163 0.011638 0)
(-0.0324577 0.011689 0)
(-0.0349969 0.0116739 0)
(-0.0375203 0.0115943 0)
(-0.0400147 0.0114517 0)
(-0.0424668 0.0112472 0)
(-0.044864 0.0109818 0)
(-0.0471933 0.0106563 0)
(-0.0494422 0.0102712 0)
(-0.0515983 0.00982726 0)
(-0.0536494 0.00932501 0)
(-0.0555833 0.00876523 0)
(-0.0573883 0.00814889 0)
(-0.059053 0.00747725 0)
(-0.0605662 0.00675194 0)
(-0.0619172 0.00597503 0)
(-0.063096 0.00514908 0)
(-0.0640932 0.00427724 0)
(-0.0649 0.00336323 0)
(-0.0655087 0.00241143 0)
(-0.0659125 0.00142687 0)
(-0.0661056 0.000415225 0)
(-0.0660835 -0.00061716 0)
(-0.0658432 -0.00166332 0)
(-0.0653829 -0.00271569 0)
(-0.0647025 -0.00376618 0)
(-0.0638034 -0.00480622 0)
(-0.0626889 -0.00582685 0)
(-0.0613639 -0.00681883 0)
(-0.0598351 -0.00777273 0)
(-0.0581112 -0.00867904 0)
(-0.0562025 -0.00952834 0)
(-0.0541213 -0.0103114 0)
(-0.0518815 -0.0110194 0)
(-0.0494988 -0.0116439 0)
(-0.0469904 -0.0121772 0)
(-0.0443749 -0.0126123 0)
(-0.0416722 -0.0129434 0)
(-0.0389035 -0.0131654 0)
(-0.0360906 -0.0132747 0)
(-0.0332561 -0.0132689 0)
(-0.030423 -0.0131469 0)
(-0.0276143 -0.0129094 0)
(-0.024853 -0.0125585 0)
(-0.0221615 -0.0120978 0)
(-0.0195613 -0.0115329 0)
(-0.017073 -0.0108707 0)
(-0.0147155 -0.0101202 0)
(-0.012506 -0.00929179 0)
(-0.0104595 -0.00839793 0)
(-0.00858875 -0.00745265 0)
(-0.00690353 -0.00647187 0)
(-0.00541072 -0.00547342 0)
(-0.00411386 -0.0044771 0)
(-0.00301303 -0.00350493 0)
(-0.00210455 -0.00258125 0)
(-0.00138093 -0.00173306 0)
(-0.000830753 -0.000990361 0)
(-0.000438485 -0.000386585 0)
(-0.000184353 4.09994e-05 0)
(-4.60803e-05 0.000250719 0)
(-1.53885e-06 0.000193041 0)
(-3.78168e-05 0.000286293 0)
(-0.000268857 0.00112019 0)
(-0.000786794 0.00212665 0)
(-0.00155362 0.00323737 0)
(-0.00255127 0.00439988 0)
(-0.00377059 0.00557216 0)
(-0.00519995 0.00672143 0)
(-0.006826 0.00782286 0)
(-0.00863454 0.00885827 0)
(-0.0106106 0.00981489 0)
(-0.0127387 0.0106843 0)
(-0.0150029 0.0114614 0)
(-0.0173869 0.0121437 0)
(-0.0198746 0.0127309 0)
(-0.0224498 0.0132237 0)
(-0.0250964 0.013624 0)
(-0.0277987 0.0139341 0)
(-0.0305412 0.0141565 0)
(-0.0333086 0.0142938 0)
(-0.036086 0.0143486 0)
(-0.0388587 0.0143231 0)
(-0.0416123 0.0142192 0)
(-0.0443326 0.0140386 0)
(-0.0470056 0.0137827 0)
(-0.0496175 0.0134525 0)
(-0.0521546 0.0130491 0)
(-0.0546033 0.0125732 0)
(-0.0569506 0.0120255 0)
(-0.0591831 0.0114069 0)
(-0.0612879 0.0107185 0)
(-0.0632526 0.00996146 0)
(-0.0650648 0.0091374 0)
(-0.0667126 0.00824842 0)
(-0.0681846 0.00729709 0)
(-0.0694701 0.00628663 0)
(-0.0705591 0.00522089 0)
(-0.0714421 0.00410447 0)
(-0.072111 0.0029427 0)
(-0.0725584 0.00174169 0)
(-0.0727782 0.000508333 0)
(-0.0727656 -0.000749716 0)
(-0.0725172 -0.00202405 0)
(-0.0720311 -0.00330558 0)
(-0.071307 -0.00458457 0)
(-0.0703465 -0.00585073 0)
(-0.0691527 -0.00709332 0)
(-0.0677309 -0.00830127 0)
(-0.066088 -0.00946325 0)
(-0.0642329 -0.0105679 0)
(-0.0621767 -0.0116039 0)
(-0.0599321 -0.0125603 0)
(-0.0575138 -0.0134263 0)
(-0.0549383 -0.0141919 0)
(-0.0522237 -0.0148478 0)
(-0.0493898 -0.0153857 0)
(-0.0464578 -0.0157983 0)
(-0.0434499 -0.0160798 0)
(-0.0403895 -0.0162254 0)
(-0.0373007 -0.0162324 0)
(-0.034208 -0.0160995 0)
(-0.0311362 -0.0158271 0)
(-0.0281098 -0.0154178 0)
(-0.0251531 -0.0148759 0)
(-0.0222894 -0.0142078 0)
(-0.0195409 -0.0134219 0)
(-0.0169282 -0.0125287 0)
(-0.0144703 -0.0115408 0)
(-0.0121838 -0.0104728 0)
(-0.0100829 -0.0093414 0)
(-0.00817889 -0.00816551 0)
(-0.00648001 -0.00696611 0)
(-0.00499112 -0.00576647 0)
(-0.00371353 -0.00459221 0)
(-0.00264476 -0.00347149 0)
(-0.00177854 -0.00243518 0)
(-0.0011047 -0.00151721 0)
(-0.000609049 -0.000754903 0)
(-0.000273171 -0.000189275 0)
(-7.77084e-05 0.000134526 0)
(-6.39912e-06 0.000163984 0)
(-4.50385e-05 0.000433284 0)
(-0.000314803 0.00154599 0)
(-0.000913584 0.00281769 0)
(-0.00179248 0.00418061 0)
(-0.00292676 0.0055821 0)
(-0.00430312 0.00697963 0)
(-0.00590625 0.00833975 0)
(-0.00771967 0.00963695 0)
(-0.00972658 0.0108524 0)
(-0.0119099 0.0119729 0)
(-0.0142524 0.0129897 0)
(-0.0167367 0.0138974 0)
(-0.0193452 0.0146936 0)
(-0.0220607 0.0153779 0)
(-0.0248659 0.0159513 0)
(-0.0277441 0.0164157 0)
(-0.0306785 0.0167739 0)
(-0.0336528 0.0170286 0)
(-0.036651 0.0171828 0)
(-0.0396574 0.0172392 0)
(-0.0426564 0.0172002 0)
(-0.0456329 0.0170682 0)
(-0.0485719 0.016845 0)
(-0.0514586 0.0165321 0)
(-0.0542783 0.0161308 0)
(-0.0570166 0.0156422 0)
(-0.0596592 0.0150673 0)
(-0.0621921 0.014407 0)
(-0.0646012 0.0136625 0)
(-0.066873 0.0128348 0)
(-0.0689941 0.0119258 0)
(-0.0709514 0.0109373 0)
(-0.0727324 0.00987184 0)
(-0.0743251 0.00873267 0)
(-0.075718 0.00752361 0)
(-0.0769005 0.00624931 0)
(-0.0778627 0.00491525 0)
(-0.0785957 0.00352778 0)
(-0.0790918 0.00209414 0)
(-0.0793444 0.000622507 0)
(-0.0793483 -0.000878093 0)
(-0.0790998 -0.00239775 0)
(-0.0785967 -0.00392577 0)
(-0.0778386 -0.00545069 0)
(-0.0768269 -0.00696045 0)
(-0.0755646 -0.00844241 0)
(-0.0740571 -0.00988356 0)
(-0.0723114 -0.0112706 0)
(-0.0703367 -0.0125903 0)
(-0.0681443 -0.0138292 0)
(-0.0657475 -0.0149743 0)
(-0.0631615 -0.0160132 0)
(-0.0604034 -0.016934 0)
(-0.0574923 -0.0177257 0)
(-0.0544488 -0.0183783 0)
(-0.0512952 -0.0188834 0)
(-0.048055 -0.0192338 0)
(-0.0447528 -0.019424 0)
(-0.0414142 -0.0194504 0)
(-0.0380653 -0.0193115 0)
(-0.0347324 -0.0190076 0)
(-0.0314418 -0.0185416 0)
(-0.0282194 -0.0179183 0)
(-0.0250904 -0.0171452 0)
(-0.0220789 -0.0162319 0)
(-0.0192072 -0.0151908 0)
(-0.0164961 -0.0140362 0)
(-0.0139641 -0.0127854 0)
(-0.0116269 -0.0114576 0)
(-0.00949748 -0.0100747 0)
(-0.00758576 -0.00866115 0)
(-0.00589806 -0.00724355 0)
(-0.00443714 -0.00585124 0)
(-0.00320198 -0.00451617 0)
(-0.00218772 -0.00327309 0)
(-0.00138567 -0.00215977 0)
(-0.000783128 -0.00121726 0)
(-0.000363173 -0.00049006 0)
(-0.000109365 -2.63962e-05 0)
(-1.11282e-05 0.000118823 0)
(-5.199e-05 0.000603359 0)
(-0.000359465 0.00203431 0)
(-0.00103743 0.00360446 0)
(-0.00202655 0.00524722 0)
(-0.00329564 0.00691046 0)
(-0.00482728 0.00855187 0)
(-0.00660246 0.010138 0)
(-0.00860145 0.0116432 0)
(-0.0108048 0.0130486 0)
(-0.0131932 0.0143408 0)
(-0.0157476 0.015511 0)
(-0.0184489 0.0165541 0)
(-0.0212784 0.0174678 0)
(-0.0242177 0.0182517 0)
(-0.0272487 0.0189072 0)
(-0.0303534 0.0194366 0)
(-0.0335146 0.0198428 0)
(-0.0367151 0.020129 0)
(-0.0399382 0.0202984 0)
(-0.0431674 0.0203541 0)
(-0.0463866 0.0202987 0)
(-0.0495799 0.0201347 0)
(-0.0527315 0.0198643 0)
(-0.055826 0.0194891 0)
(-0.058848 0.0190106 0)
(-0.0617825 0.0184301 0)
(-0.0646144 0.0177487 0)
(-0.0673289 0.0169675 0)
(-0.0699114 0.0160879 0)
(-0.0723476 0.0151114 0)
(-0.0746235 0.0140399 0)
(-0.0767253 0.0128758 0)
(-0.0786398 0.0116222 0)
(-0.0803544 0.0102828 0)
(-0.081857 0.00886208 0)
(-0.0831363 0.0073656 0)
(-0.0841819 0.00579973 0)
(-0.0849845 0.00417187 0)
(-0.0855356 0.00249045 0)
(-0.0858284 0.000764933 0)
(-0.085857 -0.000994214 0)
(-0.0856174 -0.00277553 0)
(-0.0851071 -0.00456665 0)
(-0.0843253 -0.00635435 0)
(-0.0832731 -0.00812467 0)
(-0.0819535 -0.00986306 0)
(-0.0803715 -0.0115545 0)
(-0.0785344 -0.0131836 0)
(-0.0764513 -0.0147349 0)
(-0.0741338 -0.0161931 0)
(-0.0715953 -0.0175431 0)
(-0.0688515 -0.0187704 0)
(-0.0659201 -0.019861 0)
(-0.0628209 -0.0208024 0)
(-0.0595752 -0.0215828 0)
(-0.0562064 -0.0221922 0)
(-0.052739 -0.0226222 0)
(-0.049199 -0.0228663 0)
(-0.0456132 -0.02292 0)
(-0.0420093 -0.0227814 0)
(-0.0384153 -0.0224507 0)
(-0.0348592 -0.0219308 0)
(-0.0313687 -0.0212273 0)
(-0.0279709 -0.0203484 0)
(-0.0246916 -0.0193051 0)
(-0.0215555 -0.0181115 0)
(-0.018585 -0.016784 0)
(-0.0158005 -0.0153421 0)
(-0.0132198 -0.013808 0)
(-0.0108577 -0.0122066 0)
(-0.00872578 -0.0105655 0)
(-0.00683217 -0.00891504 0)
(-0.00518131 -0.00728823 0)
(-0.00377379 -0.00572085 0)
(-0.00260638 -0.00425149 0)
(-0.00167204 -0.00292172 0)
(-0.000959639 -0.00177621 0)
(-0.00045379 -0.000862784 0)
(-0.000140874 -0.000232493 0)
(-1.57141e-05 5.76823e-05 0)
(-5.86854e-05 0.000795818 0)
(-0.000402792 0.00258362 0)
(-0.00115801 0.00448499 0)
(-0.00225504 0.00643503 0)
(-0.00365648 0.00838277 0)
(-0.00534087 0.0102867 0)
(-0.00728553 0.0121139 0)
(-0.00946748 0.0138393 0)
(-0.0118645 0.0154442 0)
(-0.0144551 0.0169157 0)
(-0.0172182 0.0182453 0)
(-0.0201331 0.0194282 0)
(-0.02318 0.0204624 0)
(-0.026339 0.0213481 0)
(-0.0295912 0.022087 0)
(-0.0329179 0.0226817 0)
(-0.0363009 0.0231356 0)
(-0.0397225 0.0234523 0)
(-0.0431651 0.0236351 0)
(-0.0466118 0.0236876 0)
(-0.0500457 0.0236127 0)
(-0.0534504 0.0234131 0)
(-0.0568096 0.0230911 0)
(-0.0601072 0.0226486 0)
(-0.0633272 0.0220873 0)
(-0.0664539 0.0214086 0)
(-0.0694718 0.0206137 0)
(-0.0723653 0.0197041 0)
(-0.0751193 0.0186813 0)
(-0.0777189 0.017547 0)
(-0.0801493 0.0163035 0)
(-0.0823963 0.0149537 0)
(-0.084446 0.013501 0)
(-0.0862851 0.0119499 0)
(-0.0879011 0.0103056 0)
(-0.089282 0.00857435 0)
(-0.0904168 0.0067635 0)
(-0.0912956 0.00488155 0)
(-0.0919095 0.0029381 0)
(-0.0922508 0.000943964 0)
(-0.0923135 -0.00108894 0)
(-0.0920929 -0.00314756 0)
(-0.0915859 -0.00521781 0)
(-0.0907914 -0.00728465 0)
(-0.0897102 -0.00933221 0)
(-0.0883448 -0.0113439 0)
(-0.0867001 -0.0133026 0)
(-0.0847831 -0.0151908 0)
(-0.0826029 -0.0169908 0)
(-0.080171 -0.0186852 0)
(-0.077501 -0.0202566 0)
(-0.0746089 -0.0216884 0)
(-0.0715129 -0.0229646 0)
(-0.068233 -0.0240706 0)
(-0.0647916 -0.0249928 0)
(-0.0612127 -0.0257197 0)
(-0.057522 -0.0262412 0)
(-0.0537466 -0.0265498 0)
(-0.0499147 -0.0266402 0)
(-0.0460556 -0.0265095 0)
(-0.0421988 -0.0261579 0)
(-0.0383742 -0.0255882 0)
(-0.0346115 -0.0248067 0)
(-0.0309396 -0.0238223 0)
(-0.0273865 -0.0226474 0)
(-0.0239788 -0.0212974 0)
(-0.0207413 -0.0197912 0)
(-0.0176963 -0.0181505 0)
(-0.0148639 -0.0164004 0)
(-0.0122608 -0.0145687 0)
(-0.00990061 -0.0126866 0)
(-0.00779349 -0.010788 0)
(-0.00594571 -0.00890956 0)
(-0.00435972 -0.00709103 0)
(-0.00303405 -0.00537487 0)
(-0.0019634 -0.00380643 0)
(-0.00113832 -0.00243399 0)
(-0.000544916 -0.0013086 0)
(-0.000172234 -0.000484048 0)
(-2.01717e-05 -1.92877e-05 0)
(-6.51378e-05 0.00100996 0)
(-0.000444763 0.00319224 0)
(-0.00127513 0.00545699 0)
(-0.00247741 0.00774145 0)
(-0.00400824 0.00999623 0)
(-0.00584225 0.0121812 0)
(-0.00795315 0.0142646 0)
(-0.0103147 0.0162222 0)
(-0.0129021 0.0180362 0)
(-0.0156912 0.0196944 0)
(-0.0186593 0.0211891 0)
(-0.0217841 0.0225159 0)
(-0.0250441 0.0236736 0)
(-0.0284187 0.024663 0)
(-0.0318877 0.0254861 0)
(-0.0354317 0.0261464 0)
(-0.0390317 0.0266474 0)
(-0.0426694 0.0269932 0)
(-0.0463266 0.0271878 0)
(-0.0499859 0.0272347 0)
(-0.0536299 0.0271373 0)
(-0.0572415 0.0268986 0)
(-0.060804 0.026521 0)
(-0.0643007 0.0260067 0)
(-0.0677153 0.0253574 0)
(-0.0710314 0.0245747 0)
(-0.0742329 0.0236601 0)
(-0.0773039 0.0226151 0)
(-0.0802287 0.0214415 0)
(-0.0829916 0.0201414 0)
(-0.0855776 0.0187174 0)
(-0.0879717 0.0171726 0)
(-0.0901595 0.0155112 0)
(-0.0921272 0.013738 0)
(-0.0938614 0.011859 0)
(-0.0953499 0.00988142 0)
(-0.0965809 0.00781342 0)
(-0.0975437 0.00566459 0)
(-0.0982291 0.00344576 0)
(-0.0986287 0.00116906 0)
(-0.0987358 -0.00115209 0)
(-0.098545 -0.00350304 0)
(-0.0980529 -0.00586798 0)
(-0.0972577 -0.00822999 0)
(-0.0961595 -0.0105712 0)
(-0.0947606 -0.012873 0)
(-0.0930654 -0.0151161 0)
(-0.0910803 -0.0172807 0)
(-0.0888145 -0.019347 0)
(-0.0862791 -0.021295 0)
(-0.0834879 -0.0231052 0)
(-0.0804568 -0.0247585 0)
(-0.0772042 -0.026237 0)