/*--------------------------------*- C++ -*----------------------------------*\
  =========                 |
  \\      /  F ield         | OpenFOAM: The Open Source CFD Toolbox
   \\    /   O peration     | Website:  https://openfoam.org
    \\  /    A nd           | Version:  7
     \\/     M anipulation  |
\*---------------------------------------------------------------------------*/
FoamFile
{
    version     2.0;
    format      ascii;
    class       surfaceScalarField;
    location    "0.95";
    object      phi;
}
// * * * * * * * * * * * * * * * * * * * * * * * * * * * * * * * * * * * * * //

dimensions      [0 3 -1 0 0 0 0];

internalField   nonuniform List<scalar> 
12640
(
2.71634e-10
-2.71561e-10
6.16049e-10
-3.44384e-10
7.58381e-10
-1.42349e-10
5.94683e-10
1.63684e-10
1.06845e-10
4.87799e-10
-6.82894e-10
7.8976e-10
-1.73579e-09
1.05291e-09
-3.00764e-09
1.27186e-09
-4.45612e-09
1.44848e-09
-6.04404e-09
1.5879e-09
-7.74059e-09
1.69655e-09
-9.52163e-09
1.78103e-09
-1.13692e-08
1.84757e-09
-1.32707e-08
1.90155e-09
-1.52181e-08
1.94735e-09
-1.72064e-08
1.98832e-09
-1.92332e-08
2.02681e-09
-2.12974e-08
2.06422e-09
-2.33985e-08
2.10107e-09
-2.55356e-08
2.13715e-09
-2.77072e-08
2.17158e-09
-2.99101e-08
2.20294e-09
-3.21395e-08
2.22933e-09
-3.4388e-08
2.24849e-09
-3.66458e-08
2.25786e-09
-3.89005e-08
2.25466e-09
-4.11364e-08
2.23597e-09
-4.33353e-08
2.19881e-09
-4.54754e-08
2.1402e-09
-4.75327e-08
2.05727e-09
-4.94801e-08
1.94737e-09
-5.12883e-08
1.80814e-09
-5.29259e-08
1.63762e-09
-5.43603e-08
1.43441e-09
-5.5558e-08
1.19771e-09
-5.64855e-08
9.27489e-10
-5.71101e-08
6.24546e-10
-5.74007e-08
2.9062e-10
-5.73291e-08
-7.15462e-11
-5.68709e-08
-4.5821e-10
-5.60064e-08
-8.64503e-10
-5.47218e-08
-1.28458e-09
-5.30102e-08
-1.71164e-09
-5.08721e-08
-2.13805e-09
-4.83166e-08
-2.5555e-09
-4.53614e-08
-2.95523e-09
-4.20332e-08
-3.32826e-09
-3.83675e-08
-3.66567e-09
-3.44085e-08
-3.95893e-09
-3.02084e-08
-4.20018e-09
-2.58258e-08
-4.38254e-09
-2.13254e-08
-4.50043e-09
-1.67756e-08
-4.5498e-09
-1.22473e-08
-4.52832e-09
-7.81173e-09
-4.43552e-09
-3.5389e-09
-4.27287e-09
5.04771e-10
-4.04366e-09
4.25791e-09
-3.75315e-09
7.66568e-09
-3.40777e-09
1.06814e-08
-3.01569e-09
1.32673e-08
-2.58592e-09
1.53954e-08
-2.12815e-09
1.70478e-08
-1.65236e-09
1.82163e-08
-1.16854e-09
1.89027e-08
-6.86362e-10
1.91177e-08
-2.14974e-10
1.88806e-08
2.37129e-10
1.82185e-08
6.62096e-10
1.71659e-08
1.05256e-09
1.57646e-08
1.40133e-09
1.40638e-08
1.70081e-09
1.21215e-08
1.94233e-09
1.00064e-08
2.11507e-09
7.80163e-09
2.20478e-09
5.6093e-09
2.19233e-09
3.55666e-09
2.05266e-09
1.80064e-09
1.75602e-09
5.2819e-10
1.27246e-09
-6.96233e-11
5.97819e-10
-6.96238e-11
3.47585e-10
-6.1912e-10
5.77771e-10
-5.74629e-10
2.86434e-10
1.49045e-10
-7.10264e-10
1.16038e-09
-2.46654e-09
2.24407e-09
-4.95429e-09
3.27745e-09
-8.10077e-09
4.19939e-09
-1.18154e-08
4.9865e-09
-1.60049e-08
5.63791e-09
-2.05822e-08
6.16527e-09
-2.54721e-08
6.58638e-09
-3.06122e-08
6.92118e-09
-3.59539e-08
7.18922e-09
-4.14603e-08
7.40803e-09
-4.71053e-08
7.59232e-09
-5.28706e-08
7.7536e-09
-5.87438e-08
7.90007e-09
-6.47163e-08
8.03673e-09
-7.07809e-08
8.16565e-09
-7.693e-08
8.28626e-09
-8.31541e-08
8.39564e-09
-8.944e-08
8.48889e-09
-9.57702e-08
8.55946e-09
-1.02121e-07
8.59944e-09
-1.08463e-07
8.59985e-09
-1.14759e-07
8.55093e-09
-1.20966e-07
8.44248e-09
-1.27031e-07
8.2641e-09
-1.32897e-07
8.00551e-09
-1.38496e-07
7.65692e-09
-1.43758e-07
7.20938e-09
-1.48605e-07
6.65513e-09
-1.52956e-07
5.98799e-09
-1.56725e-07
5.20376e-09
-1.59828e-07
4.30055e-09
-1.6218e-07
3.27921e-09
-1.63699e-07
2.14362e-09
-1.64309e-07
9.00895e-10
-1.63942e-07
-4.38218e-10
-1.62541e-07
-1.85987e-09
-1.60059e-07
-3.34606e-09
-1.56468e-07
-4.87573e-09
-1.51755e-07
-6.42468e-09
-1.45927e-07
-7.96604e-09
-1.39011e-07
-9.47082e-09
-1.31058e-07
-1.09086e-08
-1.22138e-07
-1.22486e-08
-1.12343e-07
-1.34602e-08
-1.01788e-07
-1.45143e-08
-9.06039e-08
-1.5384e-08
-7.89403e-08
-1.60461e-08
-6.69592e-08
-1.64815e-08
-5.48328e-08
-1.66762e-08
-4.27392e-08
-1.6622e-08
-3.08578e-08
-1.63169e-08
-1.93652e-08
-1.57654e-08
-8.43076e-09
-1.49781e-08
1.78798e-09
-1.39719e-08
1.1149e-08
-1.27688e-08
1.95289e-08
-1.13956e-08
2.68257e-08
-9.88277e-09
3.29611e-08
-8.26351e-09
3.78811e-08
-6.57236e-09
4.15569e-08
-4.84433e-09
4.39844e-08
-3.11392e-09
4.51838e-08
-1.41439e-09
4.51984e-08
2.22612e-10
4.40933e-08
1.76717e-09
4.19553e-08
3.19059e-09
3.88921e-08
4.46453e-09
3.50333e-08
5.55954e-09
3.05327e-08
6.44302e-09
2.55709e-08
7.07683e-09
2.03611e-08
7.41461e-09
1.51536e-08
7.3998e-09
1.024e-08
6.9663e-09
5.9495e-09
6.04654e-09
2.63017e-09
4.59179e-09
5.95914e-10
2.63208e-09
5.26284e-10
1.51521e-10
-7.70657e-10
-1.57687e-10
-2.65465e-10
-1.32018e-09
1.3115e-09
-3.52561e-09
3.36585e-09
-6.82541e-09
5.54388e-09
-1.11805e-08
7.63255e-09
-1.64975e-08
9.51639e-09
-2.26571e-08
1.11461e-08
-2.95332e-08
1.2514e-08
-3.70057e-08
1.36378e-08
-4.49674e-08
1.45481e-08
-5.33277e-08
1.52815e-08
-6.20131e-08
1.58746e-08
-7.09664e-08
1.63613e-08
-8.01443e-08
1.67703e-08
-8.9515e-08
1.71243e-08
-9.90547e-08
1.74398e-08
-1.08745e-07
1.77269e-08
-1.18569e-07
1.79899e-08
-1.2851e-07
1.82276e-08
-1.38549e-07
1.84342e-08
-1.4866e-07
1.85998e-08
-1.58811e-07
1.8711e-08
-1.68963e-07
1.87514e-08
-1.79066e-07
1.87029e-08
-1.89061e-07
1.85453e-08
-1.98876e-07
1.82579e-08
-2.08432e-07
1.78195e-08
-2.17635e-07
1.72093e-08
-2.26386e-07
1.64078e-08
-2.34574e-07
1.53973e-08
-2.42082e-07
1.41627e-08
-2.48786e-07
1.26923e-08
-2.54561e-07
1.09788e-08
-2.5928e-07
9.01979e-09
-2.6282e-07
6.81833e-09
-2.6506e-07
4.38392e-09
-2.65892e-07
1.73271e-09
-2.65218e-07
-1.11212e-09
-2.62957e-07
-4.12058e-09
-2.59048e-07
-7.25513e-09
-2.53452e-07
-1.0472e-08
-2.46155e-07
-1.37212e-08
-2.37174e-07
-1.69478e-08
-2.26551e-07
-2.00929e-08
-2.14365e-07
-2.30952e-08
-2.00721e-07
-2.58923e-08
-1.85758e-07
-2.84231e-08
-1.69643e-07
-3.0629e-08
-1.52571e-07
-3.24565e-08
-1.34759e-07
-3.38586e-08
-1.16443e-07
-3.47969e-08
-9.78761e-08
-3.52432e-08
-7.93178e-08
-3.51802e-08
-6.10316e-08
-3.46032e-08
-4.32774e-08
-3.35196e-08
-2.63057e-08
-3.19498e-08
-1.03518e-08
-2.99258e-08
4.37016e-09
-2.74907e-08
1.76719e-08
-2.46973e-08
2.9395e-08
-2.16059e-08
3.94142e-08
-1.82827e-08
4.76396e-08
-1.47978e-08
5.40178e-08
-1.12225e-08
5.8532e-08
-7.62819e-09
6.12024e-08
-4.08468e-09
6.20841e-08
-6.59166e-10
6.12674e-08
2.58388e-09
5.8876e-08
5.58207e-09
5.50668e-08
8.27368e-09
5.00311e-08
1.05953e-08
4.39956e-08
1.24786e-08
3.72254e-08
1.3847e-08
3.00278e-08
1.46123e-08
2.27545e-08
1.46731e-08
1.58021e-08
1.39187e-08
9.6049e-09
1.22437e-08
4.61638e-09
9.58033e-09
1.27684e-09
5.97161e-09
1.80313e-09
-1.77559e-10
-5.93053e-10
-1.2696e-09
8.26529e-10
-3.58915e-09
3.63103e-09
-7.27435e-09
7.05102e-09
-1.23439e-08
1.06135e-08
-1.8733e-08
1.40217e-08
-2.63248e-08
1.71081e-08
-3.4976e-08
1.97973e-08
-4.45367e-08
2.20748e-08
-5.4863e-08
2.3964e-08
-6.58248e-08
2.551e-08
-7.73108e-08
2.67674e-08
-8.92287e-08
2.77925e-08
-1.01505e-07
2.86376e-08
-1.14082e-07
2.93475e-08
-1.26916e-07
2.99583e-08
-1.39973e-07
3.0496e-08
-1.53222e-07
3.09767e-08
-1.6664e-07
3.1407e-08
-1.80197e-07
3.17851e-08
-1.93864e-07
3.21013e-08
-2.07603e-07
3.23391e-08
-2.21369e-07
3.24765e-08
-2.35104e-07
3.24868e-08
-2.48741e-07
3.23397e-08
-2.62199e-07
3.20026e-08
-2.75382e-07
3.14413e-08
-2.88184e-07
3.06213e-08
-3.00484e-07
2.9509e-08
-3.12149e-07
2.8073e-08
-3.23037e-07
2.62851e-08
-3.32995e-07
2.41217e-08
-3.41868e-07
2.15652e-08
-3.49495e-07
1.86051e-08
-3.55714e-07
1.52394e-08
-3.60371e-07
1.1475e-08
-3.63317e-07
7.32958e-09
-3.64415e-07
2.83146e-09
-3.63548e-07
-1.97972e-09
-3.60615e-07
-7.05304e-09
-3.55544e-07
-1.23261e-08
-3.4829e-07
-1.77263e-08
-3.38839e-07
-2.31718e-08
-3.27214e-07
-2.85728e-08
-3.13474e-07
-3.38334e-08
-2.97715e-07
-3.88542e-08
-2.80072e-07
-4.35346e-08
-2.6072e-07
-4.77758e-08
-2.39865e-07
-5.14834e-08
-2.17751e-07
-5.45708e-08
-1.94647e-07
-5.69623e-08
-1.70849e-07
-5.8595e-08
-1.4667e-07
-5.94224e-08
-1.22435e-07
-5.94153e-08
-9.84744e-08
-5.85639e-08
-7.51155e-08
-5.68785e-08
-5.26764e-08
-5.43889e-08
-3.14576e-08
-5.11446e-08
-1.17355e-08
-4.72128e-08
6.24373e-09
-4.26765e-08
2.22696e-08
-3.76318e-08
3.61718e-08
-3.2185e-08
4.78233e-08
-2.64492e-08
5.71425e-08
-2.05416e-08
6.40945e-08
-1.45801e-08
6.8691e-08
-8.68117e-09
7.099e-08
-2.9582e-09
7.1095e-08
2.47892e-09
6.91537e-08
7.52338e-09
6.53578e-08
1.20696e-08
5.99428e-08
1.60102e-08
5.31889e-08
1.92325e-08
4.54223e-08
2.16136e-08
3.7017e-08
2.30176e-08
2.83957e-08
2.32944e-08
2.00289e-08
2.22855e-08
1.24309e-08
1.98418e-08
6.15284e-09
1.58584e-08
1.78247e-09
1.0342e-08
3.58561e-09
-5.62419e-10
-3.0641e-11
-2.58411e-09
2.84826e-09
-6.24738e-09
7.29427e-09
-1.1606e-08
1.24097e-08
-1.86209e-08
1.76284e-08
-2.71862e-08
2.25869e-08
-3.71541e-08
2.7076e-08
-4.83568e-08
3.10001e-08
-6.06232e-08
3.43411e-08
-7.37903e-08
3.71311e-08
-8.77113e-08
3.9431e-08
-1.02259e-07
4.13155e-08
-1.17329e-07
4.28619e-08
-1.32833e-07
4.41423e-08
-1.48705e-07
4.52194e-08
-1.6489e-07
4.61433e-08
-1.81344e-07
4.69502e-08
-1.9803e-07
4.76627e-08
-2.14913e-07
4.82896e-08
-2.31956e-07
4.88278e-08
-2.49117e-07
4.92627e-08
-2.66348e-07
4.95702e-08
-2.8359e-07
4.97179e-08
-3.0077e-07
4.96667e-08
-3.17802e-07
4.93724e-08
-3.34587e-07
4.87874e-08
-3.51008e-07
4.7862e-08
-3.66933e-07
4.65463e-08
-3.82216e-07
4.47919e-08
-3.96697e-07
4.25539e-08
-4.10204e-07
3.97923e-08
-4.22557e-07
3.64744e-08
-4.33567e-07
3.25761e-08
-4.43047e-07
2.80843e-08
-4.50805e-07
2.2998e-08
-4.5666e-07
1.73297e-08
-4.60438e-07
1.11072e-08
-4.6198e-07
4.37371e-09
-4.61148e-07
-2.81124e-09
-4.57829e-07
-1.03723e-08
-4.51937e-07
-1.82178e-08
-4.43422e-07
-2.62419e-08
-4.32268e-07
-3.43256e-08
-4.18501e-07
-4.23393e-08
-4.0219e-07
-5.01449e-08
-3.83445e-07
-5.75993e-08
-3.62421e-07
-6.45581e-08
-3.39318e-07
-7.08792e-08
-3.14374e-07
-7.64272e-08
-2.87868e-07
-8.10772e-08
-2.60111e-07
-8.47193e-08
-2.31444e-07
-8.72622e-08
-2.02229e-07
-8.86365e-08
-1.72847e-07
-8.87978e-08
-1.43682e-07
-8.77285e-08
-1.15121e-07
-8.54395e-08
-8.75404e-08
-8.19698e-08
-6.12989e-08
-7.73862e-08
-3.67304e-08
-7.17813e-08
-1.41358e-08
-6.52711e-08
6.22377e-09
-5.79914e-08
2.41324e-08
-5.00936e-08
3.94236e-08
-4.17405e-08
5.19839e-08
-3.31019e-08
6.17544e-08
-2.43506e-08
6.87318e-08
-1.56586e-08
7.29686e-08
-7.19499e-09
7.4572e-08
8.75565e-10
7.3703e-08
8.39232e-09
7.05758e-08
1.51968e-08
6.54566e-08
2.11294e-08
5.86637e-08
2.60255e-08
5.05674e-08
2.97099e-08
4.15909e-08
3.19941e-08
3.22103e-08
3.2675e-08
2.29553e-08
3.15405e-08
1.44107e-08
2.83864e-08
7.22264e-09
2.30464e-08
2.12053e-09
1.54441e-08
5.70616e-09
-9.69209e-10
9.3856e-10
-4.00266e-09
5.88171e-09
-9.12752e-09
1.24192e-08
-1.62923e-08
1.95744e-08
-2.53816e-08
2.67176e-08
-3.62351e-08
3.34405e-08
-4.86664e-08
3.95073e-08
-6.2479e-08
4.48127e-08
-7.74802e-08
4.93423e-08
-9.34903e-08
5.31412e-08
-1.10349e-07
5.62895e-08
-1.27918e-07
5.88843e-08
-1.46081e-07
6.10254e-08
-1.64745e-07
6.28063e-08
-1.83834e-07
6.43081e-08
-2.03286e-07
6.55956e-08
-2.23052e-07
6.67156e-08
-2.43086e-07
6.76968e-08
-2.63346e-07
6.85502e-08
-2.83789e-07
6.92704e-08
-3.04363e-07
6.98369e-08
-3.2501e-07
7.02166e-08
-3.45657e-07
7.03651e-08
-3.66219e-07
7.02293e-08
-3.86596e-07
6.9749e-08
-4.06668e-07
6.88596e-08
-4.263e-07
6.7494e-08
-4.45339e-07
6.55848e-08
-4.63614e-07
6.30673e-08
-4.80942e-07
5.98815e-08
-4.97124e-07
5.59746e-08
-5.11954e-07
5.13039e-08
-5.25216e-07
4.58387e-08
-5.36695e-07
3.95632e-08
-5.46175e-07
3.24781e-08
-5.53448e-07
2.46028e-08
-5.58317e-07
1.59764e-08
-5.60603e-07
6.65945e-09
-5.60148e-07
-3.26649e-09
-5.56821e-07
-1.36988e-08
-5.50526e-07
-2.45134e-08
-5.412e-07
-3.55677e-08
-5.28823e-07
-4.67021e-08
-5.1342e-07
-5.77425e-08
-4.95061e-07
-6.85045e-08
-4.73863e-07
-7.8797e-08
-4.49994e-07
-8.84269e-08
-4.23669e-07
-9.72039e-08
-3.9515e-07
-1.04946e-07
-3.64742e-07
-1.11486e-07
-3.32788e-07
-1.16673e-07
-2.99666e-07
-1.20384e-07
-2.65782e-07
-1.2252e-07
-2.31561e-07
-1.23019e-07
-1.97438e-07
-1.21851e-07
-1.63853e-07
-1.19024e-07
-1.31239e-07
-1.14585e-07
-1.00009e-07
-1.08615e-07
-7.0556e-08
-1.01235e-07
-4.32341e-08
-9.25931e-08
-1.83573e-08
-8.28682e-08
3.80998e-09
-7.22608e-08
2.30581e-08
-6.09886e-08
3.92365e-08
-4.92804e-08
5.2257e-08
-3.7371e-08
6.20947e-08
-2.54963e-08
6.87891e-08
-1.38894e-08
7.24433e-08
-2.77867e-09
7.32231e-08
7.61254e-09
7.13554e-08
1.70645e-08
6.7127e-08
2.53578e-08
6.08834e-08
3.2269e-08
5.30283e-08
3.7565e-08
4.40232e-08
4.09992e-08
3.43884e-08
4.23098e-08
2.47057e-08
4.12232e-08
1.56252e-08
3.74669e-08
7.8808e-09
3.07909e-08
2.32247e-09
2.10024e-08
8.02862e-09
-1.38761e-09
2.32614e-09
-5.47341e-09
9.96752e-09
-1.21301e-08
1.90759e-08
-2.11871e-08
2.86315e-08
-3.24405e-08
3.7971e-08
-4.56651e-08
4.66651e-08
-6.06279e-08
5.44701e-08
-7.70996e-08
6.12845e-08
-9.48642e-08
6.71069e-08
-1.13726e-07
7.20025e-08
-1.33511e-07
7.60753e-08
-1.54075e-07
7.94479e-08
-1.75294e-07
8.22448e-08
-1.9707e-07
8.45822e-08
-2.19323e-07
8.65605e-08
-2.41987e-07
8.82596e-08
-2.65008e-07
8.97369e-08
-2.88338e-07
9.1027e-08
-3.1193e-07
9.21422e-08
-3.35734e-07
9.30739e-08
-3.59692e-07
9.37949e-08
-3.83737e-07
9.42614e-08
-4.07787e-07
9.44154e-08
-4.31746e-07
9.41879e-08
-4.55498e-07
9.3501e-08
-4.78909e-07
9.22708e-08
-5.01826e-07
9.04109e-08
-5.24076e-07
8.78349e-08
-5.45468e-07
8.44595e-08
-5.65795e-07
8.02084e-08
-5.84835e-07
7.50147e-08
-6.02356e-07
6.88246e-08
-6.18117e-07
6.16003e-08
-6.31877e-07
5.33231e-08
-6.43395e-07
4.39955e-08
-6.52436e-07
3.36441e-08
-6.5878e-07
2.23207e-08
-6.62224e-07
1.01036e-08
-6.62589e-07
-2.90141e-09
-6.59725e-07
-1.65632e-08
-6.53516e-07
-3.07227e-08
-6.43886e-07
-4.51979e-08
-6.30802e-07
-5.97857e-08
-6.1428e-07
-7.42648e-08
-5.94384e-07
-8.84003e-08
-5.71232e-07
-1.01949e-07
-5.44994e-07
-1.14664e-07
-5.15895e-07
-1.26303e-07
-4.84209e-07
-1.36632e-07
-4.50261e-07
-1.45434e-07
-4.1442e-07
-1.52514e-07
-3.77095e-07
-1.57708e-07
-3.3873e-07
-1.60886e-07
-2.99792e-07
-1.61958e-07
-2.60764e-07
-1.60878e-07
-2.2214e-07
-1.57649e-07
-1.84406e-07
-1.52319e-07
-1.48036e-07
-1.44985e-07
-1.13481e-07
-1.3579e-07
-8.11538e-08
-1.2492e-07
-5.14261e-08
-1.12596e-07
-2.46159e-08
-9.9071e-08
-9.81817e-10
-8.46226e-08
1.92828e-08
-6.95449e-08
3.60533e-08
-5.41416e-08
4.9277e-08
-3.872e-08
5.89736e-08
-2.3586e-08
6.52353e-08
-9.04039e-09
6.82254e-08
4.62244e-09
6.81766e-08
1.71133e-08
6.53891e-08
2.81454e-08
6.02286e-08
3.74295e-08
5.31252e-08
4.46683e-08
4.45732e-08
4.95513e-08
3.51322e-08
5.17508e-08
2.54322e-08
5.09233e-08
1.61836e-08
4.67154e-08
8.19726e-09
3.87772e-08
2.41863e-09
2.67811e-08
1.04472e-08
-1.8083e-09
4.13445e-09
-6.96792e-09
1.51271e-08
-1.51964e-08
2.73043e-08
-2.61987e-08
3.96338e-08
-3.96745e-08
5.14468e-08
-5.53266e-08
6.23172e-08
-7.28695e-08
7.20131e-08
-9.20371e-08
8.0452e-08
-1.12588e-07
8.76577e-08
-1.34309e-07
9.37237e-08
-1.57018e-07
9.87841e-08
-1.80561e-07
1.02991e-07
-2.04813e-07
1.06496e-07
-2.29672e-07
1.09441e-07
-2.55058e-07
1.11946e-07
-2.80904e-07
1.14106e-07
-3.07157e-07
1.1599e-07
-3.33767e-07
1.17637e-07
-3.60684e-07
1.19059e-07
-3.87856e-07
1.20246e-07
-4.15221e-07
1.2116e-07
-4.42706e-07
1.21747e-07
-4.70223e-07
1.21932e-07
-4.97664e-07
1.21629e-07
-5.24903e-07
1.2074e-07
-5.51793e-07
1.1916e-07
-5.78163e-07
1.16782e-07
-6.03824e-07
1.13496e-07
-6.28565e-07
1.09201e-07
-6.52157e-07
1.038e-07
-6.74355e-07
9.72125e-08
-6.94902e-07
8.93714e-08
-7.13532e-07
8.02308e-08
-7.29977e-07
6.9768e-08
-7.43969e-07
5.79873e-08
-7.55247e-07
4.49217e-08
-7.63562e-07
3.06357e-08
-7.68684e-07
1.52261e-08
-7.70409e-07
-1.17628e-09
-7.6856e-07
-1.84121e-08
-7.62999e-07
-3.62845e-08
-7.53625e-07
-5.45712e-08
-7.40388e-07
-7.30231e-08
-7.23284e-07
-9.13686e-08
-7.02365e-07
-1.09319e-07
-6.77738e-07
-1.26576e-07
-6.4957e-07
-1.42833e-07
-6.18083e-07
-1.5779e-07
-5.83559e-07
-1.71156e-07
-5.46337e-07
-1.82656e-07
-5.06805e-07
-1.92046e-07
-4.654e-07
-1.99113e-07
-4.22599e-07
-2.03687e-07
-3.78912e-07
-2.05645e-07
-3.34872e-07
-2.04918e-07
-2.91025e-07
-2.01496e-07
-2.47917e-07
-1.95426e-07
-2.06087e-07
-1.86815e-07
-1.66049e-07
-1.75829e-07
-1.28283e-07
-1.62686e-07
-9.32244e-08
-1.47654e-07
-6.12536e-08
-1.31042e-07
-3.26859e-08
-1.1319e-07
-7.76593e-09
-9.44649e-08
1.33384e-08
-7.5246e-08
3.0539e-08
-5.59206e-08
4.3829e-08
-3.68761e-08
5.32833e-08
-1.84946e-08
5.90568e-08
-1.15102e-09
6.13825e-08
1.47875e-08
6.05692e-08
2.89587e-08
5.69987e-08
4.10001e-08
5.11239e-08
5.05432e-08
4.34688e-08
5.72064e-08
3.46301e-08
6.05895e-08
2.52832e-08
6.02702e-08
1.61938e-08
5.58048e-08
8.23811e-09
4.67329e-08
2.43443e-09
3.25848e-08
1.28817e-08
-2.22847e-09
6.36293e-09
-8.47105e-09
2.13697e-08
-1.82918e-08
3.71251e-08
-3.12689e-08
5.26109e-08
-4.70014e-08
6.71793e-08
-6.51153e-08
8.04311e-08
-8.52688e-08
9.21666e-08
-1.07156e-07
1.02339e-07
-1.30508e-07
1.1101e-07
-1.55095e-07
1.18311e-07
-1.80725e-07
1.24414e-07
-2.0724e-07
1.29506e-07
-2.34513e-07
1.33769e-07
-2.62443e-07
1.37372e-07
-2.90953e-07
1.40456e-07
-3.19978e-07
1.43132e-07
-3.49468e-07
1.45479e-07
-3.79374e-07
1.47543e-07
-4.0965e-07
1.49335e-07
-4.40243e-07
1.50838e-07
-4.7109e-07
1.52007e-07
-5.02115e-07
1.52771e-07
-5.33224e-07
1.53041e-07
-5.64303e-07
1.52709e-07
-5.95217e-07
1.51654e-07
-6.25807e-07
1.4975e-07
-6.55888e-07
1.46863e-07
-6.85253e-07
1.42862e-07
-7.13674e-07
1.37621e-07
-7.40899e-07
1.31026e-07
-7.66662e-07
1.22975e-07
-7.90679e-07
1.13388e-07
-8.12658e-07
1.0221e-07
-8.32301e-07
8.94117e-08
-8.49312e-07
7.49981e-08
-8.63398e-07
5.90078e-08
-8.74279e-07
4.1517e-08
-8.81694e-07
2.26402e-08
-8.85403e-07
2.53271e-09
-8.85198e-07
-1.86163e-08
-8.80909e-07
-4.05734e-08
-8.72406e-07
-6.30743e-08
-8.59608e-07
-8.58217e-08
-8.42484e-07
-1.08492e-07
-8.21065e-07
-1.30739e-07
-7.95437e-07
-1.52203e-07
-7.65753e-07
-1.72517e-07
-7.32229e-07
-1.91315e-07
-6.95145e-07
-2.08239e-07
-6.54846e-07
-2.22956e-07
-6.11736e-07
-2.35156e-07
-5.66276e-07
-2.44573e-07
-5.18976e-07
-2.50986e-07
-4.70389e-07
-2.54232e-07
-4.21097e-07
-2.5421e-07
-3.71706e-07
-2.50887e-07
-3.22828e-07
-2.44304e-07
-2.7507e-07
-2.34573e-07
-2.29022e-07
-2.21877e-07
-1.85239e-07
-2.06469e-07
-1.44231e-07
-1.88662e-07
-1.06451e-07
-1.68822e-07
-7.2281e-08
-1.4736e-07
-4.2027e-08
-1.24719e-07
-1.59098e-08
-1.01363e-07
5.93855e-09
-7.77689e-08
2.34773e-08
-5.44149e-08
3.67575e-08
-3.17748e-08
4.59202e-08
-1.03138e-08
5.11948e-08
9.51295e-09
5.2895e-08
2.72585e-08
5.14161e-08
4.2479e-08
4.72325e-08
5.47267e-08
4.0897e-08
6.35419e-08
3.30425e-08
6.8444e-08
2.43877e-08
6.8925e-08
1.5749e-08
6.44435e-08
8.05827e-09
5.44237e-08
2.38927e-09
3.82538e-08
1.5271e-08
-2.64727e-09
9.0102e-09
-9.97479e-09
2.86972e-08
-2.13953e-08
4.85455e-08
-3.63597e-08
6.75753e-08
-5.43647e-08
8.51842e-08
-7.49568e-08
1.01023e-07
-9.77354e-08
1.14945e-07
-1.22353e-07
1.26956e-07
-1.48513e-07
1.3717e-07
-1.75969e-07
1.45767e-07
-2.0452e-07
1.52965e-07
-2.34004e-07
1.5899e-07
-2.64296e-07
1.64061e-07
-2.953e-07
1.68376e-07
-3.26942e-07
1.72098e-07
-3.59166e-07
1.75356e-07
-3.91926e-07
1.78239e-07
-4.2518e-07
1.80797e-07
-4.58886e-07
1.83042e-07
-4.92995e-07
1.84948e-07
-5.27447e-07
1.86458e-07
-5.62164e-07
1.87489e-07
-5.97051e-07
1.87928e-07
-6.3199e-07
1.87647e-07
-6.66837e-07
1.86501e-07
-7.01423e-07
1.84336e-07
-7.35551e-07
1.80991e-07
-7.68999e-07
1.7631e-07
-8.01518e-07
1.7014e-07
-8.32837e-07
1.62344e-07
-8.62663e-07
1.52801e-07
-8.90687e-07
1.41412e-07
-9.16588e-07
1.28111e-07
-9.40037e-07
1.12861e-07
-9.60702e-07
9.56634e-08
-9.78256e-07
7.65621e-08
-9.92382e-07
5.56428e-08
-1.00278e-06
3.30365e-08
-1.00917e-06
8.92076e-09
-1.0113e-06
-1.64835e-08
-1.00896e-06
-4.29089e-08
-1.00199e-06
-7.00473e-08
-9.9026e-07
-9.75525e-08
-9.73706e-07
-1.25045e-07
-9.52325e-07
-1.5212e-07
-9.26176e-07
-1.78352e-07
-8.95388e-07
-2.03306e-07
-8.60159e-07
-2.26543e-07
-8.20764e-07
-2.47635e-07
-7.77546e-07
-2.66174e-07
-7.3092e-07
-2.81782e-07
-6.81368e-07
-2.94125e-07
-6.29432e-07
-3.02923e-07
-5.75706e-07
-3.07958e-07
-5.20828e-07
-3.09088e-07
-4.65467e-07
-3.06249e-07
-4.10306e-07
-2.99464e-07
-3.56034e-07
-2.88845e-07
-3.03323e-07
-2.74588e-07
-2.52817e-07
-2.56975e-07
-2.05113e-07
-2.36366e-07
-1.60749e-07
-2.13186e-07
-1.20188e-07
-1.87921e-07
-8.38088e-08
-1.61098e-07
-5.18972e-08
-1.33275e-07
-2.46392e-08
-1.05027e-07
-2.11834e-09
-7.69357e-08
1.56853e-08
-4.95784e-08
2.88936e-08
-2.35222e-08
3.77279e-08
6.78701e-10
4.25044e-08
2.2482e-08
4.36307e-08
4.13526e-08
4.16024e-08
5.6755e-08
3.70013e-08
6.8143e-08
3.04965e-08
7.49488e-08
2.28495e-08
7.6572e-08
1.49239e-08
7.23692e-08
7.70052e-09
6.16471e-08
2.29744e-09
4.36568e-08
1.75684e-08
-3.06429e-09
1.20745e-08
-1.14743e-08
3.71072e-08
-2.44932e-08
6.15644e-08
-4.14451e-08
8.45273e-08
-6.17238e-08
1.05463e-07
-8.47958e-08
1.24095e-07
-1.10201e-07
1.4035e-07
-1.37549e-07
1.54304e-07
-1.66516e-07
1.66137e-07
-1.96839e-07
1.76091e-07
-2.28309e-07
1.84435e-07
-2.60765e-07
1.91446e-07
-2.94084e-07
1.9738e-07
-3.28176e-07
2.02468e-07
-3.62977e-07
2.06899e-07
-3.9844e-07
2.10819e-07
-4.3453e-07
2.14328e-07
-4.71213e-07
2.1748e-07
-5.08456e-07
2.20284e-07
-5.46216e-07
2.22708e-07
-5.84439e-07
2.24681e-07
-6.2305e-07
2.261e-07
-6.61955e-07
2.26833e-07
-7.01032e-07
2.26724e-07
-7.40132e-07
2.25601e-07
-7.79076e-07
2.2328e-07
-8.17658e-07
2.19572e-07
-8.55636e-07
2.14289e-07
-8.92746e-07
2.0725e-07
-9.28691e-07
1.9829e-07
-9.63155e-07
1.87265e-07
-9.958e-07
1.74057e-07
-1.02627e-06
1.58581e-07
-1.0542e-06
1.40793e-07
-1.07923e-06
1.20688e-07
-1.10097e-06
9.83102e-08
-1.11909e-06
7.37532e-08
-1.13321e-06
4.71624e-08
-1.14303e-06
1.87363e-08
-1.14824e-06
-1.1274e-08
-1.14858e-06
-4.25687e-08
-1.14383e-06
-7.47945e-08
-1.13383e-06
-1.07555e-07
-1.11846e-06
-1.40415e-07
-1.09767e-06
-1.72904e-07
-1.0715e-06
-2.04528e-07
-1.04003e-06
-2.34778e-07
-1.00343e-06
-2.63137e-07
-9.6197e-07
-2.89095e-07
-9.15982e-07
-3.12163e-07
-8.65884e-07
-3.3188e-07
-8.12176e-07
-3.47833e-07
-7.55429e-07
-3.59669e-07
-6.96282e-07
-3.67106e-07
-6.35426e-07
-3.69943e-07
-5.73599e-07
-3.68076e-07
-5.11566e-07
-3.61498e-07
-4.50101e-07
-3.50309e-07
-3.89976e-07
-3.34713e-07
-3.31935e-07
-3.15017e-07
-2.76676e-07
-2.91624e-07
-2.24839e-07
-2.65023e-07
-1.76984e-07
-2.35777e-07
-1.33577e-07
-2.04505e-07
-9.4983e-08
-1.71869e-07
-6.14554e-08
-1.38555e-07
-3.31311e-08
-1.0526e-07
-1.00299e-08
-7.26796e-08
7.94423e-09
-4.14963e-08
2.1e-08
-1.23771e-08
2.9454e-08
1.40281e-08
3.3725e-08
3.70816e-08
3.43302e-08
5.61498e-08
3.18815e-08
7.05917e-08
2.70855e-08
7.97448e-08
2.07468e-08
8.29107e-08
1.37751e-08
7.93408e-08
7.19689e-09
6.82253e-08
2.16929e-09
4.86845e-08
1.97377e-08
-3.47912e-09
1.55536e-08
-1.29658e-08
4.65939e-08
-2.75749e-08
7.61735e-08
-4.6505e-08
1.03457e-07
-6.90473e-08
1.28005e-07
-9.45888e-08
1.49637e-07
-1.2261e-07
1.68371e-07
-1.52678e-07
1.84373e-07
-1.84444e-07
1.97903e-07
-2.17628e-07
2.09275e-07
-2.52017e-07
2.18824e-07
-2.87448e-07
2.26877e-07
-3.23808e-07
2.33739e-07
-3.61014e-07
2.39674e-07
-3.99016e-07
2.449e-07
-4.37778e-07
2.49581e-07
-4.77279e-07
2.53829e-07
-5.17499e-07
2.577e-07
-5.58416e-07
2.61202e-07
-5.99998e-07
2.6429e-07
-6.42198e-07
2.66881e-07
-6.84948e-07
2.6885e-07
-7.28154e-07
2.70039e-07
-7.71696e-07
2.70265e-07
-8.15419e-07
2.69324e-07
-8.59137e-07
2.66999e-07
-9.02631e-07
2.63066e-07
-9.45645e-07
2.57302e-07
-9.87892e-07
2.49496e-07
-1.02905e-06
2.39451e-07
-1.06878e-06
2.26995e-07
-1.10671e-06
2.11985e-07
-1.14245e-06
1.94318e-07
-1.17559e-06
1.73933e-07
-1.20572e-06
1.50819e-07
-1.23243e-06
1.25017e-07
-1.2553e-06
9.66238e-08
-1.27393e-06
6.57976e-08
-1.28795e-06
3.27551e-08
-1.297e-06
-2.22212e-09
-1.30076e-06
-3.88068e-08
-1.29896e-06
-7.65974e-08
-1.29137e-06
-1.15148e-07
-1.27782e-06
-1.53963e-07
-1.25821e-06
-1.92508e-07
-1.23253e-06
-2.30214e-07
-1.20082e-06
-2.66491e-07
-1.16322e-06
-3.00737e-07
-1.11996e-06
-3.32352e-07
-1.07137e-06
-3.60752e-07
-1.01786e-06
-3.85386e-07
-9.59948e-07
-4.05747e-07
-8.98224e-07
-4.21393e-07
-8.33369e-07
-4.31962e-07
-7.66131e-07
-4.37181e-07
-6.97319e-07
-4.36888e-07
-6.27783e-07
-4.31034e-07
-5.58398e-07
-4.19694e-07
-4.90042e-07
-4.03069e-07
-4.23575e-07
-3.81484e-07
-3.59815e-07
-3.55384e-07
-2.9952e-07
-3.25319e-07
-2.43364e-07
-2.91933e-07
-1.91921e-07
-2.55947e-07
-1.45653e-07
-2.18136e-07
-1.04895e-07
-1.79313e-07
-6.98519e-08
-1.40304e-07
-4.05936e-08
-1.01938e-07
-1.70586e-08
-6.50313e-08
9.43597e-10
-3.03793e-08
1.37264e-08
1.24526e-09
2.17192e-08
2.90887e-08
2.54612e-08
5.24078e-08
2.55962e-08
7.04567e-08
2.28706e-08
8.24704e-08
1.81338e-08
8.76475e-08
1.2343e-08
8.51316e-08
6.57045e-09
7.39979e-08
2.01222e-09
5.32427e-08
2.17499e-08
-3.89111e-09
1.94447e-08
-1.44457e-08
5.71486e-08
-3.06312e-08
9.2359e-08
-5.15219e-08
1.24348e-07
-7.63081e-08
1.52791e-07
-1.04298e-07
1.77627e-07
-1.34915e-07
1.98987e-07
-1.67685e-07
2.17144e-07
-2.02234e-07
2.32452e-07
-2.3827e-07
2.45311e-07
-2.75573e-07
2.56127e-07
-3.13988e-07
2.65292e-07
-3.53407e-07
2.73158e-07
-3.93762e-07
2.8003e-07
-4.35017e-07
2.86155e-07
-4.77155e-07
2.91719e-07
-5.20169e-07
2.96843e-07
-5.64056e-07
3.01588e-07
-6.0881e-07
3.05956e-07
-6.54412e-07
3.09892e-07
-7.00825e-07
3.13294e-07
-7.4799e-07
3.16014e-07
-7.95817e-07
3.17866e-07
-8.44186e-07
3.18634e-07
-8.92939e-07
3.18078e-07
-9.41883e-07
3.15943e-07
-9.90785e-07
3.11967e-07
-1.03937e-06
3.0589e-07
-1.08734e-06
2.9746e-07
-1.13433e-06
2.86447e-07
-1.17998e-06
2.72645e-07
-1.22388e-06
2.55884e-07
-1.2656e-06
2.36035e-07
-1.30469e-06
2.13021e-07
-1.34068e-06
1.86815e-07
-1.37312e-06
1.57453e-07
-1.40153e-06
1.25033e-07
-1.42545e-06
8.97225e-08
-1.44445e-06
5.17539e-08
-1.45811e-06
1.14328e-08
-1.46604e-06
-3.0875e-08
-1.4679e-06
-7.47345e-08
-1.46341e-06
-1.19642e-07
-1.45233e-06
-1.65043e-07
-1.4345e-06
-2.10333e-07
-1.40985e-06
-2.54866e-07
-1.37837e-06
-2.97967e-07
-1.34017e-06
-3.3894e-07
-1.29544e-06
-3.77086e-07
-1.24447e-06
-4.1172e-07
-1.18767e-06
-4.42182e-07
-1.12556e-06
-4.6786e-07
-1.05875e-06
-4.88207e-07
-9.87947e-07
-5.02763e-07
-9.13961e-07
-5.11167e-07
-8.37671e-07
-5.13178e-07
-7.60017e-07
-5.08688e-07
-6.81978e-07
-4.97733e-07
-6.04552e-07
-4.80495e-07
-5.28729e-07
-4.57308e-07
-4.55464e-07
-4.28649e-07
-3.85653e-07
-3.9513e-07
-3.20107e-07
-3.57479e-07
-2.59528e-07
-3.16525e-07
-2.04496e-07
-2.73169e-07
-1.55448e-07
-2.28361e-07
-1.12673e-07
-1.83079e-07
-7.6307e-08
-1.38304e-07
-4.63333e-08
-9.5005e-08
-2.25875e-08
-5.41252e-08
-4.76385e-09
-1.65784e-08
7.5757e-09
1.67492e-08
1.49929e-08
4.49906e-08
1.81658e-08
6.72838e-08
1.78832e-08
8.27529e-08
1.50433e-08
9.04874e-08
1.0654e-08
8.9521e-08
5.83686e-09
7.8815e-08
1.83138e-09
5.72482e-08
2.35813e-08
-4.29933e-09
2.37441e-08
-1.59099e-08
6.87591e-08
-3.36525e-08
1.10102e-07
-5.64788e-08
1.47174e-07
-8.34803e-08
1.79793e-07
-1.13889e-07
2.08036e-07
-1.47072e-07
2.3217e-07
-1.82518e-07
2.5259e-07
-2.19828e-07
2.69762e-07
-2.587e-07
2.84182e-07
-2.98914e-07
2.96341e-07
-3.40318e-07
3.06696e-07
-3.82819e-07
3.15659e-07
-4.26364e-07
3.23576e-07
-4.70935e-07
3.30727e-07
-5.16535e-07
3.37318e-07
-5.63177e-07
3.43485e-07
-6.10879e-07
3.4929e-07
-6.59651e-07
3.54728e-07
-7.0949e-07
3.59732e-07
-7.60375e-07
3.64178e-07
-8.12252e-07
3.67892e-07
-8.65041e-07
3.70655e-07
-9.1862e-07
3.72213e-07
-9.7283e-07
3.72288e-07
-1.02747e-06
3.7058e-07
-1.08229e-06
3.66785e-07
-1.13699e-06
3.60599e-07
-1.19126e-06
3.51726e-07
-1.24471e-06
3.39896e-07
-1.29693e-06
3.24866e-07
-1.34748e-06
3.0643e-07
-1.39588e-06
2.84433e-07
-1.44163e-06
2.58772e-07
-1.48422e-06
2.29406e-07
-1.52312e-06
1.96358e-07
-1.55782e-06
1.59726e-07
-1.58777e-06
1.19681e-07
-1.61249e-06
7.64705e-08
-1.63148e-06
3.04227e-08
-1.64431e-06
-1.80502e-08
-1.65053e-06
-6.85075e-08
-1.64981e-06
-1.20361e-07
-1.64185e-06
-1.73005e-07
-1.62642e-06
-2.25763e-07
-1.60338e-06
-2.77911e-07
-1.57266e-06
-3.28682e-07
-1.53432e-06
-3.77282e-07
-1.4885e-06
-4.22906e-07
-1.43547e-06
-4.64755e-07
-1.3756e-06
-5.0205e-07
-1.3094e-06
-5.3406e-07
-1.23749e-06
-5.60118e-07
-1.16061e-06
-5.79643e-07
-1.0796e-06
-5.92168e-07
-9.9543e-07
-5.97352e-07
-9.09111e-07
-5.95007e-07
-8.21737e-07
-5.85107e-07
-7.34432e-07
-5.67799e-07
-6.48331e-07
-5.43409e-07
-5.64542e-07
-5.12438e-07
-4.84121e-07
-4.75551e-07
-4.08038e-07
-4.33562e-07
-3.37151e-07
-3.87412e-07
-2.7218e-07
-3.3814e-07
-2.13689e-07
-2.86851e-07
-1.62075e-07
-2.34693e-07
-1.17557e-07
-1.82822e-07
-8.01781e-08
-1.32383e-07
-4.98115e-08
-8.44917e-08
-2.61657e-08
-4.02242e-08
-8.79726e-09
-6.19292e-10
2.87807e-09
3.33153e-08
9.57448e-09
6.05874e-08
1.21275e-08
8.02e-08
1.14884e-08
9.11265e-08
8.72187e-09
9.22875e-08
5.00553e-09
8.25314e-08
1.63014e-09
6.06236e-08
2.52114e-08
-4.70253e-09
2.84466e-08
-1.73534e-08
8.141e-08
-3.66281e-08
1.29376e-07
-6.13576e-08
1.71904e-07
-9.05374e-08
2.08973e-07
-1.23326e-07
2.40824e-07
-1.59037e-07
2.6788e-07
-1.97123e-07
2.90676e-07
-2.37166e-07
3.09805e-07
-2.78854e-07
3.25871e-07
-3.21969e-07
3.39456e-07
-3.6637e-07
3.51097e-07
-4.11976e-07
3.61264e-07
-4.58755e-07
3.70354e-07
-5.06709e-07
3.78681e-07
-5.55864e-07
3.86474e-07
-6.06258e-07
3.93879e-07
-6.5793e-07
4.00961e-07
-7.10911e-07
4.07709e-07
-7.65216e-07
4.14038e-07
-8.20838e-07
4.198e-07
-8.77734e-07
4.24789e-07
-9.3583e-07
4.2875e-07
-9.95005e-07
4.31389e-07
-1.0551e-06
4.32378e-07
-1.11589e-06
4.31373e-07
-1.17712e-06
4.28019e-07
-1.23848e-06
4.2196e-07
-1.29961e-06
4.12855e-07
-1.3601e-06
4.00386e-07
-1.4195e-06
3.84265e-07
-1.47732e-06
3.64252e-07
-1.53304e-06
3.40154e-07
-1.58611e-06
3.11842e-07
-1.63596e-06
2.79253e-07
-1.682e-06
2.42398e-07
-1.72364e-06
2.01369e-07
-1.7603e-06
1.5634e-07
-1.7914e-06
1.0757e-07
-1.81638e-06
5.54002e-08
-1.83477e-06
3.40899e-10
-1.846e-06
-5.72759e-08
-1.8497e-06
-1.16662e-07
-1.84549e-06
-1.77215e-07
-1.83307e-06
-2.38181e-07
-1.81223e-06
-2.9875e-07
-1.78285e-06
-3.58064e-07
-1.7449e-06
-4.15228e-07
-1.69849e-06
-4.69323e-07
-1.64381e-06
-5.19429e-07
-1.58122e-06
-5.64639e-07
-1.5112e-06
-6.04088e-07
-1.43434e-06
-6.36971e-07
-1.35142e-06
-6.62572e-07
-1.26329e-06
-6.80289e-07
-1.17098e-06
-6.89664e-07
-1.07559e-06
-6.90397e-07
-9.7832e-07
-6.82379e-07
-8.80424e-07
-6.65695e-07
-7.83188e-07
-6.40645e-07
-6.87893e-07
-6.07733e-07
-5.95774e-07