/*--------------------------------*- C++ -*----------------------------------*\
  =========                 |
  \\      /  F ield         | OpenFOAM: The Open Source CFD Toolbox
   \\    /   O peration     | Website:  https://openfoam.org
    \\  /    A nd           | Version:  7
     \\/     M anipulation  |
\*---------------------------------------------------------------------------*/
FoamFile
{
    version     2.0;
    format      ascii;
    class       volScalarField;
    location    "1.1";
    object      p;
}
// * * * * * * * * * * * * * * * * * * * * * * * * * * * * * * * * * * * * * //

dimensions      [0 2 -2 0 0 0 0];

internalField   nonuniform List<scalar> 
6400
(
2.27613e-08
-1.3721e-06
-3.3126e-05
-9.29948e-05
-0.000173642
-0.000268699
-0.000372766
-0.000481492
-0.000591514
-0.000700393
-0.000806392
-0.000908314
-0.00100536
-0.00109697
-0.00118277
-0.00126245
-0.0013357
-0.00140216
-0.00146141
-0.00151293
-0.00155611
-0.00159025
-0.00161455
-0.00162817
-0.00163021
-0.00161978
-0.00159598
-0.00155799
-0.00150507
-0.00143659
-0.00135211
-0.00125135
-0.00113428
-0.00100113
-0.000852417
-0.000688956
-0.000511914
-0.000322794
-0.00012345
8.39203e-05
0.000296796
0.000512347
0.000727484
0.000938895
0.00114311
0.00133658
0.00151571
0.00167702
0.00181715
0.00193302
0.00202185
0.00208131
0.00210957
0.00210534
0.00206795
0.0019974
0.00189432
0.00176004
0.0015965
0.00140626
0.00119243
0.000958597
0.000708755
0.000447211
0.0001785
-9.27036e-05
-0.000361663
-0.000623663
-0.000874067
-0.00110839
-0.00132232
-0.00151182
-0.00167316
-0.00180308
-0.00189893
-0.00195915
-0.00198402
-0.00197705
-0.00194655
-0.00190762
6.05461e-07
-8.41731e-07
-2.90093e-05
-8.01288e-05
-0.000148278
-0.000229015
-0.000318233
-0.000412485
-0.000508933
-0.000605383
-0.000700192
-0.000792145
-0.000880358
-0.000964184
-0.00104312
-0.00111676
-0.00118469
-0.00124653
-0.00130181
-0.00134999
-0.00139051
-0.0014227
-0.00144583
-0.00145914
-0.00146182
-0.00145309
-0.00143215
-0.00139828
-0.00135084
-0.00128928
-0.00121322
-0.00112245
-0.00101697
-0.000896993
-0.000763021
-0.000615823
-0.000456476
-0.000286364
-0.000107189
7.90359e-05
0.00027001
0.00046315
0.00065564
0.000844467
0.00102648
0.00119845
0.00135713
0.00149936
0.00162211
0.00172259
0.00179833
0.00184725
0.0018677
0.00185859
0.00181935
0.00175003
0.00165129
0.00152436
0.00137109
0.00119387
0.000995561
0.000779485
0.000549306
0.000308968
6.26136e-05
-0.000185508
-0.000431111
-0.000669951
-0.00089789
-0.00111096
-0.00130543
-0.00147787
-0.00162522
-0.00174494
-0.00183516
-0.00189499
-0.00192515
-0.00192844
-0.0019078
-0.00186877
3.16396e-05
2.62399e-05
-2.32172e-06
-5.00181e-05
-0.000111944
-0.000184566
-0.000264691
-0.000349487
-0.00043659
-0.000524114
-0.000610598
-0.00069492
-0.000776235
-0.000853891
-0.000927369
-0.000996224
-0.00106004
-0.00111839
-0.00117081
-0.00121677
-0.00125572
-0.00128703
-0.00131001
-0.00132395
-0.00132811
-0.00132174
-0.00130413
-0.0012746
-0.00123255
-0.00117749
-0.00110905
-0.00102704
-0.000931443
-0.000822467
-0.000700558
-0.000566425
-0.000421058
-0.000265738
-0.000102038
6.81795e-05
0.000242766
0.000419327
0.000595238
0.000767688
0.000933736
0.00109036
0.00123454
0.00136331
0.00147384
0.00156353
0.00163008
0.00167154
0.00168642
0.00167369
0.00163286
0.00156403
0.00146783
0.00134549
0.00119877
0.00102996
0.000841794
0.000637415
0.000420286
0.000194119
-3.72089e-05
-0.000269734
-0.000499484
-0.000722554
-0.00093517
-0.00113375
-0.00131497
-0.00147581
-0.00161366
-0.00172637
-0.00181238
-0.00187088
-0.00190237
-0.00190847
-0.00188743
-0.00183796
9.21879e-05
7.68945e-05
4.35303e-05
-4.98941e-06
-6.51555e-05
-0.000134035
-0.000209014
-0.000287805
-0.000368491
-0.000449521
-0.000529674
-0.000608002
-0.00068377
-0.000756403
-0.000825426
-0.000890423
-0.000950995
-0.00100672
-0.00105716
-0.0011018
-0.00114009
-0.00117144
-0.00119519
-0.00121065
-0.00121712
-0.00121387
-0.00120021
-0.0011755
-0.00113914
-0.00109065
-0.00102965
-0.000955929
-0.000869435
-0.000770329
-0.000658998
-0.000536074
-0.000402459
-0.000259331
-0.000108152
4.93366e-05
0.000211119
0.00037493
0.000538282
0.000698505
0.000852789
0.000998249
0.00113198
0.00125114
0.00135302
0.0014351
0.00149517
0.00153136
0.00154223
0.0015268
0.00148463
0.0014158
0.00132097
0.00120133
0.00105863
0.000895084
0.000713361
0.000516503
0.000307857
9.09926e-05
-0.000130382
-0.000352495
-0.000571593
-0.000784013
-0.000986246
-0.001175
-0.00134723
-0.00150024
-0.00163166
-0.00173956
-0.00182243
-0.00187931
-0.00191024
-0.00191575
-0.00189076
-0.00182987
0.000175882
0.000145715
0.000104023
5.17653e-05
-9.40813e-06
-7.71042e-05
-0.000149212
-0.000223972
-0.000299914
-0.000375845
-0.000450824
-0.000524116
-0.000595148
-0.000663464
-0.000728678
-0.000790435
-0.000848376
-0.00090212
-0.000951242
-0.000995266
-0.00103366
-0.00106586
-0.00109121
-0.00110904
-0.00111867
-0.00111937
-0.00111047
-0.00109132
-0.0010613
-0.00101992
-0.000966761
-0.000901565
-0.000824228
-0.000734846
-0.000633724
-0.000521409
-0.000398705
-0.000266686
-0.000126705
1.9607e-05
0.000170346
0.000323356
0.000476257
0.000626475
0.000771297
0.000907916
0.00103351
0.00114529
0.00124059
0.00131697
0.00137222
0.00140452
0.00141243
0.00139499
0.00135176
0.00128282
0.00118883
0.00107097
0.000930955
0.00077098
0.00059367
0.000402015
0.000199289
-1.10292e-05
-0.000225342
-0.000440014
-0.000651455
-0.000856185
-0.0010509
-0.00123254
-0.0013983
-0.00154569
-0.00167254
-0.00177706
-0.00185774
-0.00191345
-0.00194381
-0.00194861
-0.00192074
-0.00185254
0.000276693
0.000228391
0.000175615
0.000117246
5.27959e-05
-1.58446e-05
-8.70233e-05
-0.000159491
-0.00023222
-0.000304384
-0.000375344
-0.00044461
-0.000511803
-0.000576622
-0.000638796
-0.000698057
-0.000754112
-0.000806633
-0.000855234
-0.000899469
-0.000938833
-0.000972759
-0.00100062
-0.00102176
-0.00103546
-0.00104102
-0.00103774
-0.00102493
-0.00100197
-0.000968285
-0.000923424
-0.000867055
-0.000798999
-0.000719263
-0.000628063
-0.000525842
-0.000413303
-0.000291412
-0.000161418
-2.485e-05
0.000116484
0.000260518
0.000404947
0.000547265
0.000684813
0.000814825
0.000934502
0.00104108
0.00113189
0.00120449
0.00125665
0.00128653
0.00129268
0.00127411
0.00123036
0.00116149
0.00106814
0.000951467
0.000813185
0.000655474
0.000480943
0.00029256
9.35672e-05
-0.000112602
-0.000322414
-0.000532317
-0.000738826
-0.000938594
-0.00112847
-0.00130555
-0.00146722
-0.00161116
-0.00173534
-0.00183805
-0.00191779
-0.0019733
-0.00200392
-0.00200896
-0.00198034
-0.00190954
0.000389054
0.000320403
0.00025463
0.000188306
0.00011875
4.74e-05
-2.45062e-05
-9.62092e-05
-0.000167117
-0.000236776
-0.00030486
-0.000371144
-0.000435469
-0.000497707
-0.000557724
-0.000615357
-0.000670402
-0.000722593
-0.000771592
-0.000816987
-0.000858293
-0.000894959
-0.000926362
-0.000951825
-0.000970631
-0.000982045
-0.000985331
-0.00097976
-0.000964645
-0.000939354
-0.000903348
-0.000856208
-0.000797658
-0.000727603
-0.000646148
-0.000553628
-0.00045063
-0.000338014
-0.000216924
-8.87969e-05
4.46456e-05
0.000181406
0.000319233
0.00045566
0.000588044
0.000713628
0.000829597
0.000933155
0.0010216
0.00109243
0.00114336
0.00117249
0.0011783
0.00115975
0.00111631
0.00104802
0.000955466
0.000839798
0.000702705
0.000546364
0.000373388
0.000186746
-1.03188e-05
-0.000214381
-0.000421926
-0.00062944
-0.000833492
-0.00103081
-0.00121835
-0.00139332
-0.00155322
-0.00169586
-0.00181931
-0.00192194
-0.00200225
-0.00205889
-0.00209105
-0.00209778
-0.0020708
-0.00200158
0.000507821
0.000417447
0.000337298
0.000261651
0.000185596
0.000110166
3.62089e-05
-3.59926e-05
-0.000106277
-0.000174559
-0.000240837
-0.000305162
-0.000367605
-0.000428224
-0.000487037
-0.000544003
-0.000599015
-0.000651878
-0.000702309
-0.00074993
-0.00079428
-0.000834812
-0.000870897
-0.000901843
-0.000926904
-0.000945305
-0.000956252
-0.000958955
-0.000952644
-0.000936599
-0.000910179
-0.000872855
-0.000824238
-0.000764107
-0.000692446
-0.000609463
-0.000515626
-0.000411679
-0.000298662
-0.000177921
-5.11023e-05
7.98518e-05
0.00021273
0.000345078
0.000474248
0.000597451
0.000711828
0.000814515
0.000902733
0.00097387
0.00102556
0.00105579
0.00106293
0.00104585
0.00100393
0.000937138
0.000845996
0.000731619
0.000595672
0.000440327
0.000268203
8.22876e-05
-0.000114153
-0.000317672
-0.000524738
-0.000731832
-0.000935536
-0.00113261
-0.00132004
-0.00149513
-0.00165543
-0.00179883
-0.00192349
-0.00202782
-0.00211034
-0.00216969
-0.00220496
-0.00221508
-0.0021921
-0.00212799
0.000628232
0.000515274
0.000419824
0.000333881
0.000250309
0.000169759
9.27089e-05
1.89745e-05
-5.17068e-05
-0.000119622
-0.000185095
-0.000248458
-0.000310016
-0.000370021
-0.000428653
-0.000486003
-0.000542063
-0.000596718
-0.000649739
-0.000700785
-0.000749412
-0.000795076
-0.000837137
-0.000874873
-0.000907499
-0.000934181
-0.000954058
-0.00096625
-0.000969891
-0.000964149
-0.000948262
-0.000921572
-0.000883549
-0.000833837
-0.000772275
-0.000698934
-0.000614148
-0.000518537
-0.000413033
-0.000298888
-0.000177677
-5.1291e-05
7.80824e-05
0.00020799
0.000335755
0.000458538
0.000573399
0.000677378
0.000767576
0.000841247
0.000895886
0.000929319
0.000939784
0.000926002
0.000887233
0.000823321
0.000734709
0.000622443
0.000488147
0.000333976
0.000162551
-2.31173e-05
-0.000219726
-0.000423784
-0.000631715
-0.000839958
-0.00104507
-0.00124378
-0.0014331
-0.00161032
-0.00177305
-0.00191921
-0.002047
-0.00215486
-0.00224134
-0.00230509
-0.00234516
-0.00236046
-0.00234363
-0.00228749
0.000745848
0.000609782
0.000498432
0.000401534
0.000309723
0.00022328
0.000142326
6.62128e-05
-5.74441e-06
-7.42054e-05
-0.00013982
-0.000203198
-0.000264883
-0.000325327
-0.000384875
-0.00044375
-0.00050205
-0.000559738
-0.000616641
-0.000672453
-0.000726745
-0.00077897
-0.000828468
-0.000874482
-0.00091617
-0.000952629
-0.000982907
-0.00100602
-0.001021
-0.00102686
-0.00102271
-0.00100774
-0.000981254
-0.000942744
-0.000891886
-0.000828593
-0.000753051
-0.000665745
-0.000567485
-0.000459425
-0.000343062
-0.000220239
-9.31208e-05
3.58283e-05
0.000163891
0.000288157
0.000405584
0.000513084
0.000607607
0.000686233
0.000746273
0.000785358
0.000801532
0.000793328
0.000759831
0.000700729
0.000616333
0.000507587
0.000376042
0.000223813
5.35131e-05
-0.000131829
-0.000328869
-0.000534058
-0.00074375
-0.000954315
-0.00116224
-0.0013642
-0.00155715
-0.00173837
-0.00190543
-0.00205626
-0.00218908
-0.00230231
-0.00239456
-0.00246448
-0.00251108
-0.00253328
-0.00252456
-0.00247868
0.000856427
0.000696965
0.000569363
0.000461094
0.000360555
0.000267664
0.000182181
0.000102996
2.89977e-05
-4.08428e-05
-0.0001075
-0.00017186
-0.000234704
-0.000296689
-0.000358322
-0.000419959
-0.000481802
-0.000543895
-0.000606117
-0.000668193
-0.000729707
-0.000790104
-0.000848696
-0.000904678
-0.000957144
-0.00100511
-0.00104751
-0.00108325
-0.00111121
-0.00113027
-0.00113937
-0.00113751
-0.00112385
-0.00109767
-0.00105846
-0.00100598
-0.000940226
-0.000861538
-0.000770587
-0.000668414
-0.000556424
-0.000436407
-0.000310505
-0.000181191
-5.1229e-05
7.63854e-05
0.000198492
0.000311847
0.000413216
0.000499472
0.000567695
0.000615275
0.000640009
0.000640186
0.00061466
0.000562906
0.000485053
0.000381891
0.000254859
0.000105997
-6.21149e-05
-0.000246445
-0.000443613
-0.000650004
-0.000861887
-0.00107553
-0.00128732
-0.00149384
-0.00169195
-0.00187883
-0.00205201
-0.00220936
-0.00234907
-0.00246954
-0.00256938
-0.00264724
-0.00270211
-0.00273289
-0.00273399
-0.00270025
0.000955837
0.00077288
0.000628865
0.000508995
0.000399424
0.000299698
0.00020921
0.000126379
4.9665e-05
-2.23273e-05
-9.08932e-05
-0.000157202
-0.00022227
-0.00028695
-0.000351914
-0.00041765
-0.000484461
-0.000552466
-0.000621597
-0.000691606
-0.000762086
-0.000832467
-0.000902027
-0.000969906
-0.00103512
-0.00109658
-0.00115311
-0.00120348
-0.00124641
-0.0012806
-0.00130482
-0.00131787
-0.00131868
-0.00130636
-0.00128017
-0.00123967
-0.00118466
-0.0011153
-0.0010321
-0.000935979
-0.000828211
-0.00071053
-0.000585036
-0.000454209
-0.000320856
-0.000188064
-5.91257e-05
6.25418e-05
0.00017349
0.000270346
0.000349915
0.000409293
0.000445969
0.000457927
0.000443722
0.000402551
0.000334291
0.000239521
0.000119508
-2.38308e-05
-0.000187987
-0.000369952
-0.000566321
-0.000773416
-0.000987411
-0.00120446
-0.00142079
-0.00163286
-0.00183739
-0.00203142
-0.00221238
-0.00237801
-0.00252643
-0.002656
-0.00276525
-0.00285284
-0.0029177
-0.00295867
-0.00297114
-0.00295111
0.00104002
0.000833617
0.000673177
0.000541625
0.000422865
0.000316049
0.000220189
0.000133227
5.31942e-05
-2.16793e-05
-9.30111e-05
-0.000162246
-0.000230637
-0.00029923
-0.000368856
-0.000440133
-0.000513462
-0.000589033
-0.000666828
-0.000746625
-0.000828019
-0.000910421
-0.000993068
-0.00107503
-0.00115525
-0.00123251
-0.00130551
-0.00137287
-0.00143311
-0.00148478
-0.0015264
-0.00155657
-0.00157399
-0.00157751
-0.00156618
-0.0015393
-0.00149647
-0.00143761
-0.00136306
-0.00127354
-0.00117024
-0.00105476
-0.000929142
-0.000795862
-0.000657762
-0.000518014
-0.000380052
-0.000247484
-0.000123996
-1.32456e-05
8.12509e-05
0.000156238
0.000208834
0.000236642
0.000237842
0.00021127
0.000156472
7.37357e-05
-3.59162e-05
-0.000170751
-0.000328387
-0.000505878
-0.000699821
-0.000906486
-0.00112195
-0.00134221
-0.00156336
-0.00178164
-0.00199358
-0.00219605
-0.00238628
-0.00256188
-0.00272079
-0.00286127
-0.00298177
-0.00308088
-0.00315741
-0.00321014
-0.00323544
-0.00323046
0.00110494
0.000875281
0.000698536
0.000555343
0.000427344
0.000313282
0.000211768
0.000120256
3.63416e-05
-4.21211e-05
-0.000117076
-0.000190242
-0.000263102
-0.000336895
-0.000412608
-0.000490981
-0.000572512
-0.000657461
-0.000745854
-0.000837494
-0.000931973
-0.00102868
-0.0011268
-0.00122534
-0.00132313
-0.00141884
-0.00151103
-0.00159812
-0.00167848
-0.0017504
-0.00181219
-0.0018622
-0.00189887
-0.00192076
-0.00192667
-0.00191562
-0.00188693
-0.00184029
-0.00177578
-0.00169394
-0.00159577
-0.00148274
-0.0013568
-0.00122039
-0.00107636
-0.000927963
-0.000778774
-0.000632599
-0.000493386
-0.000365112
-0.000251661
-0.000156703
-8.35621e-05
-3.50996e-05
-1.36014e-05
-2.06874e-05
-5.72404e-05
-0.000123363
-0.000218364
-0.000340782
-0.00048843
-0.000658481
-0.000847575
-0.00105195
-0.00126758
-0.00149033
-0.00171607
-0.00194082
-0.00216087
-0.00237283
-0.00257368
-0.0027608
-0.00293193
-0.00308513
-0.0032187
-0.00333111
-0.00342101
-0.00348702
-0.00352653
-0.00353786
0.00114658
0.000893986
0.000701167
0.000546473
0.000409275
0.000287883
0.000180492
8.4056e-05
-4.27945e-06
-8.70402e-05
-0.000166492
-0.000244632
-0.000323168
-0.000403528
-0.000486851
-0.000573999
-0.000665562
-0.000761867
-0.000862984
-0.000968737
-0.00107872
-0.00119228
-0.00130856
-0.00142649
-0.00154478
-0.00166198
-0.00177647
-0.00188651
-0.00199024
-0.00208571
-0.00217098
-0.00224411
-0.00230325
-0.00234666
-0.00237281
-0.0023804
-0.00236845
-0.00233634
-0.00228389
-0.00221135
-0.0021195
-0.00200964
-0.00188358
-0.00174368
-0.00159278
-0.00143419
-0.0012716
-0.00110904
-0.00095071
-0.000800956
-0.000664077
-0.000544217
-0.000445225
-0.000370515
-0.000322946
-0.000304704
-0.000317218
-0.000361096
-0.000436096
-0.000541126
-0.000674289
-0.000832953
-0.00101386
-0.00121325
-0.00142702
-0.00165085
-0.00188041
-0.00211145
-0.00233994
-0.00256216
-0.00277478
-0.00297486
-0.00315984
-0.00332752
-0.00347597
-0.00360347
-0.00370844
-0.00378927
-0.00384436
-0.00387321
0.00116093
0.000885863
0.000677306
0.00051133
0.000365045
0.000236298
0.000122847
2.11277e-05
-7.21665e-05
-0.000159947
-0.000244806
-0.000329011
-0.0004145
-0.000502884
-0.000595452
-0.000693184
-0.000796761
-0.00090658
-0.00102275
-0.00114512
-0.00127327
-0.00140653
-0.00154398
-0.00168445
-0.00182655
-0.0019687
-0.00210909
-0.00224577
-0.00237665
-0.00249954
-0.00261219
-0.00271235
-0.00279783
-0.00286657
-0.00291664
-0.0029464
-0.00295449
-0.00293994
-0.00290221
-0.00284124
-0.00275752
-0.0026521
-0.00252662
-0.00238329
-0.0022249
-0.00205478
-0.00187674
-0.00169497
-0.00151399
-0.00133852
-0.00117331
-0.00102306
-0.000892211
-0.000784843
-0.000704497
-0.000654057
-0.000635634
-0.000650481
-0.000698939
-0.000780421
-0.000893434
-0.00103564
-0.00120396
-0.0013947
-0.00160368
-0.00182645
-0.00205842
-0.002295
-0.00253182
-0.00276475
-0.00299004
-0.00320435
-0.00340472
-0.00358859
-0.00375373
-0.00389813
-0.00401988
-0.0041171
-0.00418917
-0.0042368
0.00114401
0.000847067
0.000623213
0.000446252
0.000291047
0.000154957
3.52795e-05
-7.20768e-05
-0.000170882
-0.000264434
-0.000355654
-0.000447081
-0.00054088
-0.000638843
-0.000742408
-0.000852673
-0.000970414
-0.00109609
-0.00122986
-0.00137159
-0.00152086
-0.00167696
-0.00183891
-0.00200547
-0.00217512
-0.00234611
-0.00251647
-0.00268402
-0.00284642
-0.00300118
-0.00314575
-0.00327753
-0.00339396
-0.00349256
-0.00357101
-0.00362723
-0.00365944
-0.00366623
-0.00364665
-0.00360025
-0.00352717
-0.00342813
-0.0033045
-0.00315831
-0.00299224
-0.00280958
-0.00261421
-0.00241051
-0.00220328
-0.00199764
-0.00179883
-0.00161217
-0.00144279
-0.00129552
-0.00117474
-0.00108415
-0.00102671
-0.00100448
-0.00101855
-0.001069
-0.00115488
-0.00127428
-0.0014244
-0.00160168
-0.00180195
-0.00202059
-0.00225276
-0.00249351
-0.00273803
-0.0029817
-0.00322027
-0.00344986
-0.00366703
-0.00386875
-0.00405235
-0.00421546
-0.00435576
-0.00447098
-0.00456148
-0.00462921
0.00109188
0.000773813
0.000535203
0.000347619
0.000183707
4.03086e-05
-8.5756e-05
-0.000199116
-0.00030401
-0.000404128
-0.00050272
-0.000602599
-0.000706152
-0.000815355
-0.000931796
-0.00105669
-0.00119092
-0.001335
-0.00148914
-0.00165323
-0.00182684
-0.00200924
-0.0021994
-0.00239597
-0.00259732
-0.00280153
-0.00300645
-0.00320966
-0.00340853
-0.00360029
-0.00378201
-0.00395071
-0.00410342
-0.00423722
-0.0043493
-0.0044371
-0.00449834
-0.00453111
-0.00453395
-0.00450596
-0.00444681
-0.00435681
-0.00423701
-0.00408916
-0.00391574
-0.00371997
-0.00350574
-0.00327757
-0.00304054
-0.00280016
-0.00256223
-0.00233269
-0.00211748
-0.0019223
-0.00175246
-0.00161268
-0.00150691
-0.00143823
-0.00140866
-0.00141912
-0.00146942
-0.00155822
-0.00168314
-0.00184086
-0.00202728
-0.00223766
-0.0024669
-0.00270966
-0.0029606
-0.00321456
-0.00346662
-0.0037123
-0.00394751
-0.00416862
-0.00437243
-0.00455607
-0.00471672
-0.00485162
-0.00496211
-0.00505141
0.00100067
0.000662396
0.000409675
0.000211893
3.95172e-05
-0.00011114
-0.000243758
-0.00036351
-0.000475108
-0.00058264
-0.000689681
-0.00079932
-0.000914168
-0.00103639
-0.00116771
-0.00130949
-0.00146269
-0.00162791
-0.00180542
-0.00199512
-0.0021966
-0.00240909
-0.00263151
-0.00286243
-0.00310007
-0.00334238
-0.00358697
-0.00383119
-0.00407212
-0.00430664
-0.00453144
-0.00474313
-0.00493825
-0.00511338
-0.0052652
-0.00539058
-0.00548665
-0.00555092
-0.00558136
-0.00557648
-0.00553541
-0.00545799
-0.00534479
-0.00519721
-0.00501746
-0.00480857
-0.0045744
-0.00431957
-0.00404939
-0.00376976
-0.00348703
-0.00320786
-0.00293903
-0.00268721
-0.00245882
-0.00225972
-0.00209509
-0.00196919
-0.00188523
-0.0018452
-0.00184985
-0.00189865
-0.0019898
-0.00212037
-0.00228641
-0.00248316
-0.00270524
-0.00294689
-0.00320223
-0.00346537
-0.00373069
-0.00399291
-0.00424717
-0.0044891
-0.00471481
-0.00492082
-0.00510365
-0.00526
-0.00539215
-0.00550464
0.00086664
0.000509236
0.000243148
3.56442e-05
-0.000144918
-0.00030278
-0.00044213
-0.000568694
-0.000687659
-0.000803508
-0.000920147
-0.00104094
-0.00116872
-0.00130584
-0.0014542
-0.00161526
-0.0017901
-0.00197941
-0.0021835
-0.00240232
-0.00263547
-0.00288217
-0.00314127
-0.00341125
-0.00369024
-0.00397598
-0.0042659
-0.00455706
-0.00484624
-0.00512994
-0.00540446
-0.00566592
-0.00591037
-0.00613381
-0.00633232
-0.00650215
-0.00663976
-0.00674199
-0.00680613
-0.00683001
-0.00681213
-0.00675171
-0.00664878
-0.00650425
-0.00631996
-0.00609868
-0.00584414
-0.00556097
-0.00525467
-0.00493151
-0.00459839
-0.00426269
-0.00393211
-0.0036144
-0.00331718
-0.00304767
-0.00281245
-0.00261723
-0.0024666
-0.00236393
-0.00231116
-0.00230879
-0.00235585
-0.00244998
-0.00258754
-0.00276382
-0.00297321
-0.00320955
-0.00346628
-0.00373678
-0.00401453
-0.00429332
-0.00456735
-0.00483135
-0.00508055
-0.00531075
-0.00551768
-0.00569732
-0.00585296
-0.00599048
0.0006862
0.000310912
3.23026e-05
-0.000184391
-0.000372839
-0.000537849
-0.000684131
-0.000817961
-0.000945005
-0.00107014
-0.0011976
-0.00133102
-0.00147347
-0.0016275
-0.00179516
-0.00197805
-0.00217737
-0.00239389
-0.002628
-0.0028797
-0.00314861
-0.00343392
-0.00373446
-0.00404863
-0.00437442
-0.00470941
-0.00505079
-0.00539537
-0.00573958
-0.00607953
-0.00641108
-0.00672984
-0.00703127
-0.00731078
-0.00756378
-0.00778578
-0.00797253
-0.0081201
-0.00822498
-0.00828424
-0.00829561
-0.00825759
-0.00816954
-0.00803179
-0.00784567
-0.00761359
-0.00733903
-0.00702656
-0.00668178
-0.00631128
-0.00592247
-0.00552346
-0.00512291
-0.00472973
-0.00435287
-0.00400106
-0.00368248
-0.00340453
-0.00317349
-0.00299436
-0.00287059
-0.00280403
-0.00279479
-0.00284133
-0.00294052
-0.00308781
-0.00327749
-0.00350295
-0.00375698
-0.00403208
-0.0043207
-0.00461555
-0.00490971
-0.00519677
-0.00547097
-0.00572715
-0.0059601
-0.00616498
-0.00634608
-0.00651069
0.000455967
6.42111e-05
-0.000225972
-0.000451271
-0.000647281
-0.000819385
-0.000972819
-0.00111441
-0.00125029
-0.00138574
-0.00152531
-0.00167293
-0.00183189
-0.00200493
-0.00219429
-0.0024017
-0.00262848
-0.00287552
-0.00314329
-0.00343185
-0.00374084
-0.00406947
-0.00441653
-0.00478034
-0.00515877
-0.00554924
-0.0059487
-0.00635367
-0.00676023
-0.00716408
-0.00756058
-0.00794479
-0.00831157
-0.00865564
-0.00897166
-0.00925439
-0.00949871
-0.00969985
-0.00985341
-0.00995558
-0.0100032
-0.00999399
-0.00992645
-0.00980021
-0.00961598
-0.00937568
-0.00908241
-0.00874059
-0.0083558
-0.00793486
-0.00748565
-0.00701698
-0.00653846
-0.00606021
-0.00559262
-0.00514607
-0.00473054
-0.00435536
-0.00402881
-0.00375781
-0.0035477
-0.00340199
-0.00332223
-0.003308
-0.00335693
-0.00346485
-0.00362605
-0.00383355
-0.00407945
-0.00435528
-0.00465236
-0.0049621
-0.00527624
-0.00558707
-0.00588757
-0.00617146
-0.00643241
-0.00666457
-0.00687327
-0.0070673
0.000172813
-0.000233819
-0.000534528
-0.000767799
-0.000971027
-0.00115017
-0.001311
-0.00146088
-0.00160641
-0.00175326
-0.00190631
-0.00206976
-0.00224715
-0.00244142
-0.00265496
-0.0028897
-0.00314708
-0.0034281
-0.00373333
-0.00406292
-0.00441654
-0.00479344
-0.00519236
-0.00561157
-0.00604882
-0.00650135
-0.00696589
-0.00743864
-0.00791532
-0.00839119
-0.00886108
-0.00931947
-0.00976053
-0.0101783
-0.0105665
-0.0109192
-0.0112302
-0.0114939
-0.0117049
-0.0118584
-0.0119502
-0.0119771
-0.0119367
-0.0118277
-0.0116502
-0.0114053
-0.0110958
-0.0107256
-0.0103004
-0.0098269
-0.00931348
-0.00876956
-0.00820565
-0.00763311
-0.00706382
-0.00650991
-0.00598336
-0.00549565
-0.00505734
-0.00467766
-0.00436416
-0.00412245
-0.0039559
-0.00386559
-0.00385023
-0.00390632
-0.00402833
-0.00420902
-0.00443981
-0.00471122
-0.00501327
-0.0053359
-0.00566931
-0.0060042
-0.00633208
-0.00664532
-0.00693623
-0.0071978
-0.00743641
-0.00766245
-0.000166076
-0.000585823
-0.000895912
-0.00113647
-0.00134656
-0.00153269
-0.00170118
-0.00185991
-0.00201595
-0.00217533
-0.00234328
-0.00252427
-0.00272208
-0.00293985
-0.00318018
-0.00344514
-0.00373634
-0.00405492
-0.00440156
-0.00477649
-0.00517947
-0.00560976
-0.0060661
-0.00654669
-0.00704919
-0.00757064
-0.00810755
-0.00865579
-0.00921071
-0.00976708
-0.0103192
-0.0108609
-0.0113856
-0.0118865
-0.0123567
-0.012789
-0.0131765
-0.0135124
-0.0137902
-0.0140041
-0.0141488
-0.0142199
-0.0142142
-0.0141293
-0.0139643
-0.0137197
-0.0133975
-0.0130013
-0.0125364
-0.0120096
-0.0114294
-0.0108057
-0.0101501
-0.00947482
-0.00879343
-0.00811984
-0.00746817
-0.00685225
-0.00628519
-0.00577887
-0.00534349
-0.00498716
-0.00471555
-0.00453168
-0.00443577
-0.00442534
-0.0044953
-0.00463833
-0.00484527
-0.00510558
-0.00540787
-0.00574042
-0.00609164
-0.00645039
-0.00680642
-0.00715048
-0.0074733
-0.00776648
-0.00803748
-0.00829841
-0.000563149
-0.000994086
-0.00131231
-0.00155944
-0.00177599
-0.00196907
-0.00214549
-0.00231366
-0.00248109
-0.0026542
-0.00283852
-0.0030388
-0.00325906
-0.00350267
-0.00377242
-0.00407058
-0.00439891
-0.00475869
-0.00515077
-0.00557546
-0.00603262
-0.00652154
-0.00704097
-0.00758908
-0.00816338
-0.00876078
-0.00937751
-0.0100091
-0.0106506
-0.0112961
-0.0119395
-0.0125738
-0.0131918
-0.0137858
-0.0143478
-0.0148699
-0.0153439
-0.0157619
-0.0161164
-0.0164002
-0.0166071
-0.0167314
-0.0167685
-0.0167153
-0.0165698
-0.0163314
-0.0160015
-0.015583
-0.0150806
-0.0145012
-0.0138532
-0.0131469
-0.0123945
-0.0116095
-0.0108067
-0.010002
-0.00921163
-0.00845198
-0.00773893
-0.00708735
-0.00651049
-0.00601943
-0.00562267
-0.00532568
-0.00513071
-0.00503672
-0.00503948
-0.00513184
-0.00530419
-0.00554497
-0.00584131
-0.00617965
-0.00654633
-0.00692811
-0.00731266
-0.00768881
-0.00804542
-0.00837246
-0.0086785
-0.00897745
-0.00102043
-0.00146048
-0.00178551
-0.00203842
-0.00226104
-0.00246101
-0.00264566
-0.00282388
-0.00300362
-0.00319164
-0.00339382
-0.00361516
-0.00385995
-0.00413176
-0.00443361
-0.00476794
-0.00513671
-0.00554139
-0.00598295
-0.00646185
-0.00697803
-0.00753086
-0.0081191
-0.00874086
-0.00939358
-0.010074
-0.010778
-0.0115009
-0.0122372
-0.0129806
-0.0137243
-0.0144605
-0.0151814
-0.0158782
-0.0165421
-0.0171639
-0.0177345
-0.0182448
-0.018686
-0.0190497
-0.0193283
-0.019515
-0.019604
-0.0195909
-0.0194725
-0.0192474
-0.0189159
-0.0184801
-0.0179442
-0.0173145
-0.0165995
-0.0158096
-0.0149574
-0.0140574
-0.0131257
-0.0121799
-0.0112385
-0.0103204
-0.00944453
-0.008629
-0.00789048
-0.00724355
-0.00670004
-0.0062685
-0.00595379
-0.0057569
-0.0056749
-0.00570123
-0.00582607
-0.00603695
-0.00631947
-0.0066581
-0.00703686
-0.00744007
-0.00785301
-0.00826223
-0.0086544
-0.00901757
-0.00936143
-0.00970185
-0.00153949
-0.00198642
-0.00231685
-0.00257473
-0.00280297
-0.00300977
-0.00320293
-0.00339182
-0.00358478
-0.00378894
-0.00401046
-0.00425465
-0.004526
-0.00482837
-0.00516495
-0.00553842
-0.00595094
-0.00640415
-0.0068992
-0.0074367
-0.00801669
-0.00863863
-0.0093013
-0.0100028
-0.0107404
-0.0115107
-0.0123093
-0.0131313
-0.0139705
-0.0148203
-0.015673
-0.0165203
-0.0173534
-0.0181626
-0.018938
-0.0196694
-0.0203465
-0.0209589
-0.0214965
-0.0219498
-0.0223098
-0.0225684
-0.0227185
-0.0227543
-0.0226715
-0.0224676
-0.0221417
-0.0216951
-0.0211311
-0.0204555
-0.0196763
-0.0188039
-0.0178512
-0.0168333
-0.0157675
-0.0146728
-0.0135699
-0.0124803
-0.011426
-0.0104285
-0.0095083
-0.00868391
-0.00797108
-0.00738207
-0.00692504
-0.00660368
-0.006417
-0.00635952
-0.00642159
-0.00659004
-0.00684901
-0.00718085
-0.00756706
-0.00798921
-0.00842978
-0.00887268
-0.009302
-0.00970355
-0.0100882
-0.0104737
-0.00212136
-0.00257282
-0.00290715
-0.00316914
-0.00340257
-0.00361612
-0.00381806
-0.00401822
-0.0042253
-0.00444678
-0.00468912
-0.00495788
-0.00525782
-0.00559302
-0.00596693
-0.00638243
-0.00684189
-0.00734716
-0.00789958
-0.00849992
-0.00914836
-0.00984442
-0.0105869
-0.0113739
-0.0122026
-0.0130694
-0.0139697
-0.014898
-0.0158479
-0.0168121
-0.0177822
-0.0187491
-0.0197031
-0.0206336
-0.0215296
-0.0223798
-0.0231726
-0.0238965
-0.02454
-0.0250922
-0.0255429
-0.0258825
-0.0261028
-0.0261966
-0.0261583
-0.0259841
-0.025672
-0.0252222
-0.0246371
-0.0239217
-0.0230833
-0.022132
-0.0210807
-0.0199449
-0.0187425
-0.017494
-0.0162219
-0.0149502
-0.0137038
-0.0125079
-0.011387
-0.0103639
-0.0094589
-0.00868858
-0.00806518
-0.00759586
-0.00728234
-0.00712086
-0.00710247
-0.00721368
-0.00743728
-0.00775351
-0.00814115
-0.00857865
-0.00904534
-0.00952207
-0.00998989
-0.010432
-0.0108603
-0.011295
-0.00276653
-0.00322007
-0.00355675
-0.00382195
-0.00406006
-0.00428026
-0.00449124
-0.00470323
-0.00492531
-0.00516525
-0.00542981
-0.00572481
-0.00605527
-0.0064255
-0.00683919
-0.00729945
-0.00780889
-0.00836958
-0.00898304
-0.00965022
-0.0103714
-0.0111463
-0.0119737
-0.0128517
-0.0137773
-0.0147467
-0.0157551
-0.0167965
-0.0178642
-0.01895
-0.020045
-0.0211393
-0.0222221
-0.023282
-0.0243068
-0.025284
-0.0262008
-0.0270445
-0.0278022
-0.0284619
-0.0290118
-0.0294412
-0.0297404
-0.0299009
-0.0299159
-0.0297803
-0.0294908
-0.0290465
-0.0284487
-0.0277013
-0.0268108
-0.0257868
-0.0246416
-0.0233908
-0.0220529
-0.0206492
-0.0192036
-0.0177423
-0.0162933
-0.0148851
-0.0135464
-0.0123047
-0.0111852
-0.0102096
-0.00939493
-0.00875269
-0.00828819
-0.00800026
-0.00788135
-0.0079181
-0.00809233
-0.00838219
-0.0087636
-0.00921165
-0.00970207
-0.0102122
-0.0107195
-0.0112043
-0.0116794
-0.0121673
-0.00347491
-0.00392798
-0.00426539
-0.00453286
-0.00477515
-0.00500184
-0.00522207
-0.00544642
-0.00568429
-0.00594377
-0.00623186
-0.00655467
-0.00691744
-0.00732473
-0.00778048
-0.00828805
-0.00885027
-0.00946945
-0.0101473
-0.010885
-0.011683
-0.012541
-0.0134578
-0.0144316
-0.0154593
-0.0165368
-0.0176589
-0.0188195
-0.020011
-0.0212248
-0.0224513
-0.0236796
-0.024898
-0.0260941
-0.0272545
-0.0283657
-0.0294136
-0.0303841
-0.0312633
-0.0320377
-0.0326944
-0.0332212
-0.0336072
-0.0338427
-0.0339195
-0.0338312
-0.0335734
-0.0331439
-0.0325427
-0.0317726
-0.0308391
-0.0297509
-0.0285195
-0.0271601
-0.0256912
-0.0241346
-0.0225153
-0.0208612
-0.0192028
-0.017572
-0.0160015
-0.0145237
-0.0131691
-0.011965
-0.010934
-0.0100931
-0.00945206
-0.00901327
-0.00877148
-0.00871422
-0.00882274
-0.00907339
-0.00943918
-0.00989157
-0.0104023
-0.0109446
-0.0114921
-0.0120214
-0.0125464
-0.0130918
-0.00424578
-0.00469578
-0.00503227
-0.00530104
-0.00554693
-0.00577993
-0.00600956
-0.00624672
-0.0065011
-0.00678107
-0.00709389
-0.0074459
-0.0078426
-0.00828878
-0.00878864
-0.00934577
-0.00996327
-0.0106436
-0.0113889
-0.0122003
-0.0130785
-0.0140232
-0.0150335
-0.0161073
-0.0172414
-0.0184316
-0.0196724
-0.020957
-0.0222775
-0.0236245
-0.0249876
-0.0263552
-0.0277146
-0.0290521
-0.0303536
-0.0316041
-0.0327884
-0.0338913
-0.0348976
-0.0357925
-0.0365618
-0.0371924
-0.0376719
-0.0379895
-0.0381358
-0.0381033
-0.0378861
-0.0374809
-0.0368864
-0.0361041
-0.0351384
-0.0339965
-0.0326893
-0.0312309
-0.0296394
-0.0279365