/*--------------------------------*- C++ -*----------------------------------*\
  =========                 |
  \\      /  F ield         | OpenFOAM: The Open Source CFD Toolbox
   \\    /   O peration     | Website:  https://openfoam.org
    \\  /    A nd           | Version:  7
     \\/     M anipulation  |
\*---------------------------------------------------------------------------*/
FoamFile
{
    version     2.0;
    format      ascii;
    class       surfaceScalarField;
    location    "1.1";
    object      phi;
}
// * * * * * * * * * * * * * * * * * * * * * * * * * * * * * * * * * * * * * //

dimensions      [0 3 -1 0 0 0 0];

internalField   nonuniform List<scalar> 
12640
(
2.76228e-10
-2.76482e-10
7.64001e-10
-4.87736e-10
1.16264e-09
-3.98654e-10
1.31374e-09
-1.51084e-10
1.15109e-09
1.62619e-10
6.58915e-10
4.9218e-10
-1.51367e-10
8.10278e-10
-1.25489e-09
1.10355e-09
-2.62142e-09
1.36655e-09
-4.21962e-09
1.5982e-09
-6.01979e-09
1.80017e-09
-7.99525e-09
1.97546e-09
-1.01229e-08
2.12763e-09
-1.23832e-08
2.2603e-09
-1.47599e-08
2.37676e-09
-1.72397e-08
2.47981e-09
-1.98114e-08
2.57165e-09
-2.24652e-08
2.65379e-09
-2.51922e-08
2.72703e-09
-2.79837e-08
2.7915e-09
-3.08305e-08
2.84678e-09
-3.37224e-08
2.89193e-09
-3.66479e-08
2.92553e-09
-3.95938e-08
2.94583e-09
-4.25446e-08
2.95083e-09
-4.5483e-08
2.93836e-09
-4.83891e-08
2.90615e-09
-5.12411e-08
2.85197e-09
-5.40147e-08
2.77365e-09
-5.6684e-08
2.66923e-09
-5.92209e-08
2.53694e-09
-6.15963e-08
2.37539e-09
-6.37798e-08
2.18355e-09
-6.57407e-08
1.96087e-09
-6.7448e-08
1.70731e-09
-6.88715e-08
1.42342e-09
-6.99818e-08
1.11038e-09
-7.07519e-08
7.70059e-10
-7.11569e-08
4.05008e-10
-7.11754e-08
1.85347e-11
-7.079e-08
-3.85501e-10
-6.99876e-08
-8.0234e-10
-6.87609e-08
-1.22674e-09
-6.7108e-08
-1.65288e-09
-6.50335e-08
-2.07445e-09
-6.25487e-08
-2.48481e-09
-5.96716e-08
-2.8771e-09
-5.64272e-08
-3.24441e-09
-5.28472e-08
-3.57994e-09
-4.89701e-08
-3.87718e-09
-4.48399e-08
-4.1301e-09
-4.05066e-08
-4.33334e-09
-3.60243e-08
-4.48234e-09
-3.14507e-08
-4.57353e-09
-2.68463e-08
-4.60445e-09
-2.22724e-08
-4.57384e-09
-1.77908e-08
-4.48169e-09
-1.34615e-08
-4.3293e-09
-9.34224e-09
-4.11922e-09
-5.48702e-09
-3.85521e-09
-1.94486e-09
-3.54217e-09
1.24109e-09
-3.18595e-09
4.03437e-09
-2.79328e-09
6.40588e-09
-2.37151e-09
8.33444e-09
-1.92857e-09
9.80716e-09
-1.47273e-09
1.08197e-08
-1.01256e-09
1.13765e-08
-5.56824e-10
1.14911e-08
-1.14571e-10
1.11863e-08
3.04796e-10
1.04951e-08
6.91205e-10
9.46159e-09
1.03347e-09
8.143e-09
1.3186e-09
6.61224e-09
1.53076e-09
4.96226e-09
1.64997e-09
3.31145e-09
1.65081e-09
1.80918e-09
1.50226e-09
6.40657e-10
1.16852e-09
1.64409e-11
6.24214e-10
1.64381e-11
4.92166e-10
-7.68607e-10
1.13297e-09
-1.12858e-09
1.44802e-09
-7.13679e-10
1.15821e-09
1.38733e-10
1.17212e-10
1.20368e-09
-1.72801e-09
2.33739e-09
-4.37089e-09
3.45316e-09
-7.76881e-09
4.50148e-09
-1.18604e-08
5.45812e-09
-1.65768e-08
6.31466e-09
-2.1849e-08
7.07237e-09
-2.76118e-08
7.73821e-09
-3.38061e-08
8.32194e-09
-4.03799e-08
8.83415e-09
-4.72881e-08
9.28492e-09
-5.44913e-08
9.68306e-09
-6.19552e-08
1.00355e-08
-6.96483e-08
1.03469e-08
-7.75412e-08
1.06199e-08
-8.56045e-08
1.08547e-08
-9.38074e-08
1.10497e-08
-1.02117e-07
1.12014e-08
-1.10496e-07
1.13047e-08
-1.18904e-07
1.13536e-08
-1.27294e-07
1.13409e-08
-1.35615e-07
1.12592e-08
-1.43809e-07
1.11005e-08
-1.51814e-07
1.08572e-08
-1.59563e-07
1.0522e-08
-1.66982e-07
1.00882e-08
-1.73995e-07
9.55016e-09
-1.80523e-07
8.90352e-09
-1.86485e-07
8.14535e-09
-1.91798e-07
7.27444e-09
-1.96383e-07
6.29155e-09
-2.00159e-07
5.19956e-09
-2.03052e-07
4.00362e-09
-2.04993e-07
2.71131e-09
-2.05921e-07
1.33262e-09
-2.05782e-07
-1.19818e-10
-2.04537e-07
-1.63139e-09
-2.02154e-07
-3.18461e-09
-1.98621e-07
-4.76026e-09
-1.93936e-07
-6.33716e-09
-1.88118e-07
-7.89267e-09
-1.812e-07
-9.40305e-09
-1.73233e-07
-1.08439e-08
-1.64287e-07
-1.21909e-08
-1.54446e-07
-1.34201e-08
-1.43815e-07
-1.45087e-08
-1.32509e-07
-1.54357e-08
-1.2066e-07
-1.61823e-08
-1.0841e-07
-1.67327e-08
-9.59091e-08
-1.70744e-08
-8.33147e-08
-1.71988e-08
-7.0787e-08
-1.71015e-08
-5.84863e-08
-1.67824e-08
-4.65696e-08
-1.62459e-08
-3.51881e-08
-1.55008e-08
-2.44832e-08
-1.45601e-08
-1.45845e-08
-1.34408e-08
-5.60688e-09
-1.21636e-08
2.35196e-09
-1.07521e-08
9.21312e-09
-9.23267e-09
1.49182e-08
-7.63362e-09
1.94305e-08
-5.98507e-09
2.27363e-08
-4.31836e-09
2.48455e-08
-2.66603e-09
2.57927e-08
-1.06178e-09
2.56384e-08
4.59082e-10
2.44706e-08
1.85908e-09
2.24069e-08
3.09714e-09
1.95983e-08
4.12725e-09
1.62327e-08
4.89632e-09
1.25404e-08
5.34226e-09
8.79774e-09
5.39348e-09
5.32701e-09
4.97299e-09
2.48474e-09
4.01078e-09
6.21004e-10
2.48795e-09
6.3743e-10
4.10424e-10
-1.17905e-09
7.22705e-10
-1.44083e-09
4.11108e-10
-4.0214e-10
-8.38613e-10
1.38848e-09
-3.20085e-09
3.56591e-09
-6.74467e-09
5.88124e-09
-1.14653e-08
8.17378e-09
-1.73109e-08
1.03471e-08
-2.42024e-08
1.23496e-08
-3.20473e-08
1.41596e-08
-4.075e-08
1.5775e-08
-5.02174e-08
1.72057e-08
-6.03633e-08
1.84679e-08
-7.11094e-08
1.95802e-08
-8.23856e-08
2.05611e-08
-9.41292e-08
2.14267e-08
-1.06283e-07
2.21897e-08
-1.18795e-07
2.28588e-08
-1.31614e-07
2.34384e-08
-1.44688e-07
2.39286e-08
-1.57963e-07
2.43254e-08
-1.71383e-07
2.46215e-08
-1.84885e-07
2.48064e-08
-1.98399e-07
2.48674e-08
-2.11848e-07
2.479e-08
-2.25148e-07
2.45589e-08
-2.38205e-07
2.41583e-08
-2.50921e-07
2.35726e-08
-2.63187e-07
2.27876e-08
-2.74888e-07
2.17901e-08
-2.85908e-07
2.05696e-08
-2.96122e-07
1.9118e-08
-3.05408e-07
1.74305e-08
-3.13639e-07
1.55059e-08
-3.20695e-07
1.33472e-08
-3.26457e-07
1.09619e-08
-3.30816e-07
8.36208e-09
-3.33669e-07
5.56486e-09
-3.34929e-07
2.59234e-09
-3.3452e-07
-5.28322e-10
-3.32386e-07
-3.76539e-09
-3.28489e-07
-7.08219e-09
-3.22811e-07
-1.04382e-08
-3.15359e-07
-1.37892e-08
-3.06163e-07
-1.70882e-08
-2.9528e-07
-2.02863e-08
-2.82791e-07
-2.33333e-08
-2.68802e-07
-2.61793e-08
-2.53447e-07
-2.87755e-08
-2.3688e-07
-3.10754e-08
-2.1928e-07
-3.30364e-08
-2.00842e-07
-3.46202e-08
-1.8178e-07
-3.57947e-08
-1.6232e-07
-3.65345e-08
-1.42696e-07
-3.68221e-08
-1.2315e-07
-3.66481e-08
-1.0392e-07
-3.60123e-08
-8.52429e-08
-3.49231e-08
-6.73456e-08
-3.3398e-08
-5.04422e-08
-3.14635e-08
-3.47292e-08
-2.91538e-08
-2.03819e-08
-2.65109e-08
-7.55081e-09
-2.35832e-08
3.64144e-09
-2.04249e-08
1.31026e-08
-1.70948e-08
2.07732e-08
-1.36556e-08
2.6628e-08
-1.01732e-08
3.06781e-08
-6.71614e-09
3.29722e-08
-3.35588e-09
3.35985e-08
-1.67176e-10
3.26863e-08
2.77122e-09
3.04093e-08
5.37416e-09
2.69879e-08
7.5487e-09
2.26926e-08
9.19154e-09
1.78474e-08
1.01876e-08
1.28294e-08
1.04115e-08
8.06549e-09
9.73685e-09
4.01894e-09
8.05733e-09
1.16606e-09
5.34083e-09
1.80348e-09
1.56217e-10
-1.33525e-09
-1.75687e-10
-1.10892e-09
-1.48823e-09
9.10424e-10
-4.08097e-09
3.98118e-09
-8.11799e-09
7.60294e-09
-1.36611e-08
1.14243e-08
-2.06975e-08
1.52102e-08
-2.91644e-08
1.88141e-08
-3.89682e-08
2.21534e-08
-4.99992e-08
2.51906e-08
-6.21422e-08
2.7918e-08
-7.52839e-08
3.03474e-08
-8.93169e-08
3.25008e-08
-1.04142e-07
3.44051e-08
-1.19668e-07
3.6087e-08
-1.35811e-07
3.75703e-08
-1.52495e-07
3.88738e-08
-1.69646e-07
4.00098e-08
-1.87192e-07
4.09841e-08
-2.05059e-07
4.17958e-08
-2.23172e-07
4.24377e-08
-2.41447e-07
4.28969e-08
-2.59797e-07
4.3156e-08
-2.78123e-07
4.31939e-08
-2.9632e-07
4.29869e-08
-3.14271e-07
4.25098e-08
-3.3185e-07
4.17372e-08
-3.48922e-07
4.06444e-08
-3.65343e-07
3.92086e-08
-3.80962e-07
3.74097e-08
-3.95624e-07
3.52315e-08
-4.09169e-07
3.26625e-08
-4.21434e-07
2.96964e-08
-4.32262e-07
2.63336e-08
-4.41496e-07
2.2581e-08
-4.48987e-07
1.84531e-08
-4.54597e-07
1.3972e-08
-4.582e-07
9.1682e-09
-4.59688e-07
4.07996e-09
-4.5897e-07
-1.24621e-09
-4.55979e-07
-6.75629e-09
-4.50673e-07
-1.23888e-08
-4.43035e-07
-1.80759e-08
-4.3308e-07
-2.37444e-08
-4.20851e-07
-2.93165e-08
-4.06426e-07
-3.47116e-08
-3.89912e-07
-3.98478e-08
-3.71448e-07
-4.46432e-08
-3.51205e-07
-4.90183e-08
-3.29383e-07
-5.28975e-08
-3.06208e-07
-5.6211e-08
-2.81931e-07
-5.88969e-08
-2.56824e-07
-6.09026e-08
-2.31171e-07
-6.21868e-08
-2.05273e-07
-6.27204e-08
-1.79433e-07
-6.24878e-08
-1.53958e-07
-6.14878e-08
-1.29147e-07
-5.97336e-08
-1.05292e-07
-5.72529e-08
-8.26679e-08
-5.40879e-08
-6.15277e-08
-5.0294e-08
-4.20995e-08
-4.59391e-08
-2.45802e-08
-4.11025e-08
-9.13239e-09
-3.58727e-08
4.11983e-09
-3.0347e-08
1.50936e-08
-2.46294e-08
2.37498e-08
-1.88294e-08
3.00958e-08
-1.30621e-08
3.41868e-08
-7.44689e-09
3.61284e-08
-2.10877e-09
3.60785e-08
2.82113e-09
3.42492e-08
7.20348e-09
3.09091e-08
1.08888e-08
2.63853e-08
1.37153e-08
2.10642e-08
1.55087e-08
1.53907e-08
1.6085e-08
9.86518e-09
1.52623e-08
5.03861e-09
1.28839e-08
1.51326e-09
8.86619e-09
3.31675e-09
-1.88934e-10
-1.14635e-09
-1.37347e-09
7.56786e-11
-3.95572e-09
3.49266e-09
-8.17999e-09
8.20546e-09
-1.41725e-08
1.35955e-08
-2.19684e-08
1.92202e-08
-3.15349e-08
2.47767e-08
-4.27924e-08
3.00715e-08
-5.56316e-08
3.49925e-08
-6.99272e-08
3.94862e-08
-8.55484e-08
4.35393e-08
-1.02365e-07
4.71645e-08
-1.20254e-07
5.03897e-08
-1.39099e-07
5.32493e-08
-1.5879e-07
5.57784e-08
-1.79227e-07
5.80077e-08
-2.00315e-07
5.99615e-08
-2.21961e-07
6.16552e-08
-2.44072e-07
6.30951e-08
-2.66554e-07
6.4278e-08
-2.89308e-07
6.51921e-08
-3.12229e-07
6.58178e-08
-3.35202e-07
6.6129e-08
-3.58103e-07
6.60946e-08
-3.80796e-07
6.56803e-08
-4.03136e-07
6.48498e-08
-4.24965e-07
6.35666e-08
-4.46117e-07
6.17961e-08
-4.66415e-07
5.95061e-08
-4.85674e-07
5.66693e-08
-5.03707e-07
5.32641e-08
-5.2032e-07
4.9276e-08
-5.35323e-07
4.46987e-08
-5.48524e-07
3.95351e-08
-5.59742e-07
3.37984e-08
-5.68801e-07
2.75126e-08
-5.75542e-07
2.07128e-08
-5.7982e-07
1.3446e-08
-5.8151e-07
5.7705e-09
-5.80513e-07
-2.2437e-09
-5.76753e-07
-1.0516e-08
-5.70186e-07
-1.89555e-08
-5.608e-07
-2.74624e-08
-5.48615e-07
-3.59293e-08
-5.33688e-07
-4.42431e-08
-5.16113e-07
-5.22866e-08
-4.9602e-07
-5.99409e-08
-4.73576e-07
-6.70877e-08
-4.48982e-07
-7.36122e-08
-4.22474e-07
-7.94051e-08
-3.94319e-07
-8.43659e-08
-3.64811e-07
-8.84048e-08
-3.34268e-07
-9.14459e-08
-3.03026e-07
-9.34287e-08
-2.71436e-07
-9.43107e-08
-2.39856e-07
-9.40682e-08
-2.08645e-07
-9.26981e-08
-1.78161e-07
-9.02182e-08
-1.48747e-07
-8.6667e-08
-1.20731e-07
-8.21039e-08
-9.44166e-08
-7.66079e-08
-7.00795e-08
-7.02763e-08
-4.79589e-08
-6.3223e-08
-2.8255e-08
-5.55767e-08
-1.11233e-08
-4.74787e-08
3.3285e-09
-3.90812e-08
1.50444e-08
-3.05453e-08
2.40224e-08
-2.20401e-08
3.03175e-08
-1.3742e-08
3.40434e-08
-5.83462e-09
3.53742e-08
1.49025e-09
3.45467e-08
8.03099e-09
3.1861e-08
1.35745e-08
2.76817e-08
1.78946e-08
2.24381e-08
2.07523e-08
1.66236e-08
2.18995e-08
1.07964e-08
2.10896e-08
5.58276e-09
1.80975e-08
1.69431e-09
1.27546e-08
5.01107e-09
-5.8257e-10
-5.63784e-10
-2.75338e-09
2.24647e-09
-6.79355e-09
7.53286e-09
-1.28636e-08
1.42756e-08
-2.10306e-08
2.17625e-08
-3.12866e-08
2.94762e-08
-4.35673e-08
3.70574e-08
-5.7769e-08
4.42732e-08
-7.37632e-08
5.09868e-08
-9.14085e-08
5.71315e-08
-1.10559e-07
6.26898e-08
-1.31071e-07
6.76765e-08
-1.52807e-07
7.21251e-08
-1.75635e-07
7.60778e-08
-1.99433e-07
7.95768e-08
-2.24086e-07
8.26598e-08
-2.49479e-07
8.53552e-08
-2.75505e-07
8.76807e-08
-3.02051e-07
8.96415e-08
-3.29004e-07
9.12312e-08
-3.56244e-07
9.24318e-08
-3.83642e-07
9.32154e-08
-4.11059e-07
9.3546e-08
-4.38345e-07
9.3381e-08
-4.65339e-07
9.26741e-08
-4.91866e-07
9.13769e-08
-5.17741e-07
8.94412e-08
-5.42766e-07
8.68215e-08
-5.66737e-07
8.34765e-08
-5.89439e-07
7.93715e-08
-6.10655e-07
7.44801e-08
-6.30164e-07
6.87856e-08
-6.47748e-07
6.22829e-08
-6.63193e-07
5.49794e-08
-6.76291e-07
4.68965e-08
-6.86848e-07
3.80698e-08
-6.94686e-07
2.85503e-08
-6.99644e-07
1.84044e-08
-7.01587e-07
7.71381e-09
-7.00406e-07
-3.42488e-09
-6.96021e-07
-1.49009e-08
-6.88387e-07
-2.65902e-08
-6.77492e-07
-3.83573e-08
-6.63364e-07
-5.0057e-08
-6.4607e-07
-6.15368e-08
-6.25718e-07
-7.26391e-08
-6.02454e-07
-8.32044e-08
-5.76468e-07
-9.30743e-08
-5.47985e-07
-1.02095e-07
-5.17271e-07
-1.10119e-07
-4.84623e-07
-1.17013e-07
-4.50372e-07
-1.22656e-07
-4.14873e-07
-1.26945e-07
-3.78503e-07
-1.29798e-07
-3.41658e-07
-1.31156e-07
-3.04739e-07
-1.30987e-07
-2.68155e-07
-1.29282e-07
-2.32309e-07
-1.26065e-07
-1.97593e-07
-1.21383e-07
-1.64383e-07
-1.15314e-07
-1.33028e-07
-1.07963e-07
-1.03847e-07
-9.9457e-08
-7.71212e-08
-8.99487e-08
-5.30876e-08
-7.96103e-08
-3.19341e-08
-6.86322e-08
-1.37952e-08
-5.72201e-08
1.25216e-09
-4.55927e-08
1.3192e-08
-3.398e-08
2.2072e-08
-2.2622e-08
2.80056e-08
-1.17682e-08
3.11738e-08
-1.67796e-09
3.18264e-08
7.3784e-09
3.02826e-08
1.51182e-08
2.69319e-08
2.12454e-08
2.22333e-08
2.54508e-08
1.67172e-08
2.74156e-08
1.09881e-08
2.68187e-08
5.73384e-09
2.33517e-08
1.74897e-09
1.67395e-08
6.76004e-09
-1.0024e-09
4.38617e-10
-4.24504e-09
5.48912e-09
-9.87201e-09
1.31598e-08
-1.79439e-08
2.23474e-08
-2.84522e-08
3.22708e-08
-4.13327e-08
4.23568e-08
-5.64795e-08
5.22041e-08
-7.37576e-08
6.15513e-08
-9.30148e-08
7.02441e-08
-1.14091e-07
7.82078e-08
-1.36825e-07
8.5424e-08
-1.6106e-07
9.19115e-08
-1.86646e-07
9.77106e-08
-2.13439e-07
1.02871e-07
-2.41305e-07
1.07442e-07
-2.70113e-07
1.11468e-07
-2.99738e-07
1.1498e-07
-3.30054e-07
1.17997e-07
-3.60934e-07
1.20521e-07
-3.92245e-07
1.22542e-07
-4.23847e-07
1.24034e-07
-4.5559e-07
1.24958e-07
-4.87313e-07
1.25269e-07
-5.18842e-07
1.2491e-07
-5.49989e-07
1.23822e-07
-5.80556e-07
1.21944e-07
-6.1033e-07
1.19215e-07
-6.39087e-07
1.15579e-07
-6.66595e-07
1.10985e-07
-6.92616e-07
1.05392e-07
-7.16904e-07
9.87686e-08
-7.39217e-07
9.1098e-08
-7.59311e-07
8.23769e-08
-7.7695e-07
7.26191e-08
-7.9191e-07
6.18557e-08
-8.03976e-07
5.01365e-08
-8.12956e-07
3.75303e-08
-8.18677e-07
2.41255e-08
-8.20993e-07
1.00295e-08
-8.19786e-07
-4.63156e-09
-8.14973e-07
-1.97141e-08
-8.06505e-07
-3.50582e-08
-7.94373e-07
-5.04899e-08
-7.78606e-07
-6.58232e-08
-7.5928e-07
-8.08633e-08
-7.3651e-07
-9.54093e-08
-7.10456e-07
-1.09258e-07
-6.81322e-07
-1.22208e-07
-6.49355e-07
-1.34062e-07
-6.1484e-07
-1.44635e-07
-5.781e-07
-1.53753e-07
-5.39494e-07
-1.61262e-07
-4.99409e-07
-1.6703e-07
-4.58256e-07
-1.7095e-07
-4.16468e-07
-1.72945e-07
-3.74487e-07
-1.72968e-07
-3.32761e-07
-1.71008e-07
-2.91738e-07
-1.67088e-07
-2.51854e-07
-1.61267e-07
-2.13529e-07
-1.53639e-07
-1.77158e-07
-1.44334e-07
-1.43102e-07
-1.33513e-07
-1.11684e-07
-1.21368e-07
-8.31768e-08
-1.08117e-07
-5.78049e-08
-9.40042e-08
-3.57322e-08
-7.92928e-08
-1.70605e-08
-6.42643e-08
-1.82519e-09
-4.92153e-08
1.0008e-08
-3.44552e-08
1.85453e-08
-2.03055e-08
2.39663e-08
-7.099e-09
2.65254e-08
4.81935e-09
2.65518e-08
1.50918e-08
2.44501e-08
2.3347e-08
2.0701e-08
2.92e-08
1.58624e-08
3.22541e-08
1.05753e-08
3.21058e-08
5.57443e-09
2.83526e-08
1.71018e-09
2.06038e-08
8.47021e-09
-1.43691e-09
1.87554e-09
-5.80502e-09
9.85724e-09
-1.31067e-08
2.04615e-08
-2.32918e-08
3.25325e-08
-3.62654e-08
4.52444e-08
-5.1897e-08
5.79885e-08
-7.00304e-08
7.03375e-08
-9.04928e-08
8.20137e-08
-1.13104e-07
9.28552e-08
-1.37682e-07
1.02786e-07
-1.6405e-07
1.11792e-07
-1.92037e-07
1.19898e-07
-2.21481e-07
1.27155e-07
-2.52229e-07
1.33619e-07
-2.84134e-07
1.39348e-07
-3.17055e-07
1.4439e-07
-3.50854e-07
1.4878e-07
-3.85393e-07
1.52535e-07
-4.20527e-07
1.55656e-07
-4.56108e-07
1.58124e-07
-4.91979e-07
1.59904e-07
-5.27968e-07
1.60948e-07
-5.63895e-07
1.61196e-07
-5.99563e-07
1.60578e-07
-6.34763e-07
1.59022e-07
-6.69271e-07
1.56452e-07
-7.02851e-07
1.52795e-07
-7.35256e-07
1.47984e-07
-7.66229e-07
1.41958e-07
-7.95509e-07
1.34671e-07
-8.22829e-07
1.26089e-07
-8.47923e-07
1.16192e-07
-8.70529e-07
1.04983e-07
-8.90392e-07
9.24823e-08
-9.07269e-07
7.87326e-08
-9.20932e-07
6.37993e-08
-9.31173e-07
4.77712e-08
-9.37807e-07
3.07601e-08
-9.40679e-07
1.29013e-08
-9.39663e-07
-5.64785e-09
-9.34668e-07
-2.47089e-08
-9.25642e-07
-4.40841e-08
-9.12573e-07
-6.35588e-08
-8.95492e-07
-8.29044e-08
-8.74474e-07
-1.01881e-07
-8.4964e-07
-1.20243e-07
-8.21159e-07
-1.3774e-07
-7.89242e-07
-1.54125e-07
-7.54148e-07
-1.69155e-07
-7.1618e-07
-1.82603e-07
-6.75681e-07
-1.94253e-07
-6.33029e-07
-2.03914e-07
-5.88639e-07
-2.1142e-07
-5.42952e-07
-2.16638e-07
-4.9643e-07
-2.19466e-07
-4.49554e-07
-2.19844e-07
-4.02811e-07
-2.17751e-07
-3.56687e-07
-2.13211e-07
-3.11664e-07
-2.0629e-07
-2.68204e-07
-1.97099e-07
-2.26746e-07
-1.85792e-07
-1.87696e-07
-1.72563e-07
-1.51418e-07
-1.57645e-07
-1.18229e-07
-1.41306e-07
-8.83883e-08
-1.23845e-07
-6.20947e-08
-1.05586e-07
-3.94793e-08
-8.68797e-08
-2.0602e-08
-6.80926e-08
-5.44779e-09
-4.96095e-08
6.07601e-09
-3.18293e-08
1.41411e-08
-1.51641e-08
1.89993e-08
-3.88475e-11
2.0983e-08
1.31081e-08
2.05056e-08
2.38245e-08
1.80618e-08
3.16437e-08
1.42305e-08
3.60855e-08
9.67934e-09
3.66569e-08
5.1757e-09
3.28563e-08
1.6037e-09
2.41758e-08
1.00739e-08
-1.87976e-09
3.75531e-09
-7.40708e-09
1.53846e-08
-1.64419e-08
2.94964e-08
-2.88176e-08
4.49082e-08
-4.43456e-08
6.07724e-08
-6.28215e-08
7.64644e-08
-8.40323e-08
9.15483e-08
-1.07762e-07
1.05744e-07
-1.33798e-07
1.18891e-07
-1.61936e-07
1.30923e-07
-1.91978e-07
1.41834e-07
-2.23741e-07
1.51662e-07
-2.57052e-07
1.60466e-07
-2.91747e-07
1.68314e-07
-3.27671e-07
1.75271e-07
-3.64672e-07
1.81391e-07
-4.02601e-07
1.86709e-07
-4.41308e-07
1.91242e-07
-4.80637e-07
1.94984e-07
-5.20423e-07
1.9791e-07
-5.60493e-07
1.99973e-07
-6.00658e-07
2.01114e-07
-6.40719e-07
2.01256e-07
-6.8046e-07
2.00318e-07
-7.19649e-07
1.98211e-07
-7.58043e-07
1.94846e-07
-7.95384e-07
1.90136e-07
-8.31404e-07
1.84003e-07
-8.65825e-07
1.7638e-07
-8.98364e-07
1.67211e-07
-9.28736e-07
1.56461e-07
-9.56656e-07
1.44112e-07
-9.81842e-07
1.3017e-07
-1.00402e-06
1.14664e-07
-1.02294e-06
9.76509e-08
-1.03835e-06
7.92116e-08
-1.05004e-06
5.9456e-08
-1.0578e-06
3.85209e-08
-1.06147e-06
1.65704e-08
-1.06091e-06
-6.20553e-09
-1.05603e-06
-2.95926e-08
-1.04676e-06
-5.33539e-08
-1.03308e-06
-7.72328e-08
-1.01503e-06
-1.00956e-07
-9.92676e-07
-1.24238e-07
-9.66133e-07
-1.46785e-07
-9.35575e-07
-1.68299e-07
-9.01217e-07
-1.88483e-07
-8.63325e-07
-2.07047e-07
-8.22211e-07
-2.23717e-07
-7.7823e-07
-2.38233e-07
-7.31781e-07
-2.50363e-07
-6.83298e-07
-2.59904e-07
-6.33247e-07
-2.66689e-07
-5.82121e-07
-2.70592e-07
-5.30432e-07
-2.71533e-07
-4.78705e-07
-2.69478e-07
-4.27467e-07
-2.64449e-07
-3.77242e-07
-2.56516e-07
-3.28537e-07
-2.45804e-07
-2.81839e-07
-2.32491e-07
-2.37598e-07
-2.16804e-07
-1.96226e-07
-1.99017e-07
-1.58083e-07
-1.79449e-07
-1.23471e-07
-1.58457e-07
-9.26279e-08
-1.3643e-07
-6.57185e-08
-1.13789e-07
-4.28332e-08
-9.0978e-08
-2.39815e-08
-6.84612e-08
-9.09021e-09
-4.67205e-08
1.99855e-09
-2.62528e-08
9.52859e-09
-7.56888e-09
1.38299e-08
8.80677e-09
1.5319e-08
2.23354e-08
1.44995e-08
3.24632e-08
1.19642e-08
3.86208e-08
8.3997e-09
4.02214e-08
4.59396e-09
3.6662e-08
1.44842e-09
2.73213e-08
1.15223e-08
-2.32723e-09
6.08253e-09
-9.0343e-09
2.20917e-08
-1.98396e-08
4.03017e-08
-3.44568e-08
5.95255e-08
-5.25993e-08
7.89148e-08
-7.39839e-08
9.78491e-08
-9.83358e-08
1.159e-07
-1.25392e-07
1.328e-07
-1.54904e-07
1.48404e-07
-1.86641e-07
1.6266e-07
-2.20386e-07
1.7558e-07
-2.55941e-07
1.87217e-07
-2.93123e-07
1.97647e-07
-3.31757e-07
2.06948e-07
-3.71681e-07
2.15194e-07
-4.12734e-07
2.22444e-07
-4.54758e-07
2.28733e-07
-4.97592e-07
2.34076e-07
-5.41069e-07
2.38462e-07
-5.85012e-07
2.41853e-07
-6.29233e-07
2.44194e-07
-6.73528e-07
2.45409e-07
-7.1768e-07
2.45409e-07
-7.61456e-07
2.44094e-07
-8.04607e-07
2.41362e-07
-8.4687e-07
2.37108e-07
-8.87968e-07
2.31234e-07
-9.27615e-07
2.2365e-07
-9.65514e-07
2.14279e-07
-1.00136e-06
2.03061e-07
-1.03486e-06
1.89959e-07
-1.06571e-06
1.74956e-07
-1.0936e-06
1.58063e-07
-1.11825e-06
1.39319e-07
-1.1394e-06
1.18793e-07
-1.15677e-06
9.65847e-08
-1.17014e-06
7.28244e-08
-1.17929e-06
4.76747e-08
-1.18405e-06
2.1329e-08
-1.18427e-06
-5.98997e-09
-1.17983e-06
-3.40313e-08
-1.17066e-06
-6.25183e-08
-1.15674e-06
-9.11516e-08
-1.13809e-06
-1.19613e-07
-1.11476e-06
-1.47569e-07
-1.08687e-06
-1.74676e-07
-1.05458e-06
-2.00586e-07
-1.01811e-06
-2.24951e-07
-9.77728e-07
-2.47431e-07
-9.33745e-07
-2.677e-07
-8.86527e-07
-2.85451e-07
-8.36485e-07
-3.00406e-07
-7.84069e-07
-3.1232e-07
-7.29768e-07
-3.2099e-07
-6.74102e-07
-3.26258e-07
-6.17615e-07
-3.28019e-07
-5.60869e-07
-3.26225e-07
-5.04431e-07
-3.20887e-07
-4.48869e-07
-3.12078e-07
-3.94738e-07
-2.99934e-07
-3.42574e-07
-2.84655e-07
-2.92879e-07
-2.66499e-07
-2.46114e-07
-2.45782e-07
-2.02689e-07
-2.22874e-07
-1.62953e-07
-1.98192e-07
-1.27189e-07
-1.72195e-07
-9.56017e-08
-1.45376e-07
-6.83173e-08
-1.18262e-07
-4.53761e-08
-9.14024e-08
-2.67298e-08
-6.53669e-08
-1.22393e-08
-4.07432e-08
-1.67423e-09
-1.8134e-08
5.28841e-09
1.84412e-09
9.06361e-09
1.85602e-08
1.0159e-08
3.13678e-08
9.1763e-09
3.96035e-08
6.8138e-09
4.25839e-08
3.87155e-09
3.96042e-08
1.25771e-09
2.99352e-08
1.27801e-08
-2.77693e-09
8.85948e-09
-1.06749e-08
2.99896e-08
-2.32717e-08
5.28984e-08
-4.01604e-08
7.64142e-08
-6.09534e-08
9.97079e-08
-8.52857e-08
1.22181e-07
-1.12818e-07
1.43432e-07
-1.43236e-07
1.63218e-07
-1.76254e-07
1.81422e-07
-2.11611e-07
1.98017e-07
-2.49074e-07
2.13042e-07
-2.88427e-07
2.2657e-07
-3.29474e-07
2.38695e-07
-3.72036e-07
2.4951e-07
-4.15939e-07
2.59098e-07
-4.61018e-07
2.67522e-07
-5.07106e-07
2.74821e-07
-5.54034e-07
2.81004e-07
-6.01624e-07
2.86052e-07
-6.49689e-07
2.89918e-07
-6.98028e-07
2.92533e-07
-7.46425e-07
2.93806e-07
-7.94648e-07
2.93631e-07
-8.42448e-07
2.91894e-07
-8.89561e-07
2.88475e-07
-9.35707e-07
2.83254e-07
-9.80593e-07
2.76121e-07
-1.02392e-06
2.66973e-07
-1.06536e-06
2.55727e-07
-1.10462e-06
2.42317e-07
-1.14136e-06
2.26703e-07
-1.17528e-06
2.0887e-07
-1.20605e-06
1.88837e-07
-1.23338e-06
1.6665e-07
-1.25698e-06
1.42391e-07
-1.27657e-06
1.16178e-07
-1.29191e-06
8.81633e-08
-1.30277e-06
5.85336e-08
-1.30896e-06
2.75115e-08
-1.3103e-06
-4.64708e-09
-1.30667e-06
-3.76554e-08
-1.298e-06
-7.11966e-08
-1.28422e-06
-1.04929e-07
-1.26534e-06
-1.38487e-07
-1.24142e-06
-1.71491e-07
-1.21255e-06
-2.03545e-07
-1.17889e-06
-2.34249e-07
-1.14064e-06
-2.63201e-07
-1.09806e-06
-2.90008e-07
-1.05147e-06
-3.14288e-07
-1.00124e-06
-3.35684e-07
-9.47782e-07
-3.53865e-07
-8.91561e-07
-3.68541e-07
-8.33086e-07
-3.79464e-07
-7.72903e-07
-3.86441e-07
-7.11585e-07
-3.89336e-07
-6.49732e-07
-3.88079e-07
-5.87953e-07
-3.82666e-07
-5.26862e-07
-3.73168e-07
-4.67066e-07
-3.5973e-07
-4.09154e-07
-3.42567e-07
-3.53684e-07
-3.21969e-07
-3.01172e-07
-2.98293e-07
-2.52086e-07
-2.71961e-07
-2.06827e-07
-2.43451e-07
-1.65729e-07
-2.13293e-07
-1.29045e-07
-1.8206e-07
-9.69428e-08
-1.50365e-07
-6.94993e-08
-1.18846e-07
-4.66968e-08
-8.81693e-08
-2.84209e-08
-5.90192e-08
-1.44587e-08
-3.20962e-08
-4.49898e-09
-8.11557e-09
1.86773e-09
1.21935e-08
5.14909e-09
2.80864e-08
5.95105e-09
3.88016e-08
4.97892e-09
4.3556e-08
3.0391e-09
4.15441e-08
1.04085e-09
3.19334e-08
1.38209e-08
-3.227e-09
1.20865e-08
-1.23195e-08
3.90821e-08
-2.67159e-08
6.72948e-08
-4.58883e-08
9.55867e-08
-6.93472e-08
1.23167e-07
-9.66438e-08
1.49478e-07
-1.27371e-07
1.7416e-07
-1.61165e-07
1.97011e-07
-1.97698e-07
2.17955e-07
-2.36681e-07
2.37001e-07
-2.77858e-07
2.54219e-07
-3.21e-07
2.69712e-07
-3.659e-07
2.83595e-07
-4.12369e-07
2.95978e-07
-4.60228e-07
3.06957e-07
-5.09305e-07
3.16599e-07
-5.59427e-07
3.24943e-07
-6.10418e-07
3.31995e-07
-6.62092e-07
3.37726e-07
-7.14254e-07
3.4208e-07
-7.66691e-07
3.4497e-07
-8.19176e-07
3.46291e-07
-8.71466e-07
3.45921e-07
-9.23298e-07
3.43726e-07
-9.74394e-07
3.39571e-07
-1.02446e-06
3.33322e-07
-1.07319e-06
3.24853e-07
-1.12027e-06
3.14052e-07
-1.16537e-06
3.00827e-07
-1.20816e-06
2.85106e-07
-1.24831e-06
2.66847e-07
-1.28548e-06
2.4604e-07
-1.31934e-06
2.22704e-07
-1.34959e-06
1.96897e-07
-1.37591e-06
1.68715e-07
-1.39803e-06
1.3829e-07
-1.41566e-06
1.05796e-07
-1.42857e-06
7.14451e-08
-1.43655e-06
3.54867e-08
-1.4394e-06
-1.791e-09
-1.43699e-06
-4.0066e-08
-1.42921e-06
-7.89819e-08
-1.41598e-06
-1.18154e-07
-1.3973e-06
-1.57173e-07
-1.37318e-06
-1.95606e-07
-1.34372e-06
-2.33009e-07
-1.30904e-06
-2.68926e-07
-1.26934e-06
-3.02899e-07
-1.22487e-06
-3.34477e-07
-1.17594e-06
-3.63221e-07
-1.12291e-06
-3.88715e-07
-1.0662e-06
-4.10575e-07
-1.00629e-06
-4.28454e-07
-9.43693e-07
-4.42056e-07
-8.7899e-07
-4.51145e-07
-8.12781e-07
-4.55546e-07
-7.457e-07
-4.55159e-07
-6.78403e-07
-4.49963e-07
-6.11553e-07
-4.40019e-07
-5.45811e-07
-4.25472e-07
-4.81824e-07
-4.06554e-07
-4.20212e-07
-3.83581e-07
-3.61556e-07
-3.56949e-07
-3.06384e-07
-3.27133e-07
-2.55161e-07
-2.94674e-07
-2.08279e-07
-2.60175e-07
-1.66044e-07
-2.24295e-07
-1.28675e-07
-1.87733e-07
-9.62921e-08
-1.51229e-07
-6.89141e-08
-1.15547e-07
-4.64567e-08
-8.14767e-08
-2.87298e-08
-4.98232e-08
-1.5438e-08
-2.14074e-08
-6.18108e-09
2.93655e-09
-4.54918e-10
2.23603e-08
2.34748e-09
3.59992e-08
2.93505e-09
4.29684e-08
2.11766e-09
4.23614e-08
8.04029e-10
3.3247e-08
1.46249e-08
-3.67564e-09
1.57621e-08
-1.39598e-08
4.93662e-08
-3.01525e-08
8.34876e-08
-5.16056e-08
1.1704e-07
-7.77271e-08
1.49288e-07
-1.07984e-07
1.79735e-07
-1.41902e-07
2.08077e-07
-1.79062e-07
2.34172e-07
-2.19099e-07
2.57992e-07
-2.61694e-07
2.79595e-07
-3.06567e-07
2.99093e-07
-3.53475e-07
3.1662e-07
-4.02201e-07
3.32321e-07
-4.52548e-07
3.46325e-07
-5.04331e-07
3.5874e-07
-5.57374e-07
3.69641e-07
-6.11497e-07
3.79067e-07
-6.66521e-07
3.87018e-07
-7.22252e-07
3.93458e-07
-7.78488e-07
3.98315e-07
-8.35009e-07
4.01491e-07
-8.91578e-07
4.0286e-07
-9.47941e-07
4.02284e-07
-1.00383e-06
3.99612e-07
-1.05895e-06
3.9469e-07
-1.11299e-06
3.87369e-07
-1.16565e-06
3.77509e-07
-1.21658e-06
3.64988e-07
-1.26546e-06
3.49704e-07
-1.31194e-06
3.31581e-07
-1.35566e-06
3.10574e-07
-1.3963e-06
2.86672e-07
-1.43349e-06
2.59902e-07
-1.46693e-06
2.30329e-07
-1.49627e-06
1.98061e-07
-1.52123e-06
1.63245e-07
-1.5415e-06
1.26074e-07
-1.55684e-06
8.6782e-08
-1.567e-06
4.5647e-08
-1.57178e-06
2.98677e-09
-1.571e-06
-4.08425e-08
-1.56454e-06
-8.54464e-08
-1.55229e-06
-1.30398e-07
-1.53422e-06
-1.75243e-07
-1.51033e-06
-2.19499e-07
-1.48067e-06
-2.62668e-07
-1.44536e-06
-3.04239e-07
-1.40456e-06
-3.43696e-07
-1.35851e-06
-3.80526e-07
-1.30751e-06
-4.14227e-07
-1.2519e-06
-4.44321e-07
-1.19211e-06
-4.70361e-07
-1.12863e-06
-4.91942e-07
-1.06197e-06
-5.08709e-07
-9.92745e-07
-5.20373e-07
-9.21575e-07
-5.26715e-07
-8.49136e-07
-5.27598e-07
-7.76127e-07
-5.22972e-07
-7.03265e-07
-5.12881e-07
-6.31269e-07
-4.97467e-07
-5.60852e-07
-4.76971e-07
-4.92701e-07
-4.51731e-07
-4.27468e-07
-4.22183e-07
-3.65751e-07
-3.8885e-07
-3.08087e-07
-3.52338e-07
-2.54933e-07
-3.13329e-07
-2.06661e-07
-2.72567e-07
-1.63546e-07
-2.30848e-07
-1.25759e-07
-1.89015e-07
-9.33646e-08
-1.47942e-07
-6.63129e-08
-1.08528e-07
-4.44423e-08
-7.16938e-08
-2.74777e-08
-3.8372e-08
-1.50317e-08
-9.50939e-09
-6.60683e-09
1.39354e-08
-1.59737e-09
3.09897e-08
7.07518e-10
4.06635e-08
1.12057e-09
4.19484e-08
5.51105e-10
3.38165e-08
1.5176e-08
-4.12095e-09
1.98831e-08
-1.55876e-08
6.08329e-08
-3.3563e-08
1.01463e-07
-5.72791e-08
1.40756e-07
-8.60426e-08
1.78052e-07
-1.19237e-07
2.12929e-07
-1.56319e-07
2.4516e-07
-1.96818e-07
2.74671e-07
-2.40328e-07
3.01501e-07
-2.86499e-07
3.25767e-07
-3.35033e-07
3.47626e-07
-3.85669e-07
3.67257e-07
-4.38181e-07
3.84833e-07
-4.92365e-07
4.00509e-07
-5.48031e-07
4.14406e-07
-6.04998e-07
4.26608e-07
-6.63085e-07
4.37154e-07
-7.22107e-07
4.4604e-07
-7.81866e-07
4.53218e-07
-8.42155e-07
4.58604e-07
-9.02747e-07
4.62083e-07
-9.63399e-07
4.63512e-07
-1.02385e-06
4.62734e-07
-1.08381e-06
4.59578e-07
-1.143e-06
4.53876e-07
-1.20109e-06
4.4546e-07
-1.25776e-06
4.34177e-07
-1.31267e-06
4.19894e-07
-1.36546e-06
4.02497e-07
-1.41579e-06
3.81907e-07
-1.46329e-06
3.58076e-07
-1.50761e-06
3.30992e-07
-1.54839e-06
3.00686e-07
-1.58529e-06
2.67229e-07
-1.61797e-06
2.3074e-07
-1.6461e-06
1.91379e-07
-1.66939e-06
1.49358e-07
-1.68754e-06
1.0493e-07
-1.70029e-06
5.83981e-08
-1.70741e-06
1.01081e-08
-1.7087e-06
-3.95508e-08
-1.704e-06
-9.01484e-08
-1.69318e-06
-1.41217e-07
-1.67617e-06
-1.92256e-07
-1.65293e-06
-2.42737e-07
-1.62349e-06
-2.92105e-07
-1.58794e-06
-3.39793e-07
-1.54641e-06
-3.85223e-07
-1.49912e-06
-4.27818e-07
-1.44634e-06
-4.67011e-07
-1.3884e-06
-5.02253e-07
-1.32574e-06
-5.3303e-07
-1.25881e-06
-5.58867e-07
-1.18817e-06
-5.79345e-07
-1.11443e-06
-5.94115e-07
-1.03825e-06
-6.029e-07
-9.60327e-07
-6.05519e-07
-8.81417e-07
-6.01882e-07
-8.0229e-07
-5.92009e-07
-7.23727e-07
-5.7603e-07
-6.46512e-07
-5.54187e-07
-5.71406e-07
-5.26837e-07
-4.9914e-07
-4.94449e-07
-4.30393e-07
-4.57596e-07
-3.65781e-07
-4.1695e-07
-3.05839e-07
-3.73271e-07
-2.51012e-07
-3.27394e-07
-2.01642e-07
-2.80218e-07
-1.57961e-07
-2.32697e-07
-1.20084e-07
-1.85819e-07
-8.80043e-08
-1.40608e-07
-6.1595e-08
-9.81031e-08
-4.06056e-08
-5.93614e-08
-2.46655e-08
-2.54495e-08
-1.32863e-08
2.55617e-09
-5.86538e-09
2.35688e-08
-1.69053e-09
3.64887e-08
5.47273e-11
4.02031e-08
2.84067e-10
3.35872e-08
1.54601e-08
-4.56079e-09
2.44439e-08
-1.71944e-08
7.34666e-08
-3.69281e-08
1.21197e-07
-6.2876e-08
1.66704e-07
-9.42444e-08
2.0942e-07
-1.30334e-07
2.49018e-07
-1.70535e-07
2.85361e-07
-2.14325e-07
3.18461e-07
-2.61257e-07
3.48433e-07
-3.10952e-07
3.75462e-07
-3.63091e-07
3.99765e-07
-4.174e-07
4.21566e-07
-4.73643e-07
4.41075e-07
-5.31608e-07
4.58474e-07
-5.91104e-07
4.73902e-07
-6.51945e-07
4.8745e-07
-7.13948e-07
4.99158e-07
-7.76926e-07
5.09017e-07
-8.40679e-07
5.1697e-07
-9.04993e-07
5.22919e-07
-9.6964e-07
5.26729e-07
-1.03437e-06
5.28242e-07
-1.09892e-06
5.2728e-07
-1.16299e-06
5.23654e-07
-1.22629e-06
5.17175e-07
-1.28849e-06
5.07662e-07
-1.34926e-06
4.94947e-07
-1.40825e-06
4.78882e-07
-1.4651e-06
4.59347e-07
-1.51945e-06
4.36254e-07
-1.57092e-06
4.0955e-07
-1.61916e-06
3.79225e-07
-1.66378e-06
3.45309e-07
-1.70443e-06
3.0788e-07
-1.74075e-06
2.67063e-07
-1.7724e-06
2.23032e-07
-1.79906e-06
1.76012e-07
-1.8204e-06
1.26275e-07
-1.83615e-06
7.41465e-08
-1.84604e-06
1.99971e-08
-1.84984e-06
-3.57534e-08
-1.84735e-06
-9.26405e-08
-1.83841e-06
-1.50158e-07
-1.8229e-06
-2.0776e-07
-1.80077e-06
-2.6487e-07
-1.77199e-06
-3.20881e-07
-1.73662e-06
-3.75165e-07
-1.69476e-06
-4.27083e-07
-1.64659e-06
-4.75988e-07
-1.59236e-06
-5.21243e-07
-1.53239e-06
-5.62226e-07
-1.46707e-06
-5.98344e-07
-1.39689e-06
-6.2905e-07
-1.32238e-06
-6.53849e-07
-1.24418e-06
-6.7232e-07
-1.16296e-06
-6.84122e-07
-1.07946e-06