/*--------------------------------*- C++ -*----------------------------------*\
  =========                 |
  \\      /  F ield         | OpenFOAM: The Open Source CFD Toolbox
   \\    /   O peration     | Website:  https://openfoam.org
    \\  /    A nd           | Version:  7
     \\/     M anipulation  |
\*---------------------------------------------------------------------------*/
FoamFile
{
    version     2.0;
    format      ascii;
    class       volVectorField;
    location    "1.15";
    object      U;
}
// * * * * * * * * * * * * * * * * * * * * * * * * * * * * * * * * * * * * * //

dimensions      [0 1 -1 0 0 0 0];

internalField   nonuniform List<vector> 
6400
(
(7.67804e-06 -7.92972e-06 0)
(3.0791e-05 -1.47988e-05 0)
(5.96081e-05 -1.38456e-05 0)
(7.84343e-05 -8.77027e-06 0)
(7.92497e-05 -1.97756e-06 0)
(5.92242e-05 5.30898e-06 0)
(1.76734e-05 1.24777e-05 0)
(-4.49462e-05 1.92287e-05 0)
(-0.000127498 2.54233e-05 0)
(-0.000228466 3.10036e-05 0)
(-0.000346141 3.59559e-05 0)
(-0.000478731 4.0289e-05 0)
(-0.000624423 4.40241e-05 0)
(-0.000781428 4.71887e-05 0)
(-0.000948009 4.98135e-05 0)
(-0.00112249 5.19298e-05 0)
(-0.00130327 5.35687e-05 0)
(-0.00148883 5.47599e-05 0)
(-0.00167771 5.55309e-05 0)
(-0.00186855 5.59075e-05 0)
(-0.00206003 5.59125e-05 0)
(-0.00225092 5.55669e-05 0)
(-0.00244005 5.4889e-05 0)
(-0.00262627 5.3895e-05 0)
(-0.00280853 5.25991e-05 0)
(-0.00298579 5.10138e-05 0)
(-0.00315706 4.91501e-05 0)
(-0.00332138 4.70177e-05 0)
(-0.00347784 4.46258e-05 0)
(-0.00362557 4.19829e-05 0)
(-0.0037637 3.90976e-05 0)
(-0.00389142 3.59786e-05 0)
(-0.00400795 3.26352e-05 0)
(-0.00411255 2.90776e-05 0)
(-0.00420452 2.53174e-05 0)
(-0.00428321 2.13675e-05 0)
(-0.00434802 1.72428e-05 0)
(-0.00439839 1.296e-05 0)
(-0.00443385 8.53792e-06 0)
(-0.00445399 3.9978e-06 0)
(-0.00445849 -6.36808e-07 0)
(-0.00444708 -5.33993e-06 0)
(-0.00441963 -1.00832e-05 0)
(-0.00437609 -1.48358e-05 0)
(-0.00431649 -1.95649e-05 0)
(-0.00424102 -2.42355e-05 0)
(-0.00414997 -2.88109e-05 0)
(-0.00404374 -3.32531e-05 0)
(-0.00392287 -3.75225e-05 0)
(-0.00378803 -4.15792e-05 0)
(-0.00364003 -4.53828e-05 0)
(-0.0034798 -4.8893e-05 0)
(-0.00330838 -5.20704e-05 0)
(-0.00312698 -5.48765e-05 0)
(-0.00293689 -5.72748e-05 0)
(-0.00273953 -5.92309e-05 0)
(-0.00253643 -6.07131e-05 0)
(-0.00232921 -6.16932e-05 0)
(-0.00211957 -6.21464e-05 0)
(-0.00190927 -6.20522e-05 0)
(-0.00170014 -6.13945e-05 0)
(-0.00149405 -6.01619e-05 0)
(-0.00129288 -5.83481e-05 0)
(-0.00109852 -5.59521e-05 0)
(-0.000912854 -5.29783e-05 0)
(-0.000737713 -4.94367e-05 0)
(-0.000574883 -4.53433e-05 0)
(-0.000426065 -4.07201e-05 0)
(-0.000292855 -3.55962e-05 0)
(-0.000176713 -3.00093e-05 0)
(-7.89183e-05 -2.40086e-05 0)
(-5.27496e-07 -1.76604e-05 0)
(5.7703e-05 -1.10577e-05 0)
(9.54233e-05 -4.33978e-06 0)
(0.000112868 2.26707e-06 0)
(0.000111135 8.38236e-06 0)
(9.25857e-05 1.33471e-05 0)
(6.17071e-05 1.59676e-05 0)
(2.76964e-05 1.41572e-05 0)
(5.73756e-06 5.74234e-06 0)
(1.47024e-05 -3.12017e-05 0)
(5.08877e-05 -5.10362e-05 0)
(8.49063e-05 -4.05065e-05 0)
(9.06452e-05 -1.25133e-05 0)
(5.28604e-05 2.43396e-05 0)
(-3.55299e-05 6.48335e-05 0)
(-0.000177305 0.000105848 0)
(-0.00037243 0.000145536 0)
(-0.000618969 0.000182824 0)
(-0.000913773 0.000217107 0)
(-0.00125295 0.000248066 0)
(-0.0016322 0.000275564 0)
(-0.00204698 0.000299581 0)
(-0.00249271 0.000320166 0)
(-0.00296483 0.000337417 0)
(-0.00345885 0.000351456 0)
(-0.00397044 0.000362422 0)
(-0.00449541 0.000370457 0)
(-0.00502974 0.000375704 0)
(-0.0055696 0.000378301 0)
(-0.00611129 0.000378378 0)
(-0.00665132 0.000376056 0)
(-0.0071863 0.000371447 0)
(-0.00771304 0.000364654 0)
(-0.00822844 0.000355768 0)
(-0.00872956 0.000344876 0)
(-0.00921354 0.000332055 0)
(-0.00967767 0.000317378 0)
(-0.0101193 0.000300914 0)
(-0.010536 0.000282732 0)
(-0.0109252 0.0002629 0)
(-0.0112847 0.000241488 0)
(-0.0116123 0.000218571 0)
(-0.0119058 0.00019423 0)
(-0.0121634 0.000168554 0)
(-0.0123833 0.000141643 0)
(-0.0125638 0.000113604 0)
(-0.0127033 8.45596e-05 0)
(-0.0128007 5.46448e-05 0)
(-0.0128548 2.40078e-05 0)
(-0.0128648 -7.18843e-06 0)
(-0.01283 -3.87668e-05 0)
(-0.0127501 -7.05359e-05 0)
(-0.012625 -0.000102291 0)
(-0.012455 -0.000133814 0)
(-0.0122405 -0.000164875 0)
(-0.0119826 -0.000195237 0)
(-0.0116823 -0.00022465 0)
(-0.0113412 -0.000252864 0)
(-0.0109613 -0.00027962 0)
(-0.0105448 -0.000304662 0)
(-0.0100943 -0.000327736 0)
(-0.00961281 -0.000348591 0)
(-0.00910366 -0.000366988 0)
(-0.00857046 -0.000382697 0)
(-0.00801713 -0.000395507 0)
(-0.00744789 -0.000405221 0)
(-0.00686719 -0.000411668 0)
(-0.00627972 -0.000414698 0)
(-0.00569031 -0.000414192 0)
(-0.00510397 -0.000410059 0)
(-0.00452578 -0.000402241 0)
(-0.00396087 -0.000390715 0)
(-0.00341436 -0.000375495 0)
(-0.0028913 -0.000356635 0)
(-0.00239663 -0.000334231 0)
(-0.00193509 -0.000308422 0)
(-0.00151117 -0.000279403 0)
(-0.00112901 -0.000247422 0)
(-0.000792308 -0.000212802 0)
(-0.000504198 -0.000175957 0)
(-0.000267105 -0.000137426 0)
(-8.25354e-05 -9.79276e-05 0)
(4.92086e-05 -5.84523e-05 0)
(0.000129435 -2.04139e-05 0)
(0.000161635 1.41039e-05 0)
(0.000152134 4.19687e-05 0)
(0.000111172 5.84099e-05 0)
(5.63013e-05 5.63295e-05 0)
(1.4104e-05 2.7647e-05 0)
(1.39763e-05 -6.00306e-05 0)
(4.09454e-05 -8.51584e-05 0)
(4.89058e-05 -4.83186e-05 0)
(9.32174e-06 2.60544e-05 0)
(-9.53851e-05 0.000121495 0)
(-0.000274405 0.000226852 0)
(-0.000531834 0.000334735 0)
(-0.000868081 0.000440355 0)
(-0.00128088 0.000540664 0)
(-0.0017661 0.000633766 0)
(-0.00231843 0.000718538 0)
(-0.00293174 0.000794375 0)
(-0.00359947 0.000861019 0)
(-0.00431483 0.00091845 0)
(-0.00507096 0.000966801 0)
(-0.00586109 0.00100631 0)
(-0.00667853 0.00103727 0)
(-0.00751682 0.00106001 0)
(-0.00836968 0.00107488 0)
(-0.00923106 0.00108223 0)
(-0.0100952 0.00108238 0)
(-0.0109564 0.00107566 0)
(-0.0118094 0.00106236 0)
(-0.0126491 0.00104277 0)
(-0.0134705 0.00101715 0)
(-0.0142689 0.000985732 0)
(-0.0150396 0.00094875 0)
(-0.0157785 0.000906418 0)
(-0.0164812 0.000858945 0)
(-0.0171437 0.000806538 0)
(-0.0177622 0.000749405 0)
(-0.018333 0.000687762 0)
(-0.0188526 0.00062184 0)
(-0.0193178 0.000551885 0)
(-0.0197254 0.000478167 0)
(-0.0200727 0.000400979 0)
(-0.020357 0.000320649 0)
(-0.0205761 0.000237533 0)
(-0.020728 0.000152026 0)
(-0.0208111 6.45586e-05 0)
(-0.020824 -2.43994e-05 0)
(-0.0207658 -0.00011434 0)
(-0.0206362 -0.000204719 0)
(-0.0204349 -0.000294953 0)
(-0.0201625 -0.000384428 0)
(-0.01982 -0.0004725 0)
(-0.0194086 -0.000558497 0)
(-0.0189305 -0.00064173 0)
(-0.0183881 -0.000721492 0)
(-0.0177845 -0.000797072 0)
(-0.0171233 -0.000867757 0)
(-0.0164086 -0.000932844 0)
(-0.0156452 -0.000991644 0)
(-0.0148382 -0.0010435 0)
(-0.0139934 -0.00108778 0)
(-0.0131169 -0.0011239 0)
(-0.0122152 -0.00115134 0)
(-0.0112954 -0.00116962 0)
(-0.0103646 -0.00117835 0)
(-0.0094305 -0.0011772 0)
(-0.00850078 -0.00116596 0)
(-0.0075833 -0.00114446 0)
(-0.00668599 -0.00111269 0)
(-0.00581674 -0.0010707 0)
(-0.0049833 -0.00101868 0)
(-0.00419322 -0.000956936 0)
(-0.00345371 -0.000885917 0)
(-0.00277155 -0.000806223 0)
(-0.00215292 -0.000718631 0)
(-0.00160328 -0.000624133 0)
(-0.00112715 -0.000523992 0)
(-0.000727895 -0.000419822 0)
(-0.000407444 -0.000313723 0)
(-0.00016588 -0.000208473 0)
(-9.5626e-07 -0.000107823 0)
(9.25447e-05 -1.69347e-05 0)
(0.000123458 5.70263e-05 0)
(0.000105127 0.000104182 0)
(5.87716e-05 0.00011126 0)
(1.59537e-05 6.16025e-05 0)
(9.12585e-06 -7.92967e-05 0)
(1.35317e-05 -9.13976e-05 0)
(-2.47712e-05 -8.90519e-06 0)
(-0.000131389 0.000132444 0)
(-0.000323219 0.000308355 0)
(-0.000609907 0.000501493 0)
(-0.000995855 0.00069971 0)
(-0.00148145 0.000894701 0)
(-0.00206406 0.00108089 0)
(-0.00273881 0.00125463 0)
(-0.00349929 0.00141359 0)
(-0.00433802 0.00155642 0)
(-0.00524686 0.00168242 0)
(-0.00621727 0.00179136 0)
(-0.00724054 0.00188333 0)
(-0.00830795 0.00195864 0)
(-0.00941089 0.00201774 0)
(-0.0105409 0.00206116 0)
(-0.0116897 0.00208949 0)
(-0.0128494 0.00210332 0)
(-0.0140122 0.00210325 0)
(-0.0151708 0.00208985 0)
(-0.0163179 0.00206368 0)
(-0.0174466 0.00202525 0)
(-0.0185504 0.00197507 0)
(-0.0196229 0.00191359 0)
(-0.020658 0.00184126 0)
(-0.0216497 0.00175851 0)
(-0.0225924 0.00166575 0)
(-0.0234808 0.00156339 0)
(-0.0243096 0.00145186 0)
(-0.025074 0.0013316 0)
(-0.0257693 0.00120307 0)
(-0.0263911 0.00106678 0)
(-0.0269354 0.000923254 0)
(-0.0273984 0.000773091 0)
(-0.0277768 0.000616938 0)
(-0.0280675 0.000455503 0)
(-0.028268 0.00028956 0)
(-0.0283762 0.000119955 0)
(-0.0283903 -5.23983e-05 0)
(-0.0283094 -0.000226513 0)
(-0.0281328 -0.000401335 0)
(-0.0278605 -0.000575743 0)
(-0.0274933 -0.000748554 0)
(-0.0270325 -0.000918535 0)
(-0.02648 -0.0010844 0)
(-0.0258385 -0.00124484 0)
(-0.0251115 -0.0013985 0)
(-0.0243029 -0.00154404 0)
(-0.0234178 -0.0016801 0)
(-0.0224615 -0.00180535 0)
(-0.0214404 -0.00191849 0)
(-0.0203612 -0.00201828 0)
(-0.0192316 -0.00210354 0)
(-0.0180597 -0.00217317 0)
(-0.0168541 -0.00222618 0)
(-0.0156239 -0.0022617 0)
(-0.0143788 -0.002279 0)
(-0.0131286 -0.00227748 0)
(-0.0118834 -0.00225673 0)
(-0.0106535 -0.00221652 0)
(-0.00944934 -0.0021568 0)
(-0.00828105 -0.00207775 0)
(-0.00715875 -0.00197975 0)
(-0.0060922 -0.00186346 0)
(-0.00509069 -0.00172979 0)
(-0.00416291 -0.00157995 0)
(-0.00331674 -0.00141552 0)
(-0.00255904 -0.00123847 0)
(-0.00189546 -0.0010513 0)
(-0.00133012 -0.000857161 0)
(-0.000865278 -0.00066004 0)
(-0.000500938 -0.000465078 0)
(-0.000234318 -0.000278964 0)
(-5.92699e-05 -0.000110508 0)
(3.42977e-05 2.86303e-05 0)
(6.11657e-05 0.000123151 0)
(4.36013e-05 0.00015329 0)
(1.35531e-05 9.28068e-05 0)
(2.50911e-06 -8.09046e-05 0)
(-2.31127e-05 -5.42257e-05 0)
(-0.000120675 9.59264e-05 0)
(-0.000309092 0.00032452 0)
(-0.000602416 0.0006003 0)
(-0.00100947 0.000900208 0)
(-0.00153406 0.00120748 0)
(-0.002176 0.0015102 0)
(-0.00293201 0.00180007 0)
(-0.00379647 0.00207141 0)
(-0.00476203 0.00232049 0)
(-0.00582007 0.00254496 0)
(-0.00696114 0.00274353 0)
(-0.00817529 0.0029156 0)
(-0.00945227 0.00306113 0)
(-0.0107817 0.00318043 0)
(-0.0121534 0.00327408 0)
(-0.0135571 0.0033428 0)
(-0.014983 0.0033874 0)
(-0.0164213 0.00340877 0)
(-0.0178626 0.00340778 0)
(-0.019298 0.0033853 0)
(-0.0207185 0.00334218 0)
(-0.0221157 0.00327923 0)
(-0.0234816 0.00319724 0)
(-0.0248081 0.00309694 0)
(-0.0260878 0.00297905 0)
(-0.0273134 0.00284427 0)
(-0.028478 0.00269327 0)
(-0.0295749 0.00252675 0)
(-0.0305977 0.00234542 0)
(-0.0315403 0.00215 0)
(-0.0323972 0.00194128 0)
(-0.0331629 0.00172008 0)
(-0.0338325 0.0014873 0)
(-0.0344015 0.00124391 0)
(-0.0348657 0.00099099 0)
(-0.0352216 0.000729696 0)
(-0.035466 0.000461294 0)
(-0.0355964 0.000187158 0)
(-0.0356109 -9.12272e-05 0)
(-0.0355082 -0.00037227 0)
(-0.0352877 -0.000654271 0)
(-0.0349495 -0.000935429 0)
(-0.0344946 -0.00121385 0)
(-0.0339245 -0.00148756 0)
(-0.0332419 -0.00175451 0)
(-0.0324501 -0.00201261 0)
(-0.0315531 -0.00225973 0)
(-0.0305563 -0.00249371 0)
(-0.0294653 -0.00271241 0)
(-0.028287 -0.00291374 0)
(-0.0270291 -0.00309564 0)
(-0.0256998 -0.00325614 0)
(-0.0243084 -0.00339338 0)
(-0.0228648 -0.00350566 0)
(-0.0213793 -0.00359141 0)
(-0.0198631 -0.00364927 0)
(-0.0183278 -0.00367811 0)
(-0.0167852 -0.00367702 0)
(-0.0152476 -0.00364538 0)
(-0.0137274 -0.00358283 0)
(-0.012237 -0.00348938 0)
(-0.0107888 -0.00336532 0)
(-0.00939475 -0.00321136 0)
(-0.00806657 -0.00302859 0)
(-0.00681536 -0.00281853 0)
(-0.0056514 -0.0025832 0)
(-0.00458403 -0.00232518 0)
(-0.00362135 -0.00204771 0)
(-0.00276997 -0.00175481 0)
(-0.00203472 -0.00145148 0)
(-0.00141827 -0.00114394 0)
(-0.000920766 -0.000840021 0)
(-0.00053935 -0.00054962 0)
(-0.000267647 -0.000285355 0)
(-9.5265e-05 -6.33843e-05 0)
(-7.15636e-06 9.57445e-05 0)
(1.80402e-05 0.000166049 0)
(9.02703e-06 0.000112605 0)
(-4.71677e-06 -6.17126e-05 0)
(-6.41646e-05 3.42897e-05 0)
(-0.0002287 0.000276789 0)
(-0.000508366 0.000613939 0)
(-0.000912895 0.00100876 0)
(-0.00144931 0.00143321 0)
(-0.00212003 0.00186632 0)
(-0.00292374 0.00229276 0)
(-0.00385623 0.00270151 0)
(-0.00491095 0.00308479 0)
(-0.00607958 0.00343733 0)
(-0.00735247 0.00375568 0)
(-0.00871903 0.00403779 0)
(-0.0101681 0.00428262 0)
(-0.011688 0.00448991 0)
(-0.0132672 0.00465991 0)
(-0.0148939 0.00479326 0)
(-0.0165564 0.00489086 0)
(-0.0182434 0.00495374 0)
(-0.0199438 0.00498307 0)
(-0.0216465 0.00498002 0)
(-0.0233411 0.00494579 0)
(-0.0250174 0.00488154 0)
(-0.0266654 0.00478842 0)
(-0.0282757 0.00466753 0)
(-0.029839 0.00451994 0)
(-0.0313465 0.00434668 0)
(-0.0327897 0.00414878 0)
(-0.0341604 0.00392725 0)
(-0.0354508 0.0036831 0)
(-0.0366535 0.00341739 0)
(-0.0377614 0.00313122 0)
(-0.038768 0.00282574 0)
(-0.0396668 0.00250219 0)
(-0.0404523 0.0021619 0)
(-0.0411192 0.00180634 0)
(-0.0416626 0.00143707 0)
(-0.0420785 0.00105581 0)
(-0.0423632 0.000664412 0)
(-0.042514 0.000264895 0)
(-0.0425286 -0.000140579 0)
(-0.0424057 -0.000549692 0)
(-0.0421445 -0.000959979 0)
(-0.0417454 -0.00136883 0)
(-0.0412094 -0.00177352 0)
(-0.0405386 -0.00217119 0)
(-0.0397359 -0.00255889 0)
(-0.0388053 -0.00293363 0)
(-0.0377517 -0.00329234 0)
(-0.036581 -0.00363194 0)
(-0.0353001 -0.00394937 0)
(-0.0339169 -0.00424162 0)
(-0.0324402 -0.00450577 0)
(-0.0308797 -0.00473901 0)
(-0.0292461 -0.00493871 0)
(-0.0275506 -0.00510242 0)
(-0.0258055 -0.00522794 0)
(-0.0240236 -0.00531334 0)
(-0.022218 -0.00535703 0)
(-0.0204026 -0.00535774 0)
(-0.0185915 -0.00531462 0)
(-0.0167988 -0.00522722 0)
(-0.0150388 -0.00509557 0)
(-0.0133258 -0.00492018 0)
(-0.0116734 -0.0047021 0)
(-0.010095 -0.00444298 0)
(-0.00860332 -0.00414508 0)
(-0.00721009 -0.00381139 0)
(-0.00592592 -0.00344567 0)
(-0.00476003 -0.00305262 0)
(-0.00371997 -0.00263801 0)
(-0.00281132 -0.00220892 0)
(-0.00203732 -0.00177402 0)
(-0.00139853 -0.00134399 0)
(-0.00089245 -0.000932034 0)
(-0.000513071 -0.000554557 0)
(-0.000250449 -0.000232024 0)
(-9.01672e-05 1.01574e-05 0)
(-1.31921e-05 0.000140478 0)
(3.56395e-06 0.000117077 0)
(-1.20041e-05 -2.05442e-05 0)
(-0.000106871 0.000178279 0)
(-0.000342419 0.000539936 0)
(-0.000718826 0.00100804 0)
(-0.00124061 0.00154122 0)
(-0.00191228 0.00210737 0)
(-0.00273425 0.00268189 0)
(-0.0037036 0.00324637 0)
(-0.00481481 0.00378723 0)
(-0.00606021 0.0042947 0)
(-0.00743043 0.00476192 0)
(-0.00891476 0.00518431 0)
(-0.0105015 0.00555901 0)
(-0.0121785 0.00588446 0)
(-0.0139328 0.00616011 0)
(-0.0157516 0.0063861 0)
(-0.017622 0.0065631 0)
(-0.019531 0.00669215 0)
(-0.0214659 0.0067745 0)
(-0.0234143 0.00681159 0)
(-0.0253639 0.00680489 0)
(-0.027303 0.00675594 0)
(-0.0292199 0.00666624 0)
(-0.0311036 0.00653731 0)
(-0.0329433 0.0063706 0)
(-0.0347286 0.00616754 0)
(-0.0364494 0.00592953 0)
(-0.0380962 0.00565796 0)
(-0.0396597 0.00535422 0)
(-0.041131 0.00501972 0)
(-0.0425018 0.00465592 0)
(-0.043764 0.00426433 0)
(-0.0449102 0.00384657 0)
(-0.0459334 0.00340436 0)
(-0.046827 0.00293953 0)
(-0.0475852 0.0024541 0)
(-0.0482027 0.00195024 0)
(-0.0486747 0.00143031 0)
(-0.0489974 0.000896833 0)
(-0.0491675 0.000352572 0)
(-0.0491827 -0.00019953 0)
(-0.0490415 -0.000756323 0)
(-0.0487431 -0.00131447 0)
(-0.048288 -0.00187043 0)
(-0.0476774 -0.00242053 0)
(-0.0469136 -0.00296093 0)
(-0.046 -0.00348765 0)
(-0.0449412 -0.00399666 0)
(-0.0437426 -0.00448385 0)
(-0.0424109 -0.0049451 0)
(-0.040954 -0.0053763 0)
(-0.0393806 -0.00577344 0)
(-0.0377006 -0.0061326 0)
(-0.035925 -0.00645004 0)
(-0.0340657 -0.00672224 0)
(-0.0321353 -0.00694594 0)
(-0.0301474 -0.00711824 0)
(-0.0281164 -0.00723656 0)
(-0.026057 -0.00729881 0)
(-0.0239847 -0.00730332 0)
(-0.0219152 -0.00724898 0)
(-0.0198642 -0.00713525 0)
(-0.0178478 -0.00696221 0)
(-0.0158816 -0.00673062 0)
(-0.0139812 -0.00644194 0)
(-0.0121612 -0.00609846 0)
(-0.0104358 -0.00570328 0)
(-0.0088182 -0.00526046 0)
(-0.00732008 -0.00477512 0)
(-0.0059518 -0.00425356 0)
(-0.00472189 -0.00370344 0)
(-0.00363677 -0.00313406 0)
(-0.00270044 -0.00255666 0)
(-0.00191417 -0.00198483 0)
(-0.00127619 -0.00143504 0)
(-0.000781357 -0.000927333 0)
(-0.000420761 -0.000486169 0)
(-0.00018129 -0.000141272 0)
(-4.71727e-05 7.12236e-05 0)
(-2.21093e-06 0.000104353 0)
(-1.91059e-05 4.28122e-05 0)
(-0.000149697 0.000379504 0)
(-0.000457875 0.00088859 0)
(-0.000933696 0.00151098 0)
(-0.00157603 0.00220218 0)
(-0.00238637 0.00292692 0)
(-0.00336268 0.00365767 0)
(-0.00450003 0.00437337 0)
(-0.00579128 0.00505819 0)
(-0.00722742 0.00570049 0)
(-0.00879786 0.00629196 0)
(-0.0104908 0.00682687 0)
(-0.0122935 0.00730157 0)
(-0.0141926 0.00771396 0)
(-0.0161743 0.00806316 0)
(-0.0182245 0.00834917 0)
(-0.0203292 0.00857268 0)
(-0.0224744 0.00873483 0)
(-0.0246461 0.00883708 0)
(-0.0268308 0.00888112 0)
(-0.0290151 0.00886875 0)
(-0.0311861 0.00880183 0)
(-0.033331 0.00868225 0)
(-0.0354375 0.00851187 0)
(-0.0374939 0.00829255 0)
(-0.0394886 0.00802611 0)
(-0.0414106 0.00771435 0)
(-0.0432491 0.00735907 0)
(-0.0449941 0.00696208 0)
(-0.0466357 0.00652524 0)
(-0.0481646 0.00605044 0)
(-0.0495721 0.00553971 0)
(-0.0508498 0.00499515 0)
(-0.05199 0.00441902 0)
(-0.0529856 0.00381376 0)
(-0.0538301 0.003182 0)
(-0.0545176 0.00252658 0)
(-0.0550432 0.00185057 0)
(-0.0554023 0.00115728 0)
(-0.0555917 0.000450289 0)
(-0.0556086 -0.000266587 0)
(-0.0554514 -0.000989273 0)
(-0.0551196 -0.00171345 0)
(-0.0546133 -0.00243459 0)
(-0.0539342 -0.00314792 0)
(-0.0530848 -0.00384851 0)
(-0.0520689 -0.0045313 0)
(-0.0508913 -0.00519107 0)
(-0.0495582 -0.00582258 0)
(-0.048077 -0.00642055 0)
(-0.0464562 -0.00697974 0)
(-0.0447054 -0.007495 0)
(-0.0428355 -0.00796136 0)
(-0.0408585 -0.00837403 0)
(-0.0387874 -0.00872853 0)
(-0.0366361 -0.00902072 0)
(-0.0344194 -0.00924688 0)
(-0.032153 -0.00940378 0)
(-0.0298532 -0.00948874 0)
(-0.0275368 -0.00949968 0)
(-0.0252209 -0.0094352 0)
(-0.0229228 -0.00929467 0)
(-0.02066 -0.00907823 0)
(-0.0184497 -0.0087869 0)
(-0.0163088 -0.00842262 0)
(-0.0142535 -0.00798836 0)
(-0.0122992 -0.00748815 0)
(-0.0104603 -0.00692722 0)
(-0.00874992 -0.00631212 0)
(-0.00717937 -0.00565084 0)
(-0.00575827 -0.00495307 0)
(-0.00449401 -0.00423039 0)
(-0.00339156 -0.00349661 0)
(-0.00245318 -0.00276821 0)
(-0.00167814 -0.00206484 0)
(-0.00106257 -0.00140993 0)
(-0.000599049 -0.000831567 0)
(-0.000276231 -0.000363176 0)
(-8.21396e-05 -4.4594e-05 0)
(-7.97251e-06 7.36858e-05 0)
(-2.59245e-05 0.000128033 0)
(-0.000191822 0.000638208 0)
(-0.000572695 0.00132386 0)
(-0.00114866 0.00212457 0)
(-0.00191279 0.00299384 0)
(-0.00286329 0.00389412 0)
(-0.00399537 0.00479557 0)
(-0.00530175 0.005675 0)
(-0.00677344 0.00651468 0)
(-0.00839986 0.00730136 0)
(-0.0101691 0.00802539 0)
(-0.0120681 0.00868004 0)
(-0.0140831 0.00926088 0)
(-0.0161995 0.0097653 0)
(-0.0184026 0.0101921 0)
(-0.0206774 0.0105411 0)
(-0.0230086 0.010813 0)
(-0.0253814 0.0110091 0)
(-0.0277807 0.011131 0)
(-0.0301919 0.0111807 0)
(-0.0326006 0.0111602 0)
(-0.0349929 0.0110718 0)
(-0.0373549 0.0109178 0)
(-0.0396736 0.0107003 0)
(-0.0419359 0.0104217 0)
(-0.0441294 0.0100842 0)
(-0.0462422 0.0096901 0)
(-0.0482627 0.00924153 0)
(-0.0501797 0.00874081 0)
(-0.0519827 0.00819028 0)
(-0.0536617 0.00759234 0)
(-0.0552069 0.00694954 0)
(-0.0566096 0.00626455 0)
(-0.0578612 0.00554024 0)
(-0.0589541 0.00477968 0)
(-0.0598811 0.0039862 0)
(-0.0606361 0.00316336 0)
(-0.0612135 0.00231503 0)
(-0.0616087 0.00144538 0)
(-0.0618178 0.000558867 0)
(-0.0618382 -0.000339732 0)
(-0.0616679 -0.00124533 0)
(-0.0613064 -0.00215256 0)
(-0.0607541 -0.00305577 0)
(-0.0600125 -0.00394905 0)
(-0.0590845 -0.00482629 0)
(-0.057974 -0.00568118 0)
(-0.0566864 -0.0065073 0)
(-0.0552284 -0.00729815 0)
(-0.0536077 -0.0080472 0)
(-0.0518337 -0.00874798 0)
(-0.0499167 -0.00939414 0)
(-0.0478683 -0.00997952 0)
(-0.0457016 -0.0104982 0)
(-0.0434304 -0.0109448 0)
(-0.0410699 -0.011314 0)
(-0.0386359 -0.0116013 0)
(-0.0361454 -0.0118028 0)
(-0.0336159 -0.0119151 0)
(-0.0310654 -0.0119358 0)
(-0.0285124 -0.0118631 0)
(-0.0259758 -0.0116962 0)
(-0.0234743 -0.0114354 0)
(-0.0210265 -0.0110819 0)
(-0.0186505 -0.0106383 0)
(-0.0163641 -0.0101081 0)
(-0.014184 -0.00949649 0)
(-0.0121258 -0.00880982 0)
(-0.0102037 -0.00805615 0)
(-0.00843042 -0.00724525 0)
(-0.00681664 -0.00638883 0)
(-0.00537091 -0.00550078 0)
(-0.00409935 -0.00459748 0)
(-0.00300541 -0.00369823 0)
(-0.00208973 -0.00282565 0)
(-0.00135002 -0.00200635 0)
(-0.000780632 -0.0012716 0)
(-0.000372305 -0.000657963 0)
(-0.000117075 -0.000208163 0)
(-1.35629e-05 2.50039e-05 0)
(-3.24312e-05 0.000234528 0)
(-0.000232827 0.000953714 0)
(-0.000685509 0.00184544 0)
(-0.00136104 0.002849 0)
(-0.00224676 0.00391674 0)
(-0.00333747 0.00500962 0)
(-0.0046254 0.00609614 0)
(-0.00610075 0.00715145 0)
(-0.00775244 0.00815633 0)
(-0.00956815 0.00909618 0)
(-0.0115345 0.00996024 0)
(-0.0136371 0.0107409 0)
(-0.015861 0.011433 0)
(-0.0181906 0.0120336 0)
(-0.0206102 0.0125411 0)
(-0.0231036 0.0129552 0)
(-0.0256549 0.0132767 0)
(-0.0282479 0.0135069 0)
(-0.030867 0.0136476 0)
(-0.0334964 0.0137011 0)
(-0.0361209 0.0136698 0)
(-0.0387256 0.0135562 0)
(-0.0412958 0.013363 0)
(-0.0438174 0.0130929 0)
(-0.0462766 0.0127485 0)
(-0.0486602 0.0123325 0)
(-0.0509553 0.0118476 0)
(-0.0531495 0.0112966 0)
(-0.0552309 0.0106822 0)
(-0.0571882 0.0100072 0)
(-0.0590106 0.00927469 0)
(-0.0606878 0.00848765 0)
(-0.0622103 0.00764943 0)
(-0.063569 0.00676354 0)
(-0.0647557 0.00583374 0)
(-0.0657629 0.0048641 0)
(-0.0665837 0.003859 0)
(-0.0672124 0.00282314 0)
(-0.0676438 0.0017616 0)
(-0.0678741 0.000679807 0)
(-0.0679002 -0.000416432 0)
(-0.0677202 -0.00152096 0)
(-0.0673333 -0.00262726 0)
(-0.0667399 -0.0037285 0)
(-0.0659418 -0.00481755 0)
(-0.0649418 -0.00588702 0)
(-0.0637442 -0.00692931 0)
(-0.0623548 -0.00793668 0)
(-0.0607804 -0.00890128 0)
(-0.0590294 -0.00981527 0)
(-0.0571116 -0.0106709 0)
(-0.0550381 -0.0114604 0)
(-0.0528212 -0.0121764 0)
(-0.0504747 -0.012812 0)
(-0.0480134 -0.0133603 0)
(-0.0454533 -0.0138153 0)
(-0.0428114 -0.0141714 0)
(-0.0401057 -0.0144239 0)
(-0.0373549 -0.0145689 0)
(-0.0345782 -0.0146032 0)
(-0.0317954 -0.0145248 0)
(-0.0290266 -0.0143329 0)
(-0.0262918 -0.0140277 0)
(-0.0236109 -0.0136107 0)
(-0.0210036 -0.013085 0)
(-0.0184887 -0.012455 0)
(-0.0160844 -0.0117266 0)
(-0.0138075 -0.0109076 0)
(-0.0116737 -0.0100075 0)
(-0.00969671 -0.00903792 0)
(-0.00788865 -0.00801259 0)
(-0.00625932 -0.00694768 0)
(-0.00481618 -0.00586209 0)
(-0.00356412 -0.00477779 0)
(-0.00250537 -0.00372025 0)
(-0.0016394 -0.00271895 0)
(-0.000962606 -0.00180799 0)
(-0.000467928 -0.00102657 0)
(-0.000151434 -0.000419628 0)
(-1.89172e-05 -4.1403e-05 0)
(-3.86303e-05 0.000361593 0)
(-0.000272525 0.00132483 0)
(-0.000795567 0.00245218 0)
(-0.00156924 0.00368332 0)
(-0.00257535 0.0049702 0)
(-0.00380524 0.0062729 0)
(-0.00524809 0.00755884 0)
(-0.00689143 0.00880203 0)
(-0.00872194 0.0099821 0)
(-0.0107254 0.0110834 0)
(-0.0128869 0.0120944 0)
(-0.0151906 0.0130066 0)
(-0.0176203 0.0138145 0)
(-0.0201594 0.0145145 0)
(-0.022791 0.0151051 0)
(-0.0254981 0.0155858 0)
(-0.0282637 0.0159574 0)
(-0.0310709 0.0162213 0)
(-0.0339031 0.0163795 0)
(-0.0367437 0.0164347 0)
(-0.0395768 0.0163894 0)
(-0.0423864 0.0162467 0)
(-0.0451571 0.0160096 0)
(-0.0478742 0.0156812 0)
(-0.0505228 0.0152646 0)
(-0.0530891 0.0147629 0)
(-0.0555594 0.0141794 0)
(-0.0579207 0.0135171 0)
(-0.0601602 0.0127796 0)
(-0.0622661 0.01197 0)
(-0.0642268 0.011092 0)
(-0.0660316 0.0101493 0)
(-0.0676701 0.00914579 0)
(-0.0691329 0.00808571 0)
(-0.0704112 0.00697358 0)
(-0.071497 0.00581423 0)
(-0.0723832 0.0046129 0)
(-0.0730634 0.0033752 0)
(-0.0735324 0.00210716 0)
(-0.0737858 0.000815252 0)
(-0.0738205 -0.000493651 0)
(-0.0736344 -0.00181224 0)
(-0.0732265 -0.00313281 0)
(-0.0725974 -0.00444726 0)
(-0.0717486 -0.00574716 0)
(-0.0706832 -0.0070238 0)
(-0.0694057 -0.00826818 0)
(-0.0679219 -0.00947118 0)
(-0.0662391 -0.0106235 0)
(-0.0643661 -0.011716 0)
(-0.062313 -0.0127393 0)
(-0.0600916 -0.0136846 0)
(-0.0577148 -0.0145429 0)
(-0.055197 -0.0153061 0)
(-0.0525539 -0.0159662 0)
(-0.0498023 -0.016516 0)
(-0.0469601 -0.0169489 0)
(-0.0440464 -0.0172594 0)
(-0.0410809 -0.0174427 0)
(-0.0380839 -0.0174953 0)
(-0.0350765 -0.0174147 0)
(-0.03208 -0.0171999 0)
(-0.0291156 -0.0168511 0)
(-0.0262046 -0.0163701 0)
(-0.0233679 -0.0157605 0)
(-0.0206258 -0.0150274 0)
(-0.0179978 -0.0141777 0)
(-0.015502 -0.0132206 0)
(-0.0131554 -0.012167 0)
(-0.0109734 -0.0110303 0)
(-0.00896923 -0.00982623 0)
(-0.00715425 -0.00857324 0)
(-0.00553742 -0.00729265 0)
(-0.00412524 -0.006009 0)
(-0.00292169 -0.00475042 0)
(-0.00192822 -0.00354902 0)
(-0.00114334 -0.00244141 0)
(-0.000562268 -0.00146903 0)
(-0.000184966 -0.000678548 0)
(-2.4021e-05 -0.000125075 0)
(-4.45409e-05 0.00050849 0)
(-0.00031086 0.0017501 0)
(-0.000902506 0.00314237 0)
(-0.00177239 0.00462586 0)
(-0.00289698 0.00615266 0)
(-0.00426427 0.00768253 0)
(-0.00586034 0.00918231 0)
(-0.00766999 0.0106253 0)
(-0.00967755 0.0119904 0)
(-0.0118669 0.0132611 0)
(-0.0142212 0.0144254 0)
(-0.0167234 0.0154743 0)
(-0.0193559 0.0164019 0)
(-0.0221009 0.0172043 0)
(-0.0249405 0.0178798 0)
(-0.0278568 0.0184279 0)
(-0.0308319 0.0188496 0)
(-0.033848 0.0191463 0)
(-0.0368876 0.0193205 0)
(-0.0399336 0.0193748 0)
(-0.0429689 0.0193124 0)
(-0.0459772 0.0191366 0)
(-0.0489422 0.0188508 0)
(-0.0518483 0.0184586 0)
(-0.0546803 0.0179635 0)
(-0.0574233 0.0173691 0)
(-0.0600632 0.0166792 0)
(-0.0625861 0.0158974 0)
(-0.0649789 0.0150277 0)
(-0.0672289 0.0140739 0)
(-0.0693241 0.0130402 0)
(-0.071253 0.011931 0)
(-0.073005 0.0107508 0)
(-0.07457 0.00950471 0)
(-0.0759388 0.00819791 0)
(-0.0771029 0.0068361 0)
(-0.0780547 0.0054254 0)
(-0.0787876 0.00397237 0)
(-0.079296 0.00248404 0)
(-0.0795753 0.000967962 0)
(-0.079622 -0.000567857 0)
(-0.0794339 -0.00211491 0)
(-0.0790099 -0.00366424 0)
(-0.0783504 -0.00520643 0)
(-0.0774569 -0.00673169 0)
(-0.0763326 -0.0082299 0)
(-0.074982 -0.00969063 0)
(-0.0734111 -0.0111033 0)
(-0.0716274 -0.0124571 0)
(-0.06964 -0.0137413 0)
(-0.0674594 -0.0149454 0)
(-0.0650977 -0.0160586 0)
(-0.0625685 -0.0170711 0)
(-0.0598868 -0.0179729 0)
(-0.0570689 -0.018755 0)
(-0.0541324 -0.019409 0)
(-0.0510962 -0.0199273 0)
(-0.0479801 -0.0203032 0)
(-0.0448049 -0.0205314 0)
(-0.0415921 -0.0206075 0)
(-0.0383638 -0.0205288 0)
(-0.0351424 -0.0202939 0)
(-0.0319506 -0.0199031 0)
(-0.0288109 -0.0193584 0)
(-0.0257456 -0.0186638 0)
(-0.0227764 -0.0178252 0)
(-0.019924 -0.0168505 0)
(-0.0172081 -0.0157499 0)
(-0.0146473 -0.0145361 0)
(-0.0122583 -0.0132241 0)
(-0.010056 -0.0118317 0)
(-0.00805321 -0.0103795 0)
(-0.0062607 -0.00889106 0)
(-0.00468668 -0.00739348 0)
(-0.00333703 -0.00591734 0)
(-0.00221529 -0.0044972 0)
(-0.00132212 -0.00317194 0)
(-0.000655002 -0.00198491 0)
(-0.000217611 -0.000984202 0)
(-2.8887e-05 -0.0002255 0)
(-5.01869e-05 0.000674492 0)
(-0.000347847 0.00222794 0)
(-0.0010062 0.003914 0)
(-0.00197005 0.00567449 0)
(-0.00321082 0.007462 0)
(-0.0047132 0.00923645 0)
(-0.00646024 0.0109645 0)
(-0.00843395 0.0126192 0)
(-0.0106163 0.014179 0)
(-0.0129891 0.0156271 0)
(-0.0155338 0.0169509 0)
(-0.0182317 0.0181413 0)
(-0.0210639 0.019192 0)
(-0.0240115 0.0200992 0)
(-0.0270555 0.020861 0)
(-0.0301769 0.0214772 0)
(-0.0333571 0.0219486 0)
(-0.0365774 0.022277 0)
(-0.0398196 0.0224651 0)
(-0.0430658 0.022516 0)
(-0.0462982 0.0224331 0)
(-0.0494999 0.0222201 0)
(-0.0526538 0.0218808 0)
(-0.0557438 0.0214193 0)
(-0.0587539 0.0208396 0)
(-0.0616688 0.0201458 0)
(-0.0644737 0.0193422 0)
(-0.0671541 0.0184329 0)
(-0.0696963 0.0174224 0)
(-0.0720872 0.0163152 0)
(-0.0743141 0.0151162 0)
(-0.0763651 0.0138303 0)
(-0.078229 0.0124628 0)
(-0.0798953 0.0110195 0)
(-0.0813544 0.00950646 0)
(-0.0825972 0.00793017 0)
(-0.0836159 0.00629769 0)
(-0.0844035 0.00461656 0)
(-0.0849539 0.00289488 0)
(-0.0852624 0.00114129 0)
(-0.0853251 -0.000635027 0)
(-0.0851395 -0.00242431 0)
(-0.0847046 -0.00421631 0)
(-0.0840203 -0.00600024 0)
(-0.0830882 -0.0077649 0)
(-0.0819115 -0.0094987 0)
(-0.0804945 -0.0111897 0)
(-0.0788435 -0.0128258 0)
(-0.076966 -0.0143947 0)
(-0.0748713 -0.015884 0)
(-0.0725703 -0.0172816 0)
(-0.0700754 -0.0185754 0)
(-0.0674006 -0.0197539 0)
(-0.0645614 -0.0208057 0)
(-0.0615748 -0.0217206 0)
(-0.058459 -0.0224887 0)
(-0.0552337 -0.0231013 0)
(-0.0519196 -0.0235508 0)
(-0.0485385 -0.0238308 0)
(-0.0451129 -0.0239365 0)
(-0.041666 -0.0238645 0)
(-0.0382214 -0.0236131 0)
(-0.0348031 -0.0231826 0)
(-0.031435 -0.0225751 0)
(-0.0281407 -0.0217951 0)
(-0.0249432 -0.0208491 0)
(-0.021865 -0.019746 0)
(-0.0189272 -0.0184972 0)
(-0.0161499 -0.0171169 0)
(-0.0135515 -0.0156217 0)
(-0.0111485 -0.0140313 0)
(-0.00895573 -0.0123685 0)
(-0.00698547 -0.0106591 0)
(-0.00524794 -0.00893262 0)
(-0.00375101 -0.00722191 0)
(-0.00250036 -0.00556384 0)
(-0.00149886 -0.00399936 0)
(-0.000746158 -0.00257357 0)
(-0.000249429 -0.0013358 0)
(-3.35434e-05 -0.000342185 0)
(-5.55929e-05 0.0008589 0)
(-0.00038354 0.00275673 0)
(-0.00110666 0.00476495 0)
(-0.00216209 0.00682679 0)
(-0.00351645 0.00889573 0)
(-0.00515129 0.0109322 0)
(-0.00704663 0.012903 0)
(-0.00918177 0.0147813 0)
(-0.0115363 0.0165455 0)
(-0.0140898 0.0181786 0)
(-0.0168221 0.019668 0)
(-0.0197128 0.0210045 0)
(-0.0227417 0.0221817 0)
(-0.0258885 0.0231959 0)
(-0.0291333 0.0240452 0)
(-0.0324562 0.0247296 0)
(-0.0358375 0.0252501 0)
(-0.0392579 0.0256089 0)
(-0.0426984 0.0258089 0)
(-0.0461403 0.0258535 0)
(-0.0495654 0.0257465 0)
(-0.0529559 0.0254922 0)
(-0.0562943 0.0250948 0)
(-0.0595639 0.0245587 0)
(-0.062748 0.0238885 0)
(-0.0658309 0.0230889 0)
(-0.0687971 0.0221644 0)
(-0.0716318 0.0211201 0)
(-0.0743206 0.0199608 0)
(-0.07685 0.0186916 0)
(-0.0792068 0.0173181 0)
(-0.0813787 0.0158459 0)
(-0.0833539 0.0142811 0)
(-0.0851216 0.0126301 0)
(-0.0866715 0.0108998 0)
(-0.0879945 0.0090977 0)
(-0.089082 0.00723172 0)
(-0.0899269 0.00531042 0)
(-0.0905227 0.00334296 0)
(-0.0908642 0.00133914 0)
(-0.0909473 -0.000690657 0)
(-0.0907694 -0.0027354 0)
(-0.0903289 -0.00478348 0)
(-0.0896258 -0.00682272 0)
(-0.0886615 -0.00884046 0)
(-0.0874388 -0.0108236 0)
(-0.0859623 -0.0127586 0)
(-0.084238 -0.0146318 0)
(-0.0822737 -0.0164293 0)
(-0.0800786 -0.018137 0)
(-0.0776639 -0.0197413 0)
(-0.0750422 -0.0212284 0)
(-0.0722279 -0.0225851 0)
(-0.069237 -0.0237988 0)