/*--------------------------------*- C++ -*----------------------------------*\
  =========                 |
  \\      /  F ield         | OpenFOAM: The Open Source CFD Toolbox
   \\    /   O peration     | Website:  https://openfoam.org
    \\  /    A nd           | Version:  7
     \\/     M anipulation  |
\*---------------------------------------------------------------------------*/
FoamFile
{
    version     2.0;
    format      ascii;
    class       volScalarField;
    location    "1.625";
    object      p;
}
// * * * * * * * * * * * * * * * * * * * * * * * * * * * * * * * * * * * * * //

dimensions      [0 2 -2 0 0 0 0];

internalField   nonuniform List<scalar> 
6400
(
-1.46602e-08
6.62551e-06
-7.5348e-06
-4.33201e-05
-9.76e-05
-0.000167104
-0.000248768
-0.000340042
-0.000439
-0.000544285
-0.000654985
-0.000770497
-0.000890402
-0.00101435
-0.00114199
-0.00127287
-0.00140643
-0.00154192
-0.00167844
-0.00181484
-0.00194982
-0.00208184
-0.00220919
-0.00232997
-0.00244213
-0.00254348
-0.00263175
-0.00270462
-0.0027598
-0.00279505
-0.00280829
-0.0027977
-0.00276176
-0.00269938
-0.00260999
-0.00249362
-0.00235098
-0.00218355
-0.00199359
-0.00178419
-0.00155924
-0.00132347
-0.00108226
-0.000841602
-0.000607934
-0.000387972
-0.000188489
-1.60864e-05
0.000123042
0.000223352
0.000280175
0.00028993
0.00025028
0.000160253
2.031e-05
-0.000167663
-0.000400413
-0.000673453
-0.000981234
-0.00131736
-0.00167486
-0.00204645
-0.00242478
-0.00280272
-0.00317351
-0.00353101
-0.00386975
-0.00418506
-0.004473
-0.00473039
-0.0049547
-0.00514397
-0.00529672
-0.00541191
-0.00548911
-0.00552876
-0.00553313
-0.00550793
-0.00546417
-0.00541846
-7.17847e-06
-6.21502e-07
-1.46563e-05
-4.73758e-05
-9.56474e-05
-0.000157268
-0.000230106
-0.000312211
-0.000402028
-0.000498359
-0.000600342
-0.000707345
-0.000818889
-0.000934558
-0.00105393
-0.00117654
-0.00130181
-0.00142904
-0.00155736
-0.00168575
-0.00181301
-0.00193776
-0.00205844
-0.00217335
-0.00228064
-0.00237832
-0.00246434
-0.00253658
-0.00259294
-0.00263138
-0.00264998
-0.00264703
-0.00262114
-0.00257125
-0.0024968
-0.00239776
-0.00227474
-0.00212904
-0.00196268
-0.00177849
-0.00158
-0.00137145
-0.00115784
-0.000944672
-0.000737865
-0.000543605
-0.000368136
-0.000217554
-9.75712e-05
-1.32969e-05
3.09751e-05
3.19611e-05
-1.24613e-05
-0.000103144
-0.000239608
-0.000420054
-0.00064142
-0.000899505
-0.00118914
-0.00150439
-0.00183881
-0.00218566
-0.0025382
-0.00288987
-0.00323451
-0.00356651
-0.00388092
-0.00417352
-0.00444079
-0.00467995
-0.00488885
-0.00506593
-0.00521016
-0.00532105
-0.00539868
-0.00544399
-0.00545937
-0.0054493
-0.00541849
-0.00537271
6.85925e-06
1.26484e-05
-1.93178e-06
-3.35576e-05
-7.88654e-05
-0.000136039
-0.000203404
-0.000279389
-0.000362723
-0.000452415
-0.000547717
-0.00064806
-0.000752994
-0.000862123
-0.000975045
-0.00109131
-0.00121038
-0.00133161
-0.0014542
-0.00157723
-0.00169958
-0.00182002
-0.00193711
-0.00204929
-0.00215484
-0.00225193
-0.00233862
-0.00241293
-0.00247284
-0.00251639
-0.00254173
-0.00254716
-0.00253126
-0.00249294
-0.00243155
-0.00234695
-0.00223957
-0.00211054
-0.00196166
-0.00179549
-0.00161531
-0.00142515
-0.00122968
-0.00103411
-0.000844101
-0.000665585
-0.000504559
-0.000366893
-0.000258103
-0.000183132
-0.000146131
-0.000150274
-0.00019761
-0.000288946
-0.000423798
-0.000600392
-0.000815731
-0.00106572
-0.00134532
-0.00164879
-0.00196988
-0.00230212
-0.00263905
-0.00297441
-0.00330237
-0.00361767
-0.00391573
-0.00419265
-0.00444531
-0.00467128
-0.00486877
-0.00503658
-0.00517402
-0.00528089
-0.00535745
-0.00540451
-0.00542395
-0.0054187
-0.00538785
-0.00532898
4.4023e-05
4.52036e-05
2.78663e-05
-4.65412e-06
-4.92472e-05
-0.000104291
-0.000168342
-0.000240141
-0.000318677
-0.000403182
-0.000493081
-0.000587934
-0.000687389
-0.000791129
-0.000898823
-0.00101009
-0.00112446
-0.00124135
-0.00136007
-0.00147979
-0.0015995
-0.00171806
-0.00183416
-0.00194634
-0.00205298
-0.00215234
-0.00224256
-0.00232169
-0.00238776
-0.00243879
-0.00247287
-0.00248826
-0.00248343
-0.00245715
-0.00240862
-0.0023375
-0.00224403
-0.00212912
-0.00199437
-0.00184215
-0.00167546
-0.00149822
-0.0013149
-0.00113059
-0.00095082
-0.000781445
-0.000628411
-0.00049756
-0.000394402
-0.000323891
-0.000290201
-0.000296538
-0.000344977
-0.000436351
-0.00057019
-0.000744729
-0.000956968
-0.0012028
-0.00147719
-0.00177439
-0.00208818
-0.00241213
-0.00273984
-0.00306518
-0.00338248
-0.00368667
-0.00397341
-0.00423911
-0.00448093
-0.0046968
-0.00488526
-0.00504544
-0.00517695
-0.00527974
-0.00535409
-0.00540048
-0.00542013
-0.00541456
-0.00537867
-0.00530446
0.000102086
9.43814e-05
7.17175e-05
3.64916e-05
-9.01588e-06
-6.33596e-05
-0.000125371
-0.000194094
-0.000268802
-0.000348979
-0.000434259
-0.000524377
-0.000619125
-0.000718307
-0.000821701
-0.000929023
-0.00103991
-0.00115388
-0.00127035
-0.00138857
-0.00150768
-0.00162662
-0.00174419
-0.00185903
-0.00196958
-0.00207415
-0.00217091
-0.0022579
-0.00233311
-0.00239448
-0.00244
-0.00246777
-0.00247607
-0.0024635
-0.00242901
-0.00237203
-0.00229257
-0.00219128
-0.00206956
-0.00192962
-0.00177414
-0.00160703
-0.00143263
-0.00125595
-0.00108251
-0.000918194
-0.000768993
-0.000640843
-0.000539367
-0.000469648
-0.000435997
-0.000441748
-0.000489092
-0.000578953
-0.000710921
-0.000883256
-0.00109295
-0.00133585
-0.00160685
-0.00190013
-0.00220938
-0.00252808
-0.0028498
-0.0031684
-0.00347825
-0.00377437
-0.00405259
-0.00430952
-0.00454261
-0.00475007
-0.00493079
-0.00508419
-0.00521015
-0.00530881
-0.00538041
-0.00542521
-0.00544385
-0.00543685
-0.0053963
-0.00531081
0.000178057
0.000157928
0.000127714
8.81316e-05
4.0264e-05
-1.46755e-05
-7.57973e-05
-0.000142491
-0.000214353
-0.00029114
-0.000372731
-0.000459073
-0.000550138
-0.00064589
-0.000746244
-0.000851051
-0.00096007
-0.00107295
-0.00118922
-0.00130827
-0.00142933
-0.00155145
-0.00167352
-0.00179424
-0.0019121
-0.00202541
-0.00213232
-0.00223079
-0.00231871
-0.00239386
-0.00245406
-0.00249716
-0.00252122
-0.00252454
-0.0025058
-0.00246415
-0.00239931
-0.00231167
-0.00220245
-0.00207378
-0.00192762
-0.00176833
-0.00160006
-0.00142778
-0.00125708
-0.00109392
-0.000944443
-0.000814775
-0.00071075
-0.000637686
-0.000600135
-0.000601663
-0.000644672
-0.000730264
-0.000858159
-0.00102669
-0.00123288
-0.00147254
-0.00174047
-0.00203072
-0.00233682
-0.00265213
-0.00297003
-0.0032843
-0.0035892
-0.00387979
-0.00415193
-0.00440238
-0.00462878
-0.00482959
-0.00500398
-0.00515167
-0.00527277
-0.00536763
-0.00543652
-0.00547956
-0.00549703
-0.00548883
-0.00544554
-0.00535401
0.000268368
0.000233092
0.000193464
0.000148123
9.666e-05
4.00078e-05
-2.12598e-05
-8.69215e-05
-0.000156926
-0.000231343
-0.000310323
-0.000394057
-0.000482728
-0.000576486
-0.000675423
-0.000779544
-0.00088876
-0.00100287
-0.00112153
-0.00124427
-0.00137042
-0.00149914
-0.00162938
-0.00175989
-0.00188915
-0.00201544
-0.00213681
-0.0022511
-0.00235601
-0.0024491
-0.00252791
-0.00259001
-0.00263313
-0.00265524
-0.00265466
-0.00263022
-0.00258132
-0.00250808
-0.00241137
-0.00229289
-0.00215544
-0.00200232
-0.00183786
-0.00166711
-0.00149575
-0.0013299
-0.00117592
-0.0010402
-0.000928868
-0.000847585
-0.000801251
-0.000793777
-0.000827893
-0.000904984
-0.00102501
-0.00118647
-0.00138647
-0.00162085
-0.00188433
-0.00217085
-0.00247375
-0.00278617
-0.00310128
-0.00341263
-0.00371435
-0.00400136
-0.00426948
-0.0045155
-0.00473718
-0.00493315
-0.0051028
-0.00524609
-0.0053634
-0.00545522
-0.00552197
-0.00556373
-0.00558062
-0.0055722
-0.00552854
-0.00543603
0.000369267
0.000316842
0.000266107
0.000213845
0.000157798
9.85169e-05
3.62102e-05
-2.93323e-05
-9.84563e-05
-0.000171578
-0.00024915
-0.000331633
-0.000419449
-0.000512961
-0.000612457
-0.000718128
-0.00083006
-0.000948213
-0.0010724
-0.00120228
-0.0013373
-0.00147671
-0.00161951
-0.00176444
-0.00190996
-0.00205425
-0.0021952
-0.00233047
-0.00245749
-0.00257352
-0.00267576
-0.00276142
-0.00282782
-0.00287252
-0.00289346
-0.00288906
-0.00285838
-0.00280119
-0.00271812
-0.00261066
-0.00248113
-0.00233305
-0.00217064
-0.00199897
-0.00182382
-0.0016515
-0.00148861
-0.00134188
-0.00121784
-0.00112257
-0.00106143
-0.00103881
-0.0010579
-0.00112052
-0.00122701
-0.00137616
-0.00156529
-0.00179034
-0.00204605
-0.00232626
-0.00262415
-0.00293261
-0.00324455
-0.00355324
-0.00385254
-0.00413715
-0.00440277
-0.00464605
-0.00486478
-0.00505769
-0.00522428
-0.00536474
-0.00547961
-0.0055696
-0.00563527
-0.00567677
-0.0056942
-0.00568704
-0.00564551
-0.00555643
0.000476698
0.000405174
0.000342304
0.000282273
0.000220866
0.000158215
9.40977e-05
2.78135e-05
-4.14212e-05
-0.000114404
-0.000191922
-0.000274727
-0.000363504
-0.000458852
-0.000561279
-0.000671189
-0.000788862
-0.000914437
-0.0010479
-0.00118903
-0.00133741
-0.00149234
-0.00165287
-0.00181769
-0.00198518
-0.00215338
-0.00231996
-0.00248232
-0.00263753
-0.00278252
-0.00291403
-0.00302885
-0.00312382
-0.00319603
-0.00324296
-0.00326257
-0.0032535
-0.00321513
-0.00314772
-0.00305242
-0.00293155
-0.00278828
-0.00262679
-0.00245218
-0.00227031
-0.00208769
-0.00191122
-0.001748
-0.00160502
-0.00148889
-0.00140558
-0.00136008
-0.00135622
-0.00139642
-0.00148157
-0.00161096
-0.00178227
-0.0019917
-0.00223413
-0.00250338
-0.00279253
-0.00309422
-0.00340109
-0.00370606
-0.00400264
-0.0042852
-0.00454915
-0.00479098
-0.00500834
-0.0051999
-0.00536524
-0.00550461
-0.00561873
-0.00570847
-0.00577454
-0.00581723
-0.00583672
-0.00583252
-0.00579549
-0.00571345
0.000586388
0.000494387
0.000418425
0.000349961
0.000282605
0.000215981
0.000149364
8.14962e-05
1.1111e-05
-6.30043e-05
-0.000141998
-0.000226939
-0.000318797
-0.000418433
-0.000526599
-0.000643928
-0.000770915
-0.0009079
-0.00105504
-0.00121227
-0.00137926
-0.00155538
-0.00173967
-0.00193076
-0.0021269
-0.00232591
-0.0025252
-0.0027218
-0.00291242
-0.0030935
-0.00326133
-0.00341212
-0.00354221
-0.00364814
-0.00372682
-0.0037757
-0.0037929
-0.00377736
-0.00372886
-0.00364802
-0.00353748
-0.00339961
-0.00323857
-0.00305943
-0.00286815
-0.0026714
-0.00247637
-0.00229058
-0.00212155
-0.00197653
-0.0018622
-0.00178434
-0.00174761
-0.00175525
-0.00180892
-0.00190863
-0.00205267
-0.00223769
-0.00245887
-0.00271018
-0.00298467
-0.00327482
-0.00357297
-0.00387166
-0.00416397
-0.00444385
-0.00470629
-0.00494746
-0.00516471
-0.00535655
-0.00552245
-0.00566268
-0.005778
-0.00586939
-0.0059377
-0.00598336
-0.00600667
-0.00600722
-0.00597683
-0.00590466
0.000693723
0.000580128
0.000490375
0.000413016
0.000339281
0.000268187
0.000198426
0.000128119
5.54662e-05
-2.11932e-05
-0.000103398
-0.000192555
-0.000289945
-0.000396715
-0.000513881
-0.000642331
-0.000782793
-0.000935824
-0.00110176
-0.00128069
-0.00147238
-0.00167624
-0.00189126
-0.00211599
-0.00234847
-0.00258627
-0.00282647
-0.00306567
-0.00330013
-0.00352574
-0.00373821
-0.00393319
-0.00410635
-0.00425361
-0.00437126
-0.00445612
-0.0045057
-0.00451837
-0.00449341
-0.00443109
-0.00433319
-0.00420217
-0.00404187
-0.00385723
-0.00365418
-0.00343953
-0.00322076
-0.00300582
-0.00280281
-0.0026197
-0.00246404
-0.00234258
-0.00226099
-0.0022236
-0.00223314
-0.00229058
-0.00239511
-0.00254412
-0.00273334
-0.00295708
-0.00320852
-0.00348007
-0.00376383
-0.00405192
-0.00433697
-0.00461236
-0.00487254
-0.00511318
-0.00533118
-0.00552471
-0.00569298
-0.00583611
-0.00595478
-0.00604999
-0.00612266
-0.00617333
-0.00620237
-0.00620949
-0.00618762
-0.00612744
0.000793765
0.000657691
0.000553669
0.000467122
0.000386696
0.000310699
0.000237158
0.000163506
8.73622e-05
6.57916e-06
-8.07977e-05
-0.000176543
-0.000282268
-0.000399431
-0.000529339
-0.000673152
-0.000831859
-0.00100624
-0.00119684
-0.00140388
-0.00162722
-0.00186628
-0.00211999
-0.00238674
-0.00266437
-0.00295009
-0.0032406
-0.00353203
-0.00382005
-0.00409999
-0.0043669
-0.00461572
-0.00484142
-0.00503918
-0.00520456
-0.00533364
-0.00542323
-0.00547099
-0.00547556
-0.00543667
-0.00535538
-0.00523385
-0.00507553
-0.00488513
-0.00466848
-0.00443245
-0.00418477
-0.0039338
-0.00368825
-0.00345691
-0.0032483
-0.00307032
-0.00292991
-0.00283273
-0.00278287
-0.00278265
-0.00283248
-0.00293084
-0.00307433
-0.00325787
-0.00347502
-0.00371828
-0.00397957
-0.00425069
-0.00452369
-0.00479133
-0.00504738
-0.00528678
-0.00550583
-0.00570211
-0.0058744
-0.00602246
-0.00614676
-0.00624815
-0.00632749
-0.00638538
-0.00642219
-0.0064377
-0.00642597
-0.0063793
0.000881209
0.000722023
0.000603439
0.000507541
0.000420194
0.000338889
0.000260903
0.000182919
0.000101923
1.52468e-05
-7.95106e-05
-0.00018452
-0.000301751
-0.000432994
-0.000579874
-0.000743852
-0.000926198
-0.00112794
-0.00134981
-0.00159219
-0.001855
-0.00213766
-0.00243902
-0.00275727
-0.00308994
-0.00343391
-0.00378538
-0.00413994
-0.00449264
-0.00483812
-0.00517069
-0.00548451
-0.00577373
-0.00603271
-0.00625613
-0.00643924
-0.00657798
-0.0066692
-0.00671074
-0.00670162
-0.00664216
-0.00653393
-0.00637992
-0.00618443
-0.00595311
-0.00569279
-0.00541134
-0.00511751
-0.00482063
-0.00453033
-0.0042562
-0.00400746
-0.00379252
-0.00361867
-0.0034917
-0.00341564
-0.00339255
-0.0034224
-0.00350308
-0.0036305
-0.0037989
-0.00400113
-0.00422913
-0.00447439
-0.00472843
-0.00498328
-0.00523186
-0.00546823
-0.00568782
-0.0058874
-0.00606506
-0.00621998
-0.00635217
-0.00646218
-0.00655066
-0.00661809
-0.00666479
-0.00669047
-0.00669032
-0.00665821
0.000950393
0.000767722
0.000634452
0.000529141
0.000434695
0.000347675
0.000264523
0.000181105
9.37326e-05
-8.21772e-07
-0.000105437
-0.000222707
-0.000354984
-0.000504427
-0.000673007
-0.000862512
-0.00107451
-0.00131029
-0.0015708
-0.00185656
-0.00216754
-0.00250316
-0.00286211
-0.00324236
-0.00364111
-0.0040548
-0.00447909
-0.00490896
-0.00533875
-0.00576233
-0.00617318
-0.00656456
-0.00692972
-0.00726204
-0.00755525
-0.00780359
-0.00800204
-0.00814648
-0.0082338
-0.00826213
-0.00823095
-0.00814109
-0.00799488
-0.00779613
-0.0075501
-0.00726346
-0.00694413
-0.00660115
-0.00624441
-0.00588438
-0.0055318
-0.00519727
-0.00489089
-0.00462183
-0.00439792
-0.00422533
-0.00410819
-0.00404847
-0.00404582
-0.00409767
-0.00419935
-0.0043444
-0.00452505
-0.00473265
-0.00495824
-0.00519307
-0.00542906
-0.0056592
-0.00587776
-0.00608044
-0.00626433
-0.00642774
-0.00656999
-0.00669104
-0.00679116
-0.00687054
-0.00692926
-0.0069669
-0.00697961
-0.00696279
0.000995332
0.000789074
0.000641157
0.000526452
0.000424749
0.00033157
0.000242442
0.000152355
5.68974e-05
-4.77495e-05
-0.000164974
-0.000297822
-0.000449065
-0.000621256
-0.000816749
-0.00103768
-0.00128595
-0.00156312
-0.00187036
-0.00220831
-0.00257701
-0.00297581
-0.00340323
-0.00385699
-0.00433388
-0.00482984
-0.00533993
-0.00585842
-0.00637888
-0.00689429
-0.00739719
-0.00787988
-0.00833455
-0.0087535
-0.00912936
-0.00945527
-0.0097251
-0.0099336
-0.0100766
-0.0101513
-0.010156
-0.0100907
-0.00995708
-0.00975812
-0.00949862
-0.0091849
-0.0088248
-0.00842749
-0.00800332
-0.00756351
-0.00711992
-0.00668462
-0.00626947
-0.00588577
-0.00554367
-0.00525185
-0.00501704
-0.00484374
-0.00473396
-0.00468719
-0.00470042
-0.00476842
-0.00488406
-0.00503883
-0.00522345
-0.00542838
-0.00564445
-0.00586335
-0.00607793
-0.00628248
-0.00647274
-0.00664583
-0.00680002
-0.00693443
-0.00704865
-0.00714238
-0.00721528
-0.00726665
-0.00729343
-0.00729242
0.00100977
0.000780114
0.000617745
0.000493726
0.000384605
0.000284766
0.000188741
9.0592e-05
-1.48539e-05
-0.000132043
-0.000264903
-0.000416965
-0.000591456
-0.000791358
-0.00101944
-0.00127822
-0.00156995
-0.00189647
-0.00225918
-0.00265886
-0.00309557
-0.00356857
-0.00407619
-0.00461581
-0.00518377
-0.00577545
-0.00638521
-0.00700653
-0.00763211
-0.00825394
-0.00886352
-0.00945203
-0.0100105
-0.0105301
-0.0110021
-0.0114186
-0.0117721
-0.0120562
-0.0122655
-0.0123961
-0.0124452
-0.0124119
-0.0122967
-0.012102
-0.0118317
-0.0114917
-0.0110896
-0.0106345
-0.0101371
-0.00960903
-0.00906328
-0.00851328
-0.00797273
-0.0074551
-0.00697314
-0.00653837
-0.00616057
-0.00584733
-0.00560368
-0.00543186
-0.00533123
-0.00529838
-0.00532743
-0.00541045
-0.00553805
-0.00570007
-0.0058862
-0.00608662
-0.00629251
-0.00649636
-0.00669217
-0.00687545
-0.00704305
-0.00719288
-0.00732353
-0.00743396
-0.0075232
-0.00759001
-0.00763206
-0.00764735
0.000987286
0.000734708
0.000558236
0.00042503
0.000308311
0.000201229
9.72618e-05
-1.05086e-05
-0.000128049
-0.000260464
-0.000412252
-0.000587468
-0.000789828
-0.00102278
-0.00128955
-0.00159306
-0.00193593
-0.00232031
-0.00274783
-0.00321936
-0.003735
-0.00429388
-0.00489407
-0.00553255
-0.00620517
-0.00690663
-0.00763051
-0.00836942
-0.00911502
-0.00985824
-0.0105894
-0.0112985
-0.0119752
-0.0126094
-0.0131912
-0.0137112
-0.0141607
-0.014532
-0.0148185
-0.0150149
-0.0151175
-0.0151241
-0.0150342
-0.0148493
-0.0145724
-0.0142089
-0.0137657
-0.0132517
-0.0126775
-0.0120553
-0.0113987
-0.0107224
-0.0100418
-0.00937249
-0.00872995
-0.00812877
-0.00758215
-0.00710132
-0.00669498
-0.00636888
-0.00612558
-0.00596431
-0.00588116
-0.0058694
-0.00592005
-0.00602254
-0.00616551
-0.00633753
-0.00652779
-0.00672665
-0.00692591
-0.00711899
-0.00730085
-0.00746775
-0.00761696
-0.00774633
-0.00785399
-0.00793803
-0.00799657
-0.00802872
0.000921369
0.000646663
0.000456581
0.000314348
0.000189812
7.48157e-05
-3.82759e-05
-0.000157393
-0.000289328
-0.000439873
-0.000614132
-0.000816718
-0.00105187
-0.00132355
-0.00163545
-0.00199096
-0.00239306
-0.00284425
-0.00334633
-0.00390031
-0.00450625
-0.00516311
-0.00586864
-0.00661939
-0.00741055
-0.00823609
-0.0090887
-0.00995996
-0.0108404
-0.0117198
-0.0125871
-0.013431
-0.0142399
-0.0150021
-0.0157065
-0.0163422
-0.0168992
-0.0173686
-0.0177425
-0.0180144
-0.0181793
-0.018234
-0.0181769
-0.0180084
-0.0177307
-0.0173482
-0.016867
-0.0162957
-0.0156444
-0.0149255
-0.014153
-0.0133424
-0.0125105
-0.0116749
-0.0108537
-0.0100646
-0.00932445
-0.00864856
-0.00804992
-0.00753857
-0.00712116
-0.00680054
-0.00657571
-0.00644203
-0.00639158
-0.00641391
-0.00649682
-0.00662729
-0.00679234
-0.00697978
-0.00717875
-0.00738004
-0.00757619
-0.0077613
-0.00793084
-0.00808121
-0.00820935
-0.00831238
-0.00838874
-0.00843851
0.000805569
0.000509845
0.000306783
0.000155708
2.30926e-05
-0.000100588
-0.000224121
-0.00035647
-0.00050528
-0.000677059
-0.000877546
-0.00111194
-0.00138506
-0.0017014
-0.00206517
-0.00248022
-0.00294995
-0.00347715
-0.00406385
-0.00471112
-0.00541894
-0.00618604
-0.00700981
-0.00788619
-0.00880969
-0.00977337
-0.0107689
-0.0117868
-0.0128162
-0.0138455
-0.0148625
-0.0158542
-0.0168076
-0.0177097
-0.0185478
-0.0193097
-0.0199843
-0.0205612
-0.0210315
-0.0213873
-0.0216228
-0.0217334
-0.0217167
-0.0215718
-0.0213001
-0.0209048
-0.0203913
-0.0197671
-0.0190421
-0.0182279
-0.0173388
-0.0163906
-0.015401
-0.0143893
-0.0133758
-0.0123811
-0.0114258
-0.0105296
-0.00971
-0.00898227
-0.00835797
-0.00784466
-0.00744543
-0.00715877
-0.00697885
-0.00689608
-0.00689795
-0.00697004
-0.0070971
-0.00726411
-0.00745703
-0.00766344
-0.00787283
-0.00807657
-0.00826779
-0.008441
-0.00859157
-0.0087154
-0.00881103
-0.00887945
0.000633626
0.000318312
0.000103041
-5.66804e-05
-0.000197687
-0.000330913
-0.000466325
-0.000613939
-0.000782264
-0.000978544
-0.00120919
-0.00148001
-0.00179644
-0.00216354
-0.00258608
-0.00306838
-0.00361426
-0.00422681
-0.00490823
-0.00565963
-0.00648085
-0.0073703
-0.00832488
-0.00933986
-0.0104089
-0.011524
-0.0126757
-0.0138531
-0.0150442
-0.0162357
-0.0174138
-0.0185642
-0.0196723
-0.0207236
-0.0217042
-0.0226006
-0.0234002
-0.0240918
-0.0246652
-0.0251118
-0.0254245
-0.0255978
-0.0256285
-0.0255145
-0.0252562
-0.0248558
-0.0243175
-0.023648
-0.022856
-0.0219525
-0.0209511
-0.0198675
-0.0187199
-0.0175285
-0.0163151
-0.0151031
-0.0139163
-0.0127787
-0.0117129
-0.0107395
-0.00987603
-0.00913581
-0.00852726
-0.00805339
-0.00771172
-0.00749464
-0.00739014
-0.0073829
-0.00745556
-0.00759002
-0.00776867
-0.00797525
-0.0081955
-0.00841739
-0.00863107
-0.00882865
-0.00900353
-0.00914993
-0.00926648
-0.00935493
0.000399629
6.64661e-05
-0.000160118
-0.000328276
-0.000478031
-0.000621751
-0.000770589
-0.000935616
-0.00112621
-0.00135038
-0.00161521
-0.00192719
-0.00229236
-0.0027164
-0.00320464
-0.00376191
-0.00439242
-0.00509954
-0.00588561
-0.00675171
-0.00769744
-0.00872081
-0.00981809
-0.0109837
-0.0122103
-0.0134888
-0.0148083
-0.0161564
-0.0175195
-0.0188829
-0.0202311
-0.0215481
-0.0228181
-0.024025
-0.0251536
-0.0261892
-0.0271184
-0.0279288
-0.0286095
-0.029151
-0.0295455
-0.0297865
-0.0298705
-0.0297941
-0.0295568
-0.0291596
-0.0286059
-0.0279008
-0.0270519
-0.0260691
-0.0249649
-0.0237543
-0.022455
-0.0210874
-0.0196743
-0.0182407
-0.0168135
-0.0154202
-0.0140883
-0.0128444
-0.0117123
-0.0107121
-0.00985892
-0.00916167
-0.00862286
-0.00823833
-0.00799782
-0.00788595
-0.00788371
-0.00796999
-0.00812323
-0.00832277
-0.00854987
-0.00878829
-0.00902452
-0.00924762
-0.00944862
-0.0096193
-0.00975857
-0.00986885
9.81661e-05
-0.0002508
-0.000487674
-0.000664043
-0.000822948
-0.000978178
-0.00114207
-0.00132675
-0.00154245
-0.00179794
-0.00210103
-0.00245889
-0.00287822
-0.00336532
-0.0039261
-0.00456588
-0.00528926
-0.00609984
-0.00700004
-0.0079908
-0.0090714
-0.0102393
-0.01149
-0.0128169
-0.0142115
-0.0156633
-0.0171599
-0.0186873
-0.0202301
-0.021772
-0.0232959
-0.0247842
-0.0262194
-0.0275845
-0.0288628
-0.030039
-0.0310985
-0.0320285
-0.0328173
-0.0334549
-0.0339332
-0.0342456
-0.0343864
-0.0343529
-0.0341433
-0.033758
-0.0331987
-0.0324696
-0.0315767
-0.0305283
-0.0293354
-0.0280117
-0.0265737
-0.0250411
-0.0234367
-0.0217863
-0.0201185
-0.0184638
-0.0168544
-0.015322
-0.0138973
-0.0126078
-0.0114763
-0.0105194
-0.00974638
-0.00915822
-0.00874811
-0.00850201
-0.00840008
-0.0084186
-0.00853196
-0.00871458
-0.00894252
-0.00919449
-0.00945245
-0.00970158
-0.00992952
-0.010127
-0.0102911
-0.0104255
-0.000275503
-0.000637945
-0.000883968
-0.00106831
-0.00123679
-0.00140459
-0.00158522
-0.00179181
-0.00203546
-0.00232572
-0.00267111
-0.0030795
-0.00355826
-0.00411435
-0.00475423
-0.00548371
-0.00630772
-0.00723005
-0.0082531
-0.00937758
-0.0106023
-0.011924
-0.0133372
-0.0148342
-0.016405
-0.0180376
-0.0197179
-0.02143
-0.023157
-0.0248805
-0.0265819
-0.028242
-0.0298421
-0.0313638
-0.0327897
-0.0341035
-0.0352904
-0.0363369
-0.0372312
-0.0379632
-0.0385242
-0.0389076
-0.0391076
-0.0391208
-0.0389448
-0.038579
-0.0380243
-0.0372834
-0.0363607
-0.0352631
-0.0339994
-0.0325813
-0.0310237
-0.0293445
-0.0275655
-0.0257121
-0.0238136
-0.0219023
-0.0200135
-0.018184
-0.0164508
-0.0148492
-0.0134104
-0.0121601
-0.0111159
-0.0102863
-0.00967006
-0.00925617
-0.0090255
-0.0089525
-0.00900776
-0.00916053
-0.00938097
-0.00964185
-0.00991968
-0.010195
-0.0104517
-0.0106771
-0.0108682
-0.0110292
-0.0007253
-0.00109863
-0.00135255
-0.0015446
-0.00172309
-0.00190455
-0.0021036
-0.00233436
-0.00260877
-0.00293714
-0.00332872
-0.00379209
-0.00433531
-0.00496596
-0.00569106
-0.00651687
-0.00744859
-0.00849011
-0.0096437
-0.0109097
-0.0122863
-0.0137693
-0.0153522
-0.0170257
-0.0187784
-0.0205964
-0.0224637
-0.0243628
-0.0262745
-0.0281789
-0.0300556
-0.0318841
-0.0336444
-0.0353172
-0.0368845
-0.0383294
-0.039637
-0.0407936
-0.0417875
-0.0426086
-0.0432486
-0.0437007
-0.0439594
-0.0440207
-0.0438822
-0.0435424
-0.0430014
-0.0422607
-0.0413232
-0.0401938
-0.0388793
-0.0373891
-0.0357355
-0.0339341
-0.0320047
-0.029971
-0.0278614
-0.0257088
-0.0235503
-0.0214263
-0.0193792
-0.0174517
-0.0156839
-0.0141114
-0.0127621
-0.0116538
-0.0107932
-0.010175
-0.00978265
-0.00959019
-0.00956519
-0.00967175
-0.00987363
-0.0101368
-0.0104314
-0.0107321
-0.0110184
-0.0112736
-0.0114939
-0.0116845
-0.00125419
-0.00163557
-0.00189605
-0.00209551
-0.00228443
-0.00248061
-0.00269974
-0.00295685
-0.00326472
-0.00363438
-0.00407582
-0.00459832
-0.00521062
-0.00592091
-0.00673674
-0.00766473
-0.00871031
-0.00987736
-0.0111679
-0.0125817
-0.0141161
-0.0157659
-0.0175232
-0.0193771
-0.0213144
-0.0233192
-0.0253736
-0.027458
-0.0295514
-0.0316321
-0.0336781
-0.0356677
-0.0375798
-0.0393945
-0.0410932
-0.0426592
-0.0440774
-0.0453345
-0.0464191
-0.0473217
-0.0480342
-0.0485502
-0.0488646
-0.0489736
-0.0488744
-0.0485652
-0.0480456
-0.0473158
-0.0463776
-0.0452338
-0.0438891
-0.0423506
-0.0406275
-0.0387326
-0.0366825
-0.0344982
-0.0322061
-0.0298377
-0.0274303
-0.0250263
-0.022672
-0.0204163
-0.018308
-0.0163927
-0.0147097
-0.0132884
-0.012146
-0.0112854
-0.0106954
-0.0103517
-0.0102203
-0.0102606
-0.0104298
-0.0106865
-0.010993
-0.0113175
-0.0116336
-0.0119202
-0.0121723
-0.0123958
-0.00186403
-0.00225046
-0.00251605
-0.00272258
-0.00292231
-0.00313422
-0.00337499
-0.00366052
-0.00400434
-0.00441822
-0.00491286
-0.00549822
-0.00618369
-0.00697805
-0.00788932
-0.00892442
-0.0100889
-0.0113865
-0.0128187
-0.0143848
-0.016081
-0.0179008
-0.0198346
-0.02187
-0.0239915
-0.0261813
-0.0284194
-0.0306841
-0.0329525
-0.0352012
-0.0374069
-0.0395467
-0.0415988
-0.0435429
-0.0453604
-0.0470346
-0.0485508
-0.0498964
-0.0510606
-0.0520346
-0.052811
-0.0533842
-0.0537494
-0.0539033
-0.0538432
-0.0535673
-0.0530746
-0.0523646
-0.0514378
-0.0502956
-0.0489406
-0.0473772
-0.0456118
-0.0436538
-0.041516
-0.0392161
-0.0367766
-0.0342266
-0.0316016
-0.0289437
-0.0263014
-0.023728
-0.0212795
-0.0190114
-0.0169748
-0.0152122
-0.0137535
-0.0126129
-0.0117876
-0.0112579
-0.0109902
-0.0109405
-0.0110598
-0.0112984
-0.0116104
-0.0119559
-0.0123015
-0.0126209
-0.0129072
-0.0131672
-0.00255552
-0.00294381
-0.00321297
-0.00342619
-0.00363704
-0.0038656
-0.00412943
-0.00444523
-0.00482726
-0.00528796
-0.0058387
-0.00649012
-0.00725221
-0.00813429
-0.00914475
-0.0102908
-0.0115778
-0.0130094
-0.0145865
-0.0163073
-0.0181669
-0.0201574
-0.0222673
-0.0244822
-0.0267846
-0.0291545
-0.0315695
-0.0340061
-0.0364396
-0.0388449
-0.0411976
-0.043474
-0.0456518
-0.0477105
-0.0496318
-0.0513993
-0.0529993
-0.0544197
-0.0556509
-0.0566849
-0.0575153
-0.0581373
-0.0585469
-0.0587413
-0.0587183
-0.0584761
-0.0580136
-0.0573298
-0.0564243
-0.0552972
-0.0539494
-0.0523827
-0.0506008
-0.0486095
-0.046418
-0.0440393
-0.0414919
-0.0388005
-0.035997
-0.0331215
-0.0302221
-0.0273543
-0.0245794
-0.0219612
-0.0195622
-0.0174386
-0.0156351
-0.0141799
-0.0130819
-0.0123297
-0.0118928
-0.0117259
-0.0117745
-0.0119808
-0.0122896
-0.0126519
-0.0130261
-0.0133792
-0.0137022
-0.0140023
-0.00332807
-0.0037149
-0.00398604
-0.00420548
-0.00442767
-0.00467364
-0.00496178
-0.00530947
-0.00573162
-0.00624131
-0.00685056
-0.00757059
-0.00841198
-0.00938449
-0.0104968
-0.0117563
-0.0131682
-0.0147356
-0.0164586
-0.0183346
-0.0203571
-0.0225164
-0.0247993
-0.027189
-0.029666
-0.0322079
-0.0347903
-0.0373876
-0.0399734
-0.0425215
-0.0450063
-0.0474035
-0.0496908
-0.0518478
-0.0538567
-0.0557019
-0.0573704
-0.0588514
-0.0601363
-0.0612183
-0.0620921
-0.0627537
-0.0632004
-0.0634297
-0.0634402
-0.0632304
-0.0627992
-0.0621454
-0.0612682
-0.0601667
-0.0588401
-0.0572885
-0.0555129
-0.0535159
-0.0513026
-0.0488817
-0.0462666
-0.0434768
-0.0405394
-0.0374901
-0.0343744
-0.0312474
-0.0281727
-0.0252205
-0.0224632
-0.0199702
-0.017802
-0.0160032
-0.014598
-0.0135866
-0.0129457
-0.0126313
-0.0125853
-0.0127423
-0.013037
-0.0134104
-0.0138111
-0.0141985
-0.0145604
-0.0149043
-0.00417975
-0.00456178
-0.00483322
-0.00505832
-0.00529194
-0.00555593
-0.00586938
-0.00625025
-0.00671405
-0.00727442
-0.00794396
-0.00873445
-0.00965695
-0.0107216
-0.0119373
-0.0133114
-0.0148488
-0.0165521
-0.0184204
-0.0204497
-0.0226322
-0.0249561
-0.0274062
-0.0299635
-0.0326061
-0.0353095
-0.0380472
-0.0407917
-0.0435152
-0.0461903
-0.0487908
-0.0512921
-0.0536718
-0.0559103
-0.0579902
-0.0598971
-0.0616191
-0.0631466
-0.0644721
-0.0655902
-0.0664968
-0.0671889
-0.0676648
-0.0679228
-0.0679621
-0.0677819
-0.0673812
-0.0667591
-0.0659142
-0.0648452
-0.0635503
-0.0620281
-0.0602773
-0.0582978
-0.0560912
-0.0536616
-0.0510173
-0.0481721
-0.0451471
-0.0419721
-0.0386877
-0.0353459
-0.0320098
-0.0287528
-0.0256548
-0.022797
-0.0202554
-0.0180925
-0.0163506
-0.0150457
-0.0141655
-0.0136713
-0.0135039
-0.0135914
-0.0138589
-0.0142358
-0.0146601
-0.0150816
-0.0154844
-0.015876
-0.00510736
-0.00548119
-0.0057512
-0.00598131
-0.00622631
-0.0065087
-0.00684816
-0.00726316
-0.00776967
-0.00838186
-0.00911281
-0.0099748
-0.0109793
-0.0121367
-0.0134561
-0.0149445
-0.0166065
-0.0184439
-0.0204548
-0.0226337
-0.024971
-0.027453
-0.0300623
-0.0327776
-0.0355748
-0.038427
-0.0413061
-0.0441827
-0.0470279
-0.0498133
-0.0525123
-0.0551004
-0.0575557
-0.0598589
-0.0619939
-0.0639474
-0.0657085
-0.0672692
-0.0686233
-0.0697665
-0.0706958
-0.0714097
-0.071907
-0.0721874
-0.0722504
-0.0720959
-0.0717235
-0.0711324
-0.0703214
-0.0692887
-0.0680322
-0.0665492
-0.0648371
-0.0628934
-0.0607165
-0.0583068
-0.0556676
-0.0528069
-0.0497391
-0.0464873
-0.0430853
-0.0395794
-0.0360294
-0.0325084
-0.0291004
-0.0258958
-0.0229848
-0.0204481
-0.0183479
-0.0167195
-0.0155663
-0.0148593
-0.0145415
-0.014537
-0.0147614
-0.0151326
-0.0155761
-0.0160309
-0.0164762
-0.0169191
-0.00610635
-0.00646862
-0.00673544
-0.00696979
-0.00722592
-0.00752686
-0.00789272
-0.00834237
-0.00889217
-0.0095567
-0.0103495
-0.0112832
-0.0123695
-0.0136192
-0.0150411
-0.0166421
-0.0184263
-0.0203944
-0.0225433
-0.024866
-0.027351
-0.0299826
-0.0327411
-0.035603
-0.0385418
-0.0415289
-0.0445341
-0.0475268
-0.050477
-0.0533558
-0.0561364
-0.0587946
-0.061309
-0.0636614
-0.0658367
-0.0678228
-0.0696103
-0.0711923
-0.0725641
-0.0737226
-0.074666
-0.0753936
-0.0759055
-0.0762019
-0.0762834
-0.0761504
-0.0758029
-0.0752407
-0.0744627
-0.0734674
-0.0722524
-0.0708144
-0.0691499
-0.0672548
-0.0651251
-0.0627578
-0.0601521
-0.0573104
-0.0542407
-0.0509585
-0.0474898
-0.0438733
-0.0401625
-0.0364269
-0.0327509
-0.0292307
-0.0259677
-0.0230596
-0.0205895
-0.0186148
-0.0171586
-0.0162065
-0.0157083
-0.015587
-0.0157505
-0.0161046
-0.0165615
-0.0170479
-0.0175369
-0.0180346
-0.00717095
-0.00751838
-0.00778021
-0.00801792
-0.00828475
-0.00860408
-0.00899638
-0.00948077
-0.0100739
-0.0107907
-0.0116449
-0.0126496
-0.0138167
-0.0151569
-0.0166791
-0.0183896
-0.0202919
-0.0223855
-0.0246662
-0.0271252
-0.0297491
-0.03252
-0.0354161
-0.0384116
-0.0414781
-0.044585
-0.0477005
-0.0507931