/*--------------------------------*- C++ -*----------------------------------*\
  =========                 |
  \\      /  F ield         | OpenFOAM: The Open Source CFD Toolbox
   \\    /   O peration     | Website:  https://openfoam.org
    \\  /    A nd           | Version:  7
     \\/     M anipulation  |
\*---------------------------------------------------------------------------*/
FoamFile
{
    version     2.0;
    format      ascii;
    class       volVectorField;
    location    "1.3";
    object      U;
}
// * * * * * * * * * * * * * * * * * * * * * * * * * * * * * * * * * * * * * //

dimensions      [0 1 -1 0 0 0 0];

internalField   nonuniform List<vector> 
6400
(
(1.08362e-05 -1.0916e-05 0)
(4.50043e-05 -2.13616e-05 0)
(8.89843e-05 -2.05758e-05 0)
(0.000119862 -1.38784e-05 0)
(0.000126501 -4.86243e-06 0)
(0.000105505 4.60779e-06 0)
(5.66484e-05 1.36239e-05 0)
(-1.86607e-05 2.17831e-05 0)
(-0.000118177 2.89676e-05 0)
(-0.000239356 3.51919e-05 0)
(-0.000379683 4.0545e-05 0)
(-0.000536833 4.51502e-05 0)
(-0.000708755 4.91367e-05 0)
(-0.000893704 5.26275e-05 0)
(-0.00109022 5.57322e-05 0)
(-0.0012971 5.85394e-05 0)
(-0.00151335 6.11156e-05 0)
(-0.00173811 6.35061e-05 0)
(-0.0019706 6.57338e-05 0)
(-0.0022101 6.78006e-05 0)
(-0.00245581 6.96912e-05 0)
(-0.00270689 7.13751e-05 0)
(-0.00296237 7.28083e-05 0)
(-0.00322112 7.39369e-05 0)
(-0.00348186 7.46998e-05 0)
(-0.00374307 7.50307e-05 0)
(-0.00400307 7.48604e-05 0)
(-0.00425995 7.41199e-05 0)
(-0.0045116 7.27426e-05 0)
(-0.00475575 7.06654e-05 0)
(-0.00498993 6.78311e-05 0)
(-0.00521154 6.41911e-05 0)
(-0.00541788 5.97074e-05 0)
(-0.00560617 5.43543e-05 0)
(-0.0057736 4.81209e-05 0)
(-0.00591741 4.10124e-05 0)
(-0.00603489 3.30518e-05 0)
(-0.00612347 2.42818e-05 0)
(-0.00618081 1.47663e-05 0)
(-0.00620481 4.5907e-06 0)
(-0.00619369 -6.1414e-06 0)
(-0.00614607 -1.73007e-05 0)
(-0.00606102 -2.87406e-05 0)
(-0.0059381 -4.02962e-05 0)
(-0.00577743 -5.17873e-05 0)
(-0.00557971 -6.3022e-05 0)
(-0.00534622 -7.38004e-05 0)
(-0.00507889 -8.39193e-05 0)
(-0.00478026 -9.31781e-05 0)
(-0.00445345 -0.000101385 0)
(-0.00410215 -0.000108361 0)
(-0.00373057 -0.000113946 0)
(-0.00334332 -0.000118005 0)
(-0.00294543 -0.000120434 0)
(-0.00254214 -0.000121161 0)
(-0.00213888 -0.000120152 0)
(-0.00174112 -0.000117409 0)
(-0.00135426 -0.000112976 0)
(-0.000983521 -0.000106933 0)
(-0.00063384 -9.93963e-05 0)
(-0.000309746 -9.05132e-05 0)
(-1.52841e-05 -8.04602e-05 0)
(0.000246065 -6.94346e-05 0)
(0.00047146 -5.7649e-05 0)
(0.000658742 -4.53294e-05 0)
(0.000806472 -3.27064e-05 0)
(0.000913951 -2.00128e-05 0)
(0.000981243 -7.48141e-06 0)
(0.00100919 4.65273e-06 0)
(0.000999415 1.61476e-05 0)
(0.000954393 2.67454e-05 0)
(0.000877493 3.61494e-05 0)
(0.000773111 4.39969e-05 0)
(0.000646868 4.98092e-05 0)
(0.000505922 5.29181e-05 0)
(0.000359423 5.23824e-05 0)
(0.000218995 4.69248e-05 0)
(9.90766e-05 3.48968e-05 0)
(1.74692e-05 1.51538e-05 0)
(-5.64768e-06 -5.61472e-06 0)
(2.1557e-05 -4.51762e-05 0)
(7.70016e-05 -7.65828e-05 0)
(0.000133109 -6.42445e-05 0)
(0.000151589 -2.70891e-05 0)
(0.000111741 2.18924e-05 0)
(5.07779e-06 7.47553e-05 0)
(-0.000170575 0.000126906 0)
(-0.000413445 0.000175866 0)
(-0.000719405 0.000220487 0)
(-0.00108317 0.000260415 0)
(-0.00149911 0.000295776 0)
(-0.00196171 0.000326963 0)
(-0.0024659 0.000354485 0)
(-0.00300712 0.000378882 0)
(-0.0035814 0.000400653 0)
(-0.00418528 0.000420223 0)
(-0.00481574 0.000437918 0)
(-0.00547006 0.000453951 0)
(-0.00614567 0.000468425 0)
(-0.00684005 0.000481333 0)
(-0.00755058 0.00049257 0)
(-0.00827444 0.000501948 0)
(-0.00900849 0.000509203 0)
(-0.0097492 0.000514018 0)
(-0.0104926 0.000516036 0)
(-0.0112342 0.000514873 0)
(-0.011969 0.000510136 0)
(-0.0126917 0.000501437 0)
(-0.0133961 0.000488406 0)
(-0.014076 0.000470708 0)
(-0.0147245 0.000448047 0)
(-0.0153345 0.000420192 0)
(-0.0158988 0.00038698 0)
(-0.01641 0.000348327 0)
(-0.0168606 0.000304246 0)
(-0.0172435 0.000254849 0)
(-0.0175516 0.00020036 0)
(-0.0177785 0.000141119 0)
(-0.0179182 7.75863e-05 0)
(-0.0179656 1.0345e-05 0)
(-0.0179165 -5.98987e-05 0)
(-0.0177677 -0.00013233 0)
(-0.0175171 -0.000206024 0)
(-0.0171643 -0.000279963 0)
(-0.0167098 -0.000353053 0)
(-0.0161559 -0.000424141 0)
(-0.0155066 -0.000492044 0)
(-0.014767 -0.000555571 0)
(-0.0139443 -0.000613555 0)
(-0.0130467 -0.000664884 0)
(-0.012084 -0.00070853 0)
(-0.0110674 -0.00074358 0)
(-0.010009 -0.000769265 0)
(-0.00892174 -0.000784986 0)
(-0.00781938 -0.000790335 0)
(-0.00671598 -0.000785112 0)
(-0.00562577 -0.000769333 0)
(-0.0045628 -0.000743235 0)
(-0.00354068 -0.000707273 0)
(-0.00257232 -0.000662107 0)
(-0.00166965 -0.000608588 0)
(-0.000843381 -0.000547736 0)
(-0.000102797 -0.000480712 0)
(0.000544418 -0.000408789 0)
(0.00109234 -0.000333329 0)
(0.00153692 -0.00025576 0)
(0.00187607 -0.00017755 0)
(0.00210974 -0.000100202 0)
(0.00223998 -2.52635e-05 0)
(0.00227106 4.56601e-05 0)
(0.00220949 0.000110858 0)
(0.00206428 0.000168438 0)
(0.00184712 0.000216223 0)
(0.00157269 0.000251609 0)
(0.00125915 0.000271389 0)
(0.000928566 0.000271635 0)
(0.000606877 0.000247814 0)
(0.00032322 0.000195327 0)
(0.00011231 0.000112554 0)
(1.49544e-05 1.73523e-05 0)
(2.13144e-05 -9.00695e-05 0)
(6.54275e-05 -0.000133033 0)
(8.67011e-05 -8.65231e-05 0)
(4.35614e-05 1.27938e-05 0)
(-8.7414e-05 0.000139783 0)
(-0.000316858 0.000277522 0)
(-0.000647948 0.000415232 0)
(-0.00107882 0.000546531 0)
(-0.00160436 0.000668035 0)
(-0.00221766 0.000778343 0)
(-0.00291109 0.000877318 0)
(-0.00367694 0.000965579 0)
(-0.00450789 0.00104414 0)
(-0.00539722 0.00111416 0)
(-0.00633883 0.00117676 0)
(-0.00732729 0.0012329 0)
(-0.00835764 0.00128334 0)
(-0.00942529 0.00132856 0)
(-0.0105258 0.00136876 0)
(-0.0116549 0.00140389 0)
(-0.0128077 0.00143363 0)
(-0.0139796 0.00145746 0)
(-0.0151649 0.00147469 0)
(-0.0163578 0.00148445 0)
(-0.0175515 0.0014858 0)
(-0.0187387 0.00147774 0)
(-0.0199113 0.00145925 0)
(-0.0210604 0.00142933 0)
(-0.0221766 0.00138705 0)
(-0.0232497 0.00133157 0)
(-0.0242692 0.00126218 0)
(-0.0252241 0.00117836 0)
(-0.0261032 0.00107977 0)
(-0.0268952 0.000966299 0)
(-0.0275889 0.000838106 0)
(-0.0281736 0.000695619 0)
(-0.0286389 0.000539564 0)
(-0.0289754 0.000370975 0)
(-0.0291744 0.000191205 0)
(-0.0292287 1.92218e-06 0)
(-0.0291323 -0.000194889 0)
(-0.028881 -0.00039697 0)
(-0.0284724 -0.00060179 0)
(-0.027906 -0.000806589 0)
(-0.0271834 -0.00100843 0)
(-0.0263085 -0.00120423 0)
(-0.0252876 -0.00139086 0)
(-0.0241289 -0.00156518 0)
(-0.0228433 -0.00172413 0)
(-0.0214435 -0.00186479 0)
(-0.0199444 -0.00198449 0)
(-0.0183625 -0.00208086 0)
(-0.0167162 -0.00215188 0)
(-0.015025 -0.00219601 0)
(-0.0133091 -0.00221217 0)
(-0.0115898 -0.00219985 0)
(-0.00988824 -0.00215905 0)
(-0.00822541 -0.0020904 0)
(-0.00662176 -0.00199504 0)
(-0.0050967 -0.0018747 0)
(-0.00366828 -0.00173158 0)
(-0.00235279 -0.00156835 0)
(-0.00116446 -0.00138808 0)
(-0.000115163 -0.00119414 0)
(0.000785791 -0.000990203 0)
(0.0015319 -0.000780122 0)
(0.0021196 -0.000567921 0)
(0.00254842 -0.000357755 0)
(0.00282112 -0.000153925 0)
(0.00294378 3.90896e-05 0)
(0.00292598 0.000216537 0)
(0.00278097 0.000373277 0)
(0.00252592 0.000503593 0)
(0.00218219 0.000600988 0)
(0.00177564 0.000658019 0)
(0.00133689 0.000666333 0)
(0.000900708 0.000617266 0)
(0.000504716 0.000503429 0)
(0.000195403 0.000323408 0)
(3.45964e-05 9.85641e-05 0)
(1.47479e-05 -0.000122004 0)
(2.66728e-05 -0.000150579 0)
(-1.91389e-05 -4.22911e-05 0)
(-0.000159474 0.000148012 0)
(-0.000416026 0.000382811 0)
(-0.000799211 0.000635832 0)
(-0.00131182 0.000889523 0)
(-0.00195132 0.00113297 0)
(-0.00271164 0.00136003 0)
(-0.00358465 0.00156783 0)
(-0.00456126 0.00175573 0)
(-0.00563217 0.00192443 0)
(-0.00678837 0.00207541 0)
(-0.00802141 0.00221046 0)
(-0.00932349 0.00233136 0)
(-0.0106874 0.00243967 0)
(-0.0121065 0.00253657 0)
(-0.0135744 0.00262281 0)
(-0.0150848 0.00269867 0)
(-0.0166315 0.00276395 0)
(-0.0182078 0.00281802 0)
(-0.0198067 0.00285988 0)
(-0.0214204 0.00288819 0)
(-0.0230405 0.0029014 0)
(-0.0246576 0.00289776 0)
(-0.0262615 0.00287546 0)
(-0.0278413 0.00283265 0)
(-0.0293848 0.00276756 0)
(-0.0308795 0.00267855 0)
(-0.0323119 0.00256418 0)
(-0.0336679 0.00242327 0)
(-0.0349334 0.00225499 0)
(-0.0360936 0.00205886 0)
(-0.0371342 0.00183486 0)
(-0.0380409 0.00158345 0)
(-0.0388001 0.00130561 0)
(-0.0393987 0.00100285 0)
(-0.039825 0.000677262 0)
(-0.0400686 0.000331506 0)
(-0.0401205 -3.11961e-05 0)
(-0.0399738 -0.000407072 0)
(-0.0396237 -0.000791846 0)
(-0.0390675 -0.00118078 0)
(-0.0383054 -0.00156876 0)
(-0.03734 -0.00195034 0)
(-0.0361767 -0.00231989 0)
(-0.0348238 -0.00267166 0)
(-0.0332923 -0.00299996 0)
(-0.0315962 -0.0032992 0)
(-0.0297518 -0.00356412 0)
(-0.0277782 -0.00378988 0)
(-0.0256966 -0.00397216 0)
(-0.0235299 -0.00410736 0)
(-0.021303 -0.00419265 0)
(-0.0190417 -0.00422609 0)
(-0.0167727 -0.00420667 0)
(-0.0145228 -0.00413443 0)
(-0.0123188 -0.0040104 0)
(-0.0101867 -0.00383665 0)
(-0.0081514 -0.00361623 0)
(-0.00623598 -0.00335312 0)
(-0.00446156 -0.00305214 0)
(-0.00284667 -0.00271887 0)
(-0.00140698 -0.00235951 0)
(-0.000154897 -0.0019808 0)
(0.000900655 -0.00158991 0)
(0.0017545 -0.00119435 0)
(0.00240539 -0.000801929 0)
(0.00285621 -0.000420747 0)
(0.00311409 -5.92368e-05 0)
(0.00319062 0.000273724 0)
(0.00310199 0.000568664 0)
(0.00286915 0.000815306 0)
(0.00251803 0.00100237 0)
(0.00207972 0.00111746 0)
(0.00159054 0.00114733 0)
(0.00109114 0.00107876 0)
(0.000625434 0.000900699 0)
(0.000250176 0.000608892 0)
(4.68414e-05 0.00021854 0)
(5.13771e-06 -0.000128289 0)
(-2.81124e-05 -0.000104041 0)
(-0.000163857 9.89005e-05 0)
(-0.000427976 0.00040983 0)
(-0.000837149 0.000779944 0)
(-0.00139963 0.00117429 0)
(-0.0021165 0.0015689 0)
(-0.00298372 0.00194843 0)
(-0.00399396 0.00230391 0)
(-0.00513784 0.0026309 0)
(-0.00640504 0.00292811 0)
(-0.00778497 0.00319627 0)
(-0.00926728 0.00343722 0)
(-0.0108421 0.00365334 0)
(-0.0125003 0.00384703 0)
(-0.0142331 0.00402037 0)
(-0.0160322 0.00417494 0)
(-0.0178898 0.00431169 0)
(-0.0197978 0.00443086 0)
(-0.021748 0.00453201 0)
(-0.0237318 0.00461406 0)
(-0.0257402 0.00467539 0)
(-0.027763 0.0047139 0)
(-0.0297894 0.00472714 0)
(-0.0318076 0.00471245 0)
(-0.0338047 0.00466704 0)
(-0.0357667 0.00458814 0)
(-0.0376789 0.00447309 0)
(-0.0395256 0.00431949 0)
(-0.0412903 0.00412525 0)
(-0.0429563 0.00388874 0)
(-0.0445061 0.00360886 0)
(-0.0459224 0.00328512 0)
(-0.0471881 0.00291771 0)
(-0.0482864 0.00250761 0)
(-0.0492013 0.00205655 0)
(-0.0499178 0.00156716 0)
(-0.0504225 0.00104287 0)
(-0.0507034 0.000488032 0)
(-0.0507506 -9.21941e-05 0)
(-0.0505565 -0.000691825 0)
(-0.0501158 -0.00130413 0)
(-0.0494263 -0.00192171 0)
(-0.0484884 -0.00253661 0)
(-0.0473058 -0.00314043 0)
(-0.0458853 -0.00372452 0)
(-0.0442369 -0.00428006 0)
(-0.042374 -0.00479833 0)
(-0.0403129 -0.00527084 0)
(-0.0380731 -0.00568955 0)
(-0.035677 -0.00604709 0)
(-0.0331492 -0.00633691 0)
(-0.0305169 -0.00655348 0)
(-0.0278089 -0.00669246 0)
(-0.0250556 -0.00675085 0)
(-0.0222881 -0.00672708 0)
(-0.019538 -0.00662109 0)
(-0.0168368 -0.00643437 0)
(-0.0142152 -0.00616998 0)
(-0.0117027 -0.00583248 0)
(-0.00932686 -0.00542786 0)
(-0.00711307 -0.00496342 0)
(-0.00508373 -0.00444768 0)
(-0.003258 -0.00389016 0)
(-0.00165129 -0.00330126 0)
(-0.000275003 -0.0026921 0)
(0.000863868 -0.00207438 0)
(0.00176293 -0.00146035 0)
(0.00242463 -0.000862694 0)
(0.00285642 -0.000294618 0)
(0.00307095 0.000230079 0)
(0.00308618 0.000696841 0)
(0.00292552 0.00109017 0)
(0.00261788 0.00139344 0)
(0.00219785 0.00158892 0)
(0.00170565 0.00165803 0)
(0.00118635 0.0015824 0)
(0.000689068 0.00134576 0)
(0.00027919 0.000937614 0)
(5.30227e-05 0.000360767 0)
(-5.94183e-06 -0.000102825 0)
(-9.23695e-05 2.15943e-05 0)
(-0.000333867 0.000357388 0)
(-0.000741419 0.000821191 0)
(-0.00132415 0.00135468 0)
(-0.00208659 0.00191543 0)
(-0.00302686 0.00247386 0)
(-0.00413864 0.00301069 0)
(-0.00541278 0.0035144 0)
(-0.00683849 0.00397915 0)
(-0.00840417 0.00440306 0)
(-0.0100981 0.00478685 0)
(-0.0119087 0.00513273 0)
(-0.013825 0.00544361 0)
(-0.0158366 0.00572242 0)
(-0.0179335 0.00597172 0)
(-0.020106 0.00619338 0)
(-0.0223448 0.00638843 0)
(-0.0246401 0.00655696 0)
(-0.0269822 0.00669816 0)
(-0.0293605 0.00681036 0)
(-0.0317637 0.00689118 0)
(-0.0341798 0.0069376 0)
(-0.0365956 0.00694618 0)
(-0.0389967 0.00691318 0)
(-0.0413678 0.00683477 0)
(-0.0436924 0.00670714 0)
(-0.045953 0.00652673 0)
(-0.0481314 0.00629032 0)
(-0.0502084 0.00599522 0)
(-0.0521645 0.00563938 0)
(-0.05398 0.00522154 0)
(-0.0556351 0.00474131 0)
(-0.0571103 0.00419928 0)
(-0.0583869 0.00359711 0)
(-0.059447 0.00293757 0)
(-0.0602741 0.00222462 0)
(-0.0608532 0.00146338 0)
(-0.0611715 0.000660157 0)
(-0.0612182 -0.000177593 0)
(-0.0609852 -0.00104133 0)
(-0.0604672 -0.00192151 0)
(-0.059662 -0.00280773 0)
(-0.0585705 -0.00368882 0)
(-0.0571972 -0.00455308 0)
(-0.05555 -0.00538843 0)
(-0.0536405 -0.00618269 0)
(-0.0514835 -0.00692375 0)
(-0.0490977 -0.00759987 0)
(-0.0465046 -0.00819995 0)
(-0.0437294 -0.00871376 0)
(-0.0407996 -0.00913223 0)
(-0.0377454 -0.00944769 0)
(-0.0345992 -0.00965405 0)
(-0.0313948 -0.00974706 0)
(-0.0281672 -0.00972442 0)
(-0.024952 -0.00958589 0)
(-0.0217846 -0.00933339 0)
(-0.0187 -0.00897094 0)
(-0.0157316 -0.0085047 0)
(-0.0129111 -0.00794283 0)
(-0.0102678 -0.00729535 0)
(-0.00782765 -0.00657399 0)
(-0.0056133 -0.00579196 0)
(-0.00364319 -0.00496377 0)
(-0.00193127 -0.00410501 0)
(-0.000486645 -0.00323219 0)
(0.000686744 -0.00236256 0)
(0.00159039 -0.00151409 0)
(0.00223141 -0.000705386 0)
(0.0026227 4.41636e-05 0)
(0.00278307 0.000714324 0)
(0.0027373 0.00128383 0)
(0.00251619 0.00173027 0)
(0.00215663 0.00203009 0)
(0.00170165 0.00215889 0)
(0.00119975 0.00209226 0)
(0.000704467 0.00180724 0)
(0.000287664 0.00128469 0)
(5.49126e-05 0.000512522 0)
(-1.77183e-05 -4.22014e-05 0)
(-0.000162318 0.000236333 0)
(-0.000520418 0.000747769 0)
(-0.00108568 0.00139936 0)
(-0.0018579 0.0021253 0)
(-0.00283662 0.00287723 0)
(-0.00401597 0.00362109 0)
(-0.0053865 0.00433446 0)
(-0.00693678 0.00500384 0)
(-0.00865425 0.00562232 0)
(-0.0105259 0.00618767 0)
(-0.0125388 0.00670071 0)
(-0.0146804 0.00716406 0)
(-0.0169387 0.00758113 0)
(-0.0193021 0.00795535 0)
(-0.0217596 0.00828964 0)
(-0.0243004 0.00858607 0)
(-0.0269135 0.0088456 0)
(-0.029588 0.00906806 0)
(-0.0323123 0.00925212 0)
(-0.0350741 0.00939538 0)
(-0.0378604 0.00949453 0)
(-0.0406569 0.00954554 0)
(-0.0434483 0.00954383 0)
(-0.046218 0.00948451 0)
(-0.0489484 0.00936262 0)
(-0.0516205 0.0091733 0)
(-0.0542146 0.00891202 0)
(-0.0567099 0.00857481 0)
(-0.059085 0.00815839 0)
(-0.0613181 0.00766039 0)
(-0.0633874 0.0070795 0)
(-0.0652709 0.00641555 0)
(-0.0669475 0.00566972 0)
(-0.0683965 0.00484456 0)
(-0.0695988 0.00394407 0)
(-0.0705363 0.00297378 0)
(-0.0711932 0.00194074 0)
(-0.0715555 0.00085349 0)
(-0.071612 -0.000277967 0)
(-0.0713542 -0.00144226 0)
(-0.0707765 -0.00262678 0)
(-0.0698768 -0.0038178 0)
(-0.0686563 -0.00500072 0)
(-0.0671201 -0.00616022 0)
(-0.0652768 -0.00728058 0)
(-0.0631389 -0.00834592 0)
(-0.0607225 -0.00934052 0)
(-0.0580478 -0.0102491 0)
(-0.0551381 -0.0110572 0)
(-0.0520204 -0.0117516 0)
(-0.0487246 -0.0123203 0)
(-0.0452834 -0.0127534 0)
(-0.0417319 -0.0130426 0)
(-0.0381069 -0.0131824 0)
(-0.0344467 -0.0131695 0)
(-0.0307903 -0.0130033 0)
(-0.0271768 -0.012686 0)
(-0.0236447 -0.0122227 0)
(-0.0202314 -0.011621 0)
(-0.0169723 -0.0108914 0)
(-0.0139004 -0.0100466 0)
(-0.0110455 -0.00910185 0)
(-0.00843352 -0.00807435 0)
(-0.00608602 -0.00698304 0)
(-0.00401982 -0.0058484 0)
(-0.00224644 -0.00469218 0)
(-0.000771744 -0.0035372 0)
(0.000404291 -0.0024072 0)
(0.00128785 -0.00132681 0)
(0.00189141 -0.000321499 0)
(0.00223389 0.000582282 0)
(0.00234064 0.00135703 0)
(0.0022435 0.00197406 0)
(0.00198087 0.00240354 0)
(0.00159783 0.00261464 0)
(0.00114553 0.00257612 0)
(0.000681007 0.00225723 0)
(0.000280473 0.00162895 0)
(5.38633e-05 0.00066415 0)
(-2.98234e-05 5.56982e-05 0)
(-0.000235758 0.000546908 0)
(-0.00071789 0.00128048 0)
(-0.00145112 0.00215715 0)
(-0.00242473 0.0031058 0)
(-0.00363229 0.00407379 0)
(-0.00506308 0.00502394 0)
(-0.00670387 0.0059317 0)
(-0.00854041 0.00678235 0)
(-0.010558 0.00756847 0)
(-0.0127422 0.00828781 0)
(-0.0150787 0.00894153 0)
(-0.0175538 0.00953276 0)
(-0.0201547 0.0100654 0)
(-0.0228689 0.0105435 0)
(-0.0256843 0.0109701 0)
(-0.028589 0.0113474 0)
(-0.0315709 0.0116762 0)
(-0.0346177 0.0119559 0)
(-0.0377164 0.0121844 0)
(-0.040853 0.0123586 0)
(-0.0440127 0.0124741 0)
(-0.0471793 0.0125256 0)
(-0.0503356 0.0125075 0)
(-0.053463 0.0124135 0)
(-0.0565416 0.0122375 0)
(-0.0595505 0.0119736 0)
(-0.0624675 0.0116164 0)
(-0.0652701 0.011161 0)
(-0.0679346 0.0106038 0)
(-0.0704374 0.00994214 0)
(-0.0727547 0.00917475 0)
(-0.0748629 0.00830186 0)
(-0.0767393 0.00732537 0)
(-0.0783618 0.00624889 0)
(-0.0797098 0.00507786 0)
(-0.0807644 0.00381955 0)
(-0.0815086 0.00248313 0)
(-0.0819278 0.00107958 0)
(-0.08201 -0.000378365 0)
(-0.0817463 -0.00187632 0)
(-0.0811309 -0.00339839 0)
(-0.0801614 -0.00492738 0)
(-0.078839 -0.006445 0)
(-0.077169 -0.00793218 0)
(-0.0751603 -0.00936932 0)
(-0.072826 -0.0107366 0)
(-0.0701829 -0.0120146 0)
(-0.0672519 -0.0131841 0)
(-0.0640579 -0.0142272 0)
(-0.0606289 -0.0151272 0)
(-0.0569968 -0.0158692 0)
(-0.0531962 -0.0164404 0)
(-0.0492643 -0.0168306 0)
(-0.0452407 -0.0170323 0)
(-0.0411664 -0.0170411 0)
(-0.0370835 -0.016856 0)
(-0.0330345 -0.0164792 0)
(-0.0290613 -0.0159165 0)
(-0.0252051 -0.0151772 0)
(-0.0215051 -0.0142739 0)
(-0.017998 -0.0132222 0)
(-0.0147173 -0.012041 0)
(-0.0116925 -0.0107515 0)
(-0.00894873 -0.00937741 0)
(-0.00650578 -0.00794452 0)
(-0.00437797 -0.00648016 0)
(-0.00257356 -0.00501316 0)
(-0.00109445 -0.00357352 0)
(6.40701e-05 -0.00219235 0)
(0.000913506 -0.000901714 0)
(0.00147225 0.000265253 0)
(0.00176563 0.00127433 0)
(0.00182592 0.00209012 0)
(0.00169242 0.00267598 0)
(0.0014116 0.00299414 0)
(0.00103659 0.00300587 0)
(0.000627069 0.00267199 0)
(0.00026164 0.00195326 0)
(5.08539e-05 0.000808587 0)
(-4.21335e-05 0.000192151 0)
(-0.000311457 0.000957798 0)
(-0.000922632 0.00196281 0)
(-0.00183104 0.00310389 0)
(-0.00301467 0.00430663 0)
(-0.00446039 0.00551591 0)
(-0.00615199 0.00669285 0)
(-0.00807188 0.00781196 0)
(-0.0102026 0.0088582 0)
(-0.012527 0.00982428 0)
(-0.0150287 0.0107084 0)
(-0.0176923 0.0115125 0)
(-0.020503 0.0122403 0)
(-0.023447 0.0128964 0)
(-0.0265109 0.0134851 0)
(-0.0296817 0.0140098 0)
(-0.0329467 0.0144728 0)
(-0.0362927 0.0148745 0)
(-0.0397061 0.0152137 0)
(-0.0431726 0.0154875 0)
(-0.0466768 0.0156918 0)
(-0.0502022 0.015821 0)
(-0.0537311 0.0158687 0)
(-0.0572442 0.0158277 0)
(-0.0607213 0.0156907 0)
(-0.0641404 0.0154503 0)
(-0.0674789 0.0150995 0)
(-0.0707127 0.0146319 0)
(-0.0738173 0.0140422 0)
(-0.0767674 0.0133261 0)
(-0.0795377 0.0124809 0)
(-0.0821028 0.0115055 0)
(-0.0844377 0.0104006 0)
(-0.0865182 0.00916903 0)
(-0.088321 0.00781557 0)
(-0.0898245 0.00634721 0)
(-0.0910086 0.00477313 0)
(-0.0918555 0.00310473 0)
(-0.0923497 0.00135555 0)
(-0.0924787 -0.000458803 0)
(-0.0922326 -0.00232081 0)
(-0.0916052 -0.00421118 0)
(-0.0905937 -0.00610911 0)
(-0.089199 -0.00799254 0)
(-0.0874258 -0.00983845 0)
(-0.0852832 -0.0116232 0)
(-0.082784 -0.013323 0)
(-0.0799455 -0.0149142 0)
(-0.0767889 -0.0163739 0)
(-0.0733395 -0.0176801 0)
(-0.0696266 -0.0188126 0)
(-0.065683 -0.0197531 0)
(-0.0615448 -0.0204859 0)
(-0.0572514 -0.0209981 0)
(-0.0528443 -0.0212804 0)
(-0.0483671 -0.0213268 0)
(-0.0438649 -0.0211354 0)
(-0.0393833 -0.0207084 0)
(-0.0349678 -0.0200522 0)
(-0.0306633 -0.0191773 0)
(-0.0265128 -0.0180985 0)
(-0.0225569 -0.0168344 0)
(-0.0188333 -0.0154073 0)
(-0.0153752 -0.0138429 0)
(-0.0122115 -0.0121697 0)
(-0.00936549 -0.0104191 0)
(-0.00685474 -0.00862426 0)
(-0.00469031 -0.00682056 0)
(-0.00287652 -0.00504466 0)
(-0.00141062 -0.00333459 0)
(-0.000282597 -0.00172951 0)
(0.000524916 -0.000269686 0)
(0.00103672 0.00100347 0)
(0.00128503 0.00204735 0)
(0.00130956 0.00281808 0)
(0.00115765 0.0032704 0)
(0.000883802 0.00335769 0)
(0.000549502 0.00303206 0)
(0.000234249 0.00224427 0)
(4.65571e-05 0.00094076 0)
(-5.45549e-05 0.000367931 0)
(-0.000388582 0.00147194 0)
(-0.00113211 0.00279973 0)
(-0.00222058 0.00424608 0)
(-0.00362017 0.00573528 0)
(-0.00531058 0.00721147 0)
(-0.00726962 0.00863556 0)
(-0.00947489 0.00998239 0)
(-0.0119053 0.0112376 0)
(-0.0145411 0.0123948 0)
(-0.0173641 0.0134533 0)
(-0.0203571 0.014416 0)
(-0.0235044 0.0152875 0)
(-0.0267912 0.0160734 0)
(-0.0302035 0.0167783 0)
(-0.0337273 0.017406 0)
(-0.0373492 0.0179585 0)
(-0.041055 0.0184357 0)
(-0.04483 0.0188359 0)
(-0.0486588 0.0191552 0)
(-0.0525247 0.0193884 0)
(-0.0564098 0.0195285 0)
(-0.0602948 0.0195678 0)
(-0.0641589 0.0194978 0)
(-0.0679801 0.0193099 0)
(-0.0717351 0.0189953 0)
(-0.0753993 0.0185461 0)
(-0.0789471 0.017955 0)
(-0.0823525 0.0172161 0)
(-0.0855887 0.0163246 0)
(-0.0886289 0.0152779 0)
(-0.0914463 0.0140751 0)
(-0.0940148 0.0127177 0)
(-0.0963088 0.0112091 0)
(-0.0983041 0.0095557 0)
(-0.0999778 0.00776599 0)
(-0.101309 0.00585115 0)
(-0.102279 0.0038249 0)
(-0.102871 0.00170339 0)
(-0.103072 -0.000494853 0)
(-0.102871 -0.00274912 0)
(-0.102261 -0.00503668 0)
(-0.101238 -0.00733305 0)
(-0.0998024 -0.00961231 0)
(-0.0979584 -0.0118474 0)
(-0.095714 -0.0140106 0)
(-0.0930819 -0.0160739 0)
(-0.0900787 -0.0180093 0)
(-0.0867256 -0.0197897 0)
(-0.083048 -0.0213892 0)
(-0.0790756 -0.0227835 0)
(-0.0748418 -0.0239508 0)
(-0.0703842 -0.0248719 0)
(-0.0657432 -0.0255311 0)
(-0.0609626 -0.0259166 0)
(-0.0560883 -0.0260205 0)
(-0.0511682 -0.0258398 0)
(-0.046251 -0.0253763 0)
(-0.0413859 -0.0246365 0)
(-0.0366215 -0.0236323 0)
(-0.032005 -0.0223802 0)
(-0.0275812 -0.0209017 0)
(-0.0233921 -0.0192226 0)
(-0.0194753 -0.0173732 0)
(-0.0158637 -0.015387 0)
(-0.0125847 -0.0133011 0)
(-0.00965952 -0.0111552 0)
(-0.00710258 -0.00899119 0)
(-0.00492109 -0.00685302 0)
(-0.00311476 -0.00478607 0)
(-0.00167556 -0.00283707 0)
(-0.000587573 -0.00105392 0)
(0.000173019 0.000514313 0)
(0.000637967 0.00181734 0)
(0.000846977 0.00280355 0)
(0.000847806 0.00341984 0)
(0.000695795 0.00361139 0)
(0.000453614 0.00332156 0)
(0.000200567 0.0024916 0)
(4.14238e-05 0.00105703 0)
(-6.70412e-05 0.000583568 0)
(-0.000466557 0.00209123 0)
(-0.00134445 0.00379446 0)
(-0.00261598 0.00558803 0)
(-0.00423525 0.00739676 0)
(-0.00617445 0.00916575 0)
(-0.00840506 0.0108573 0)
(-0.0108996 0.0124477 0)
(-0.0136331 0.0139246 0)
(-0.016583 0.0152831 0)
(-0.0197289 0.0165245 0)
(-0.0230522 0.0176529 0)
(-0.026536 0.0186745 0)
(-0.0301646 0.0195955 0)
(-0.0339232 0.0204213 0)
(-0.0377973 0.0211557 0)
(-0.0417725 0.0218005 0)
(-0.045834 0.0223554 0)
(-0.0499662 0.0228176 0)
(-0.0541525 0.0231823 0)
(-0.0583752 0.0234429 0)
(-0.062615 0.0235912 0)
(-0.0668515 0.0236179 0)
(-0.0710625 0.0235132 0)
(-0.0752246 0.0232671 0)
(-0.079313 0.0228696 0)
(-0.0833017 0.0223118 0)
(-0.0871639 0.0215855 0)
(-0.0908722 0.0206841 0)
(-0.0943984 0.0196028 0)
(-0.0977146 0.0183388 0)
(-0.100793 0.0168917 0)
(-0.103606 0.0152635 0)
(-0.106127 0.0134588 0)
(-0.108331 0.0114851 0)
(-0.110194 0.00935274 0)
(-0.111694 0.00707483 0)
(-0.112812 0.00466739 0)
(-0.113528 0.0021492 0)
(-0.11383 -0.000458325 0)
(-0.113704 -0.00313128 0)
(-0.113144 -0.0058435 0)
(-0.112143 -0.00856682 0)
(-0.1107 -0.0112714 0)
(-0.108819 -0.0139262 0)
(-0.106506 -0.0164991 0)
(-0.103773 -0.0189578 0)
(-0.100636 -0.02127 0)
(-0.0971153 -0.0234041 0)
(-0.0932356 -0.0253297 0)
(-0.0890265 -0.0270184 0)
(-0.0845221 -0.0284442 0)
(-0.0797603 -0.0295843 0)
(-0.0747831 -0.0304195 0)
(-0.0696357 -0.0309351 0)
(-0.0643664 -0.0311211 0)
(-0.0590257 -0.0309727 0)
(-0.0536657 -0.0304906 0)
(-0.0483391 -0.0296817 0)
(-0.0430986 -0.0285582 0)
(-0.0379959 -0.0271387 0)
(-0.0330804 -0.0254472 0)
(-0.0283988 -0.0235132 0)
(-0.0239936 -0.0213712 0)
(-0.0199023 -0.0190601 0)
(-0.016157 -0.016623 0)
(-0.012783 -0.0141062 0)
(-0.00979868 -0.0115588 0)
(-0.00721472 -0.00903226 0)
(-0.00503379 -0.00657991 0)
(-0.00325031 -0.0042565 0)
(-0.00185028 -0.0021181 0)
(-0.000811254 -0.000221959 0)
(-0.000102319 0.00137347 0)
(0.000315864 0.00260842 0)
(0.000491089 0.00342155 0)
(0.00047912 0.00374965 0)
(0.000343351 0.00352743 0)
(0.000162215 0.00268715 0)
(3.57547e-05 0.00115476 0)
(-7.95534e-05 0.000839346 0)
(-0.000544918 0.00281671 0)
(-0.00155812 0.00494879 0)
(-0.00301415 0.00713215 0)
(-0.00485485 0.00929386 0)
(-0.00704475 0.0113817 0)
(-0.0095488 0.0133608 0)
(-0.0123342 0.0152105 0)
(-0.015372 0.0169211 0)
(-0.0186366 0.0184906 0)
(-0.0221054 0.0199225 0)
(-0.0257582 0.0212231 0)
(-0.029577 0.0224 0)
(-0.0335453 0.0234607 0)
(-0.0376474 0.0244111 0)
(-0.0418684 0.0252554 0)
(-0.0461931 0.0259952 0)
(-0.0506061 0.0266294 0)
(-0.0550909 0.0271544 0)
(-0.0596303 0.0275643 0)
(-0.0642054 0.027851 0)
(-0.068796 0.0280049 0)
(-0.0733805 0.0280154 0)
(-0.0779357 0.0278711 0)
(-0.0824369 0.0275605 0)
(-0.0868581 0.0270726 0)
(-0.0911724 0.0263973 0)
(-0.0953516 0.0255257 0)
(-0.0993673 0.0244508 0)
(-0.10319 0.0231674 0)
(-0.106792 0.0216728 0)
(-0.110142 0.0199669 0)
(-0.113214 0.0180524 0)
(-0.11598 0.015935 0)
(-0.118412 0.0136234 0)
(-0.120487 0.0111297 0)
(-0.122181 0.00846898 0)
(-0.123473 0.00565939 0)
(-0.124343 0.00272231 0)
(-0.124777 -0.00031803 0)
(-0.12476 -0.0034346 0)
(-0.124283 -0.00659785 0)
(-0.123339 -0.009776 0)
(-0.121925 -0.0129353 0)
(-0.120042 -0.0160406 0)
(-0.117695 -0.0190555 0)
(-0.114895 -0.0219432 0)
(-0.111655 -0.0246667 0)
(-0.107995 -0.0271898 0)
(-0.10394 -0.0294775 0)
(-0.0995167 -0.0314966 0)
(-0.0947603 -0.0332166 0)
(-0.089709 -0.0346106 0)
(-0.0844054 -0.0356555 0)
(-0.0788964 -0.036333 0)
(-0.0732322 -0.0366303 0)
(-0.067466 -0.0365405 0)
(-0.0616532 -0.0360628 0)
(-0.0558504 -0.0352035 0)
(-0.0501146 -0.0339754 0)
(-0.0445022 -0.0323982 0)
(-0.0390678 -0.0304986 0)
(-0.0338633 -0.0283094 0)
(-0.0289366 -0.0258695 0)
(-0.0243306 -0.0232234 0)
(-0.0200824 -0.0204202 0)
(-0.0162225 -0.0175132 0)
(-0.0127735 -0.0145592 0)
(-0.00975036 -0.0116177 0)
(-0.0071592 -0.00875024 0)
(-0.0049974 -0.00602036 0)
(-0.00325335 -0.00349279 0)
(-0.00190635 -0.00123352 0)
(-0.000926703 0.000690321 0)
(-0.000275759 0.00221033 0)
(9.40055e-05 0.00325659 0)
(0.00023848 0.00375734 0)
(0.000221511 0.00363871 0)
(0.000120316 0.00282446 0)
(2.9747e-05 0.00123202 0)
(-9.20489e-05 0.00113534 0)
(-0.000623233 0.00364869 0)
(-0.00177174 0.00626331 0)
(-0.00341229 0.00887921 0)
(-0.00547445 0.0114275 0)
(-0.00791498 0.0138602 0)
(-0.0106922 0.0161468 0)
(-0.013768 0.018271 0)
(-0.0171091 0.020227 0)
(-0.020687 0.0220165 0)
(-0.0244768 0.0236461 0)
(-0.0284568 0.0251246 0)
(-0.0326077 0.0264616 0)
(-0.0369122 0.0276659 0)
(-0.041354 0.0287444 0)
(-0.0459176 0.0297014 0)
(-0.0505873 0.0305382 0)
(-0.0553471 0.0312532 0)
(-0.06018 0.0318418 0)
(-0.0650679 0.0322968 0)
(-0.0699913 0.0326087 0)
(-0.0749292 0.0327664 0)
(-0.0798589 0.0327577 0)
(-0.0847563 0.0325697 0)
(-0.0895959 0.0321896 0)
(-0.0943508 0.0316053 0)
(-0.098993 0.0308055 0)
(-0.103494 0.0297806 0)
(-0.107823 0.028523 0)
(-0.111952 0.0270275 0)
(-0.115849 0.0252913 0)
(-0.119486 0.0233147 0)
(-0.122833 0.0211012 0)
(-0.125862 0.0186572 0)
(-0.128545 0.015993 0)
(-0.130856 0.0131219 0)
(-0.13277 0.010061 0)
(-0.134266 0.00683057 0)
(-0.135322 0.00345438 0)
(-0.135921 -4.06059e-05 0)
(-0.136048 -0.00362438 0)
(-0.13569 -0.00726414 0)
(-0.134839 -0.0109245 0)
(-0.13349 -0.014568 0)
(-0.131642 -0.0181551 0)
(-0.129297 -0.0216453 0)
(-0.126464 -0.0249971 0)
(-0.123154 -0.0281688 0)
(-0.119385 -0.031119 0)
(-0.115181 -0.0338079 0)
(-0.110567 -0.0361972 0)
(-0.105579 -0.0382514 0)
(-0.100253 -0.0399388 0)
(-0.0946333 -0.0412318 0)
(-0.0887679 -0.0421081 0)
(-0.0827088 -0.0425512 0)
(-0.0765118 -0.0425514 0)
(-0.0702355 -0.0421061 0)
(-0.0639407 -0.0412201 0)
(-0.0576888 -0.0399062 0)
(-0.0515415 -0.0381853 0)
(-0.0455589 -0.0360859 0)
(-0.0397987 -0.0336443 0)
(-0.0343148 -0.0309037 0)
(-0.0291564 -0.027914 0)
(-0.0243664 -0.0247308 0)
(-0.0199808 -0.0214148 0)
(-0.0160277 -0.0180306 0)
(-0.0125265 -0.0146463 0)
(-0.00948781 -0.0113326 0)
(-0.00691236 -0.00816211 0)
(-0.00479144 -0.00520895 0)
(-0.00310654 -0.00254845 0)
(-0.00182954 -0.000256992 0)
(-0.000922747 0.00158789 0)
(-0.000339181 0.00290735 0)
(-2.30147e-05 0.00362083 0)
(8.99378e-05 0.00364593 0)
(7.55968e-05 0.00289823 0)
(2.35239e-05 0.00128734 0)
(-0.000104474 0.00147142 0)
(-0.000701059 0.0045868 0)
(-0.00198396 0.00773746 0)
(-0.00380775 0.0108285 0)
(-0.00608976 0.0137966 0)
(-0.00877898 0.0165999 0)
(-0.0118271 0.0192138 0)
(-0.0151906 0.0216274 0)
(-0.0188321 0.0238402 0)
(-0.02272 0.0258583 0)
(-0.0268271 0.0276922 0)
(-0.03113 0.0293539 0)
(-0.0356085 0.0308554 0)
(-0.0402444 0.032207 0)
(-0.0450208 0.0334166 0)
(-0.0499218 0.0344888 0)
(-0.0549312 0.0354247 0)
(-0.0600326 0.0362221 0)
(-0.0652084 0.0368752 0)
(-0.0704401 0.0373756 0)
(-0.0757075 0.0377122 0)
(-0.0809889 0.0378725 0)
(-0.0862612 0.0378426 0)
(-0.0914993 0.0376082 0)
(-0.0966771 0.037155 0)
(-0.101767 0.0364698 0)
(-0.10674 0.0355402 0)
(-0.111567 0.034356 0)
(-0.116218 0.0329091 0)
(-0.120662 0.0311938 0)
(-0.124868 0.0292077 0)
(-0.128806 0.0269512 0)
(-0.132446 0.0244285 0)
(-0.135758 0.0216469 0)
(-0.138714 0.0186177 0)
(-0.141286 0.0153557 0)
(-0.143449 0.0118797 0)
(-0.145179 0.00821195 0)
(-0.146453 0.00437841 0)
(-0.147251 0.000408564 0)
(-0.147557 -0.00366475 0)
(-0.147356 -0.00780559 0)
(-0.146635 -0.0119752 0)
(-0.145389 -0.0161321 0)
(-0.143613 -0.0202331 0)
(-0.141307 -0.024233 0)
(-0.138476 -0.0280856 0)
(-0.13513 -0.0317442 0)
(-0.131285 -0.0351625 0)
(-0.12696 -0.038295 0)
(-0.122182 -0.0410979 0)
(-0.116982 -0.0435305 0)
(-0.1114 -0.0455555 0)
(-0.105476 -0.0471401 0)
(-0.0992619 -0.0482572 0)
(-0.0928096 -0.0488861 0)
(-0.0861779 -0.0490134 0)
(-0.0794286 -0.0486337 0)
(-0.0726265 -0.0477499 0)
(-0.0658381 -0.0463743 0)
(-0.0591303 -0.0445279 0)
(-0.0525694 -0.0422411 0)
(-0.0462196 -0.0395531 0)
(-0.0401416 -0.0365115 0)
(-0.0343913 -0.0331715 0)
(-0.0290183 -0.0295955 0)
(-0.0240653 -0.0258516 0)
(-0.0195664 -0.0220131 0)
(-0.0155465 -0.0181572 0)
(-0.0120211 -0.0143641 0)