/*--------------------------------*- C++ -*----------------------------------*\
  =========                 |
  \\      /  F ield         | OpenFOAM: The Open Source CFD Toolbox
   \\    /   O peration     | Website:  https://openfoam.org
    \\  /    A nd           | Version:  7
     \\/     M anipulation  |
\*---------------------------------------------------------------------------*/
FoamFile
{
    version     2.0;
    format      ascii;
    class       volScalarField;
    location    "1.225";
    object      p;
}
// * * * * * * * * * * * * * * * * * * * * * * * * * * * * * * * * * * * * * //

dimensions      [0 2 -2 0 0 0 0];

internalField   nonuniform List<scalar> 
6400
(
3.10536e-06
1.73266e-06
-0.000110862
-0.000330776
-0.000631544
-0.000989292
-0.00138288
-0.00179398
-0.00220719
-0.00260987
-0.0029917
-0.00334432
-0.00366105
-0.0039366
-0.00416683
-0.0043486
-0.00447954
-0.00455799
-0.00458284
-0.00455347
-0.00446964
-0.00433146
-0.00413934
-0.00389392
-0.00359609
-0.00324696
-0.00284783
-0.00240021
-0.00190581
-0.00136655
-0.00078455
-0.000162141
0.000498104
0.00119338
0.00192064
0.00267658
0.00345763
0.00425999
0.00507959
0.00591212
0.00675304
0.0075976
0.00844086
0.00927774
0.010103
0.0109113
0.0116974
0.0124557
0.0131812
0.0138685
0.0145127
0.015109
0.015653
0.0161406
0.0165682
0.0169326
0.0172313
0.0174624
0.0176245
0.0177171
0.0177406
0.0176959
0.017585
0.0174108
0.0171769
0.0168881
0.0165501
0.0161696
0.0157544
0.0153133
0.0148565
0.0143951
0.013942
0.0135112
0.0131183
0.0127803
0.0125148
0.0123389
0.0122681
0.0122917
8.61703e-06
5.57543e-06
-9.43829e-05
-0.000281126
-0.000533079
-0.000833141
-0.00116525
-0.00151459
-0.00186812
-0.0022147
-0.00254496
-0.00285111
-0.00312675
-0.00336671
-0.00356683
-0.00372389
-0.00383538
-0.00389946
-0.00391485
-0.00388071
-0.00379662
-0.0036625
-0.00347856
-0.0032453
-0.00296343
-0.0026339
-0.00225788
-0.00183674
-0.00137204
-0.000865573
-0.000319315
0.000264538
0.000883569
0.00153514
0.00221636
0.00292414
0.00365511
0.00440569
0.00517206
0.0059502
0.00673585
0.00752459
0.00831181
0.00909278
0.00986267
0.0106165
0.0113494
0.0120565
0.0127327
0.0133735
0.0139741
0.0145304
0.0150383
0.0154941
0.0158945
0.0162369
0.0165188
0.0167387
0.0168956
0.016989
0.0170194
0.016988
0.0168966
0.016748
0.0165459
0.0162948
0.016
0.0156679
0.0153058
0.0149217
0.0145249
0.0141257
0.0137352
0.0133655
0.0130297
0.0127413
0.0125134
0.0123583
0.0122913
0.0123153
0.000122129
0.00010577
5.35056e-06
-0.000167006
-0.000393172
-0.000659595
-0.000953413
-0.00126236
-0.00157536
-0.0018827
-0.002176
-0.00244816
-0.00269325
-0.00290637
-0.00308352
-0.00322153
-0.00331792
-0.00337077
-0.00337874
-0.0033409
-0.0032567
-0.00312596
-0.00294875
-0.00272545
-0.00245666
-0.00214319
-0.0017861
-0.00138664
-0.000946253
-0.000466595
5.04767e-05
0.000602899
0.0011884
0.00180447
0.00244841
0.00311726
0.00380787
0.00451683
0.00524055
0.00597522
0.00671682
0.0074612
0.00820402
0.00894083
0.00966708
0.0103782
0.0110694
0.0117363
0.0123742
0.0129787
0.0135456
0.0140709
0.0145508
0.014982
0.0153614
0.0156866
0.0159556
0.0161668
0.0163193
0.016413
0.0164484
0.0164265
0.0163494
0.0162196
0.0160408
0.0158172
0.0155538
0.0152567
0.0149325
0.0145889
0.0142342
0.0138777
0.0135293
0.0131997
0.0128999
0.0126414
0.0124348
0.0122902
0.0122238
0.0122452
0.000343183
0.000293209
0.000176925
3.39184e-06
-0.000214228
-0.000464624
-0.000737027
-0.00102119
-0.00130772
-0.00158823
-0.00185535
-0.00210277
-0.00232511
-0.00251787
-0.00267735
-0.00280055
-0.00288508
-0.00292912
-0.00293129
-0.00289067
-0.00280665
-0.00267899
-0.00250769
-0.00229303
-0.00203551
-0.00173587
-0.00139505
-0.00101419
-0.000594618
-0.000137883
0.000354286
0.00087995
0.00143697
0.00202299
0.00263544
0.00327154
0.00392828
0.00460245
0.00529063
0.00598921
0.00669439
0.00740221
0.00810857
0.00880925
0.00949993
0.0101763
0.0108338
0.0114683
0.0120753
0.0126507
0.0131906
0.0136911
0.0141487
0.0145602
0.014923
0.0152345
0.015493
0.0156971
0.015846
0.0159395
0.0159782
0.0159632
0.0158965
0.0157805
0.0156186
0.015415
0.0151743
0.0149023
0.014605
0.0142896
0.0139638
0.0136358
0.0133146
0.0130096
0.0127304
0.012487
0.0122886
0.0121442
0.0120684
0.0120711
0.00064756
0.00054754
0.000403175
0.000217916
-1.69213e-06
-0.000246323
-0.000506962
-0.000775204
-0.00104323
-0.00130392
-0.00155097
-0.00177886
-0.00198283
-0.00215889
-0.00230368
-0.00241446
-0.00248903
-0.00252567
-0.00252308
-0.00248036
-0.00239691
-0.00227244
-0.00210691
-0.00190052
-0.00165373
-0.00136716
-0.00104166
-0.000678261
-0.000278204
0.000157098
0.000626032
0.00112679
0.00165737
0.00221556
0.00279894
0.00340488
0.00403055
0.00467289
0.00532866
0.00599444
0.00666663
0.00734146
0.00801502
0.00868331
0.00934221
0.00998757
0.0106152
0.011221
0.0118008
0.0123506
0.0128667
0.0133454
0.0137835
0.014178
0.0145261
0.0148256
0.0150749
0.0152726
0.015418
0.015511
0.0155521
0.0155425
0.0154839
0.0153788
0.0152304
0.0150426
0.0148197
0.0145671
0.0142906
0.0139965
0.013692
0.0133844
0.0130818
0.0127925
0.0125249
0.0122874
0.0120884
0.0119357
0.0118401
0.0118081
0.00101311
0.000852824
0.000671426
0.000466029
0.000235851
-1.15226e-05
-0.000268567
-0.00052854
-0.00078508
-0.00103229
-0.00126485
-0.00147808
-0.00166789
-0.0018308
-0.00196386
-0.00206465
-0.00213119
-0.00216195
-0.00215573
-0.00211169
-0.00202926
-0.00190816
-0.00174831
-0.0015499
-0.00131328
-0.00103903
-0.000727901
-0.000380834
1.0507e-06
0.000416447
0.000863867
0.00134163
0.00184788
0.00238053
0.00293732
0.00351577
0.00411319
0.00472672
0.00535327
0.00598959
0.00663224
0.00727765
0.00792209
0.00856173
0.00919263
0.00981082
0.0104123
0.0109931
0.0115492
0.0120769
0.0125725
0.0130326
0.0134539
0.0138336
0.0141692
0.0144584
0.0146997
0.0148918
0.015034
0.0151262
0.0151689
0.0151631
0.0151107
0.0150138
0.0148756
0.0146996
0.01449
0.0142517
0.0139901
0.013711
0.0134208
0.0131264
0.0128347
0.0125531
0.012289
0.0120496
0.0118422
0.0116737
0.0115497
0.0114722
0.00142029
0.00119408
0.000969571
0.000737542
0.000489865
0.000232671
-2.77446e-05
-0.000286125
-0.000537427
-0.000776878
-0.00100012
-0.00120328
-0.00138293
-0.00153613
-0.00166039
-0.00175361
-0.00181412
-0.00184056
-0.00183189
-0.00178736
-0.00170648
-0.00158897
-0.00143477
-0.00124403
-0.00101706
-0.000754373
-0.00045664
-0.000124712
0.000240391
0.000637479
0.00106518
0.00152195
0.00200605
0.00251556
0.00304834
0.00360206
0.0041742
0.00476203
0.00536263
0.00597291
0.0065896
0.00720926
0.00782833
0.00844313
0.00904988
0.00964475
0.0102239
0.0107834
0.0113195
0.0118286
0.012307
0.0127515
0.0131588
0.0135263
0.0138515
0.0141322
0.0143668
0.0145541
0.0146935
0.0147847
0.0148282
0.0148251
0.0147768
0.0146857
0.0145546
0.0143867
0.0141861
0.0139572
0.0137051
0.013435
0.0131529
0.0128648
0.0125771
0.0122961
0.0120284
0.01178
0.0115575
0.011367
0.0112082
0.0110785
0.00185209
0.0015573
0.00128584
0.00102251
0.000752109
0.000479582
0.00021022
-5.20259e-05
-0.000303303
-0.000539865
-0.000758255
-0.00095536
-0.00112842
-0.00127504
-0.00139317
-0.00148111
-0.00153745
-0.00156107
-0.00155112
-0.00150696
-0.00142817
-0.00131453
-0.001166
-0.000982707
-0.000764935
-0.000513133
-0.00022791
8.99721e-05
0.000439591
0.000819863
0.00122954
0.0016672
0.00213123
0.00261985
0.00313106
0.00366268
0.00421232
0.00477741
0.00535518
0.00594267
0.00653674
0.00713413
0.00773138
0.00832495
0.00891119
0.00948637
0.0100468
0.0105886
0.0111082
0.0116019
0.0120663
0.0124981
0.0128942
0.0132519
0.0135687
0.0138426
0.0140719
0.0142553
0.0143922
0.0144824
0.0145262
0.0145246
0.014479
0.0143915
0.0142647
0.0141018
0.0139064
0.0136826
0.0134352
0.0131691
0.0128894
0.0126019
0.012312
0.0120256
0.0117481
0.011485
0.011242
0.0110244
0.0108265
0.0106407
0.00229395
0.00192988
0.00160933
0.00131152
0.00101458
0.000722529
0.000439852
0.000169353
-8.61775e-05
-0.000323923
-0.000541254
-0.000735786
-0.000905389
-0.00104821
-0.00116264
-0.00124737
-0.0013013
-0.00132353
-0.00131342
-0.00127045
-0.00119432
-0.00108487
-0.000942071
-0.000766058
-0.000557094
-0.000315583
-4.20652e-05
0.000262775
0.000598111
0.000962963
0.0013562
0.00177651
0.00222243
0.0026923
0.00318425
0.00369625
0.00422604
0.00477119
0.00532906
0.00589682
0.00647149
0.00704987
0.00762867
0.00820444
0.00877362
0.00933259
0.00987768
0.0104052
0.0109115
0.0113931
0.0118465
0.0122685
0.012656
0.0130062
0.0133168
0.0135855
0.0138108
0.0139914
0.0141264
0.0142157
0.0142595
0.0142585
0.0142143
0.0141285
0.0140038
0.013843
0.0136495
0.0134272
0.0131804
0.0129136
0.0126316
0.0123396
0.0120425
0.0117454
0.0114532
0.0111705
0.0109026
0.0106542
0.0104143
0.0101706
0.00273358
0.00230072
0.00193008
0.00159576
0.0012696
0.00095491
0.000655539
0.000373297
0.000110034
-0.000132273
-0.000351751
-0.000546696
-0.000715575
-0.00085705
-0.000969974
-0.00105339
-0.0011065
-0.00112868
-0.00111946
-0.0010785
-0.00100559
-0.000900639
-0.000763669
-0.000594816
-0.000394328
-0.000162568
9.99818e-05
0.000392713
0.000714889
0.00106563
0.00144392
0.00184858
0.00227824
0.00273139
0.00320628
0.00370102
0.00421349
0.00474137
0.00528215
0.00583313
0.00639142
0.00695396
0.00751753
0.00807877
0.00863421
0.00918029
0.0097134
0.0102299
0.0107262
0.0111987
0.0116441
0.012059
0.0124404
0.0127856
0.0130919
0.0133574
0.0135801
0.0137589
0.0138928
0.0139814
0.014025
0.0140242
0.0139802
0.0138948
0.0137701
0.013609
0.0134147
0.0131906
0.0129408
0.0126695
0.0123811
0.0120802
0.0117714
0.0114593
0.0111482
0.010842
0.0105457
0.0102637
0.00997983
0.00967764
0.00316046
0.00265999
0.0022391
0.00186707
0.00150989
0.00117031
0.000851693
0.000554982
0.000281199
3.15686e-05
-0.00019273
-0.00039062
-0.00056113
-0.000703412
-0.000816747
-0.000900537
-0.000954296
-0.000977649
-0.000970322
-0.000932132
-0.000862982
-0.000762859
-0.000631832
-0.000470048
-0.000277745
-5.52502e-05
0.000197009
0.000478497
0.000788565
0.00112644
0.0014912
0.00188178
0.00229695
0.0027353
0.00319525
0.00367498
0.00417253
0.00468569
0.00521207
0.00574908
0.00629392
0.00684364
0.00739508
0.00794496
0.00848987
0.00902628
0.00955062
0.0100593
0.0105486
0.0110151
0.0114554
0.011866
0.012244
0.0125864
0.0128907
0.0131546
0.0133764
0.0135546
0.0136882
0.0137767
0.0138202
0.0138192
0.0137748
0.0136885
0.0135624
0.013399
0.0132014
0.0129728
0.012717
0.0124378
0.0121394
0.0118259
0.0115017
0.0111709
0.0108373
0.0105044
0.0101769
0.0098592
0.00953029
0.00916975
0.00356548
0.00299898
0.0025282
0.00211793
0.00172859
0.00136256
0.00102282
0.000709555
0.000423059
0.000163878
-6.74397e-05
-0.000270394
-0.000444535
-0.000589479
-0.00070491
-0.000790579
-0.000846296
-0.000871931
-0.000867408
-0.0008327
-0.000767826
-0.000672851
-0.000547891
-0.000393112
-0.00020874
4.92804e-06
0.000247519
0.000518568
0.00081751
0.00114367
0.00149623
0.00187424
0.00227659
0.00270199
0.00314897
0.00361586
0.00410078
0.00460167
0.00511623
0.00564196
0.00617617
0.00671597
0.00725827
0.00779985
0.00833733
0.00886721
0.00938592
0.00988983
0.0103753
0.0108388
0.0112768
0.011686
0.012063
0.0124051
0.0127096
0.012974
0.0131965
0.0133754
0.0135098
0.0135989
0.0136426
0.0136414
0.0135961
0.0135081
0.0133793
0.0132121
0.0130093
0.0127739
0.0125094
0.0122195
0.011908
0.0115788
0.011236
0.0108834
0.0105243
0.010162
0.00980123
0.00944619
0.00907156
0.00865317
0.00394067
0.0033099
0.00278995
0.00234132
0.00191923
0.00152574
0.00116354
0.000832173
0.000531273
0.000260776
2.06599e-05
-0.000189108
-0.00036856
-0.000517744
-0.000636727
-0.000725589
-0.000784424
-0.000813339
-0.00081245
-0.000781881
-0.000721763
-0.000632242
-0.000513478
-0.000365656
-0.000188994
1.62439e-05
0.000249736
0.000511089
0.000799819
0.00111534
0.00145696
0.00182381
0.00221492
0.00262911
0.00306503
0.00352111
0.00399562
0.00448657
0.00499177
0.00550883
0.00603512
0.00656781
0.00710388
0.00764013
0.0081732
0.00869961
0.00921577
0.00971803
0.0102027
0.0106662
0.0111049
0.0115153
0.0118941
0.0122384
0.0125453
0.0128123
0.0130373
0.0132186
0.0133549
0.0134455
0.0134901
0.0134888
0.0134425
0.0133523
0.01322
0.0130478
0.0128381
0.012594
0.0123186
0.0120156
0.0116885
0.0113409
0.0109768
0.0105996
0.0102126
0.0098187
0.00942286
0.00902926
0.00860849
0.00813286
0.0042789
0.00358572
0.00301753
0.00253078
0.00207571
0.00165416
0.00126862
0.000918042
0.000601466
0.000318283
6.79499e-05
-0.000150054
-0.000336208
-0.000490961
-0.000614737
-0.00070793
-0.000770902
-0.000803982
-0.000807471
-0.000781637
-0.000726721
-0.000642941
-0.000530503
-0.000389607
-0.000220461
-2.32958e-05
0.00020162
0.00045396
0.000733327
0.00103923
0.00137107
0.0017281
0.00210946
0.00251408
0.00294074
0.00338798
0.00385416
0.00433741
0.00483564
0.00534652
0.0058675
0.0063958
0.00692845
0.00746227
0.00799391
0.00851986
0.00903651
0.00954017
0.0100271
0.0104935
0.0109358
0.0113504
0.0117338
0.0120828
0.0123945
0.0126663
0.0128958
0.0130812
0.013221
0.0133143
0.0133605
0.0133598
0.0133126
0.01322
0.0130836
0.0129054
0.0126877
0.0124334
0.0121454
0.0118272
0.0114823
0.0111141
0.0107263
0.0103223
0.00990525
0.00947794
0.00904548
0.0086123
0.00814505
0.0076127
0.00457377
0.00382001
0.00320466
0.00268024
0.00219226
0.0017424
0.00133298
0.000962434
0.00062926
0.000332355
7.06987e-05
-0.000156678
-0.000350667
-0.000512092
-0.000641712
-0.000740211
-0.000808202
-0.000846227
-0.000854758
-0.000834199
-0.000784891
-0.000707124
-0.00060114
-0.000467152
-0.000305354
-0.000115942
0.000100869
0.000344824
0.000615608
0.000912825
0.00123598
0.00158444
0.00195745
0.00235406
0.00277316
0.00321341
0.00367327
0.00415096
0.00464449
0.0051516
0.0056698
0.00619637
0.00672835
0.00726258
0.00779569
0.00832417
0.00884434
0.00935244
0.00984464
0.0103171
0.010766
0.0111876
0.0115784
0.0119349
0.0122541
0.012533
0.0127692
0.0129606
0.0131056
0.0132029
0.0132519
0.0132525
0.0132049
0.0131101
0.0129694
0.0127847
0.0125581
0.0122924
0.0119905
0.0116555
0.0112909
0.0109001
0.0104867
0.010054
0.00960503
0.00914265
0.00867226
0.00819857
0.00768446
0.00709574
0.0048194
0.00400688
0.00334549
0.00278403
0.00226344
0.00178526
0.0013517
0.000960705
0.000610298
0.000298915
2.50945e-05
-0.000212545
-0.00041528
-0.000584282
-0.00072062
-0.000825251
-0.000899023
-0.000942674
-0.000956834
-0.000942034
-0.000898708
-0.000827206
-0.000727804
-0.000600719
-0.000446129
-0.000264191
-5.50618e-05
0.000181075
0.000443989
0.000733382
0.00104886
0.00138991
0.00175588
0.00214594
0.00255909
0.0029941
0.00344954
0.00392374
0.00441475
0.00492042
0.0054383
0.0059657
0.0064997
0.00703712
0.0075746
0.00810856
0.00863527
0.00915088
0.00965145
0.010133
0.0105916
0.0110233
0.0114244
0.0117913
0.0121206
0.0124093
0.0126546
0.0128542
0.0130062
0.0131093
0.0131625
0.0131655
0.0131183
0.0130217
0.0128768
0.0126854
0.0124494
0.0121715
0.0118545
0.0115015
0.0111158
0.0107008
0.01026
0.00979682
0.00931437
0.00881547
0.0083059
0.00779079
0.00722937
0.00658433
0.00501035
0.00414082
0.00343458
0.0028368
0.00228403
0.00177772
0.00131997
0.000908296
0.000540258
0.000213873
-7.27272e-05
-0.00032131
-0.000533507
-0.000710817
-0.000854596
-0.000966055
-0.00104626
-0.00109613
-0.00111644
-0.00110783
-0.00107083
-0.00100583
-0.000913139
-0.000792969
-0.000645475
-0.000470771
-0.000268953
-4.01305e-05
0.000215557
0.000497908
0.000806636
0.00114134
0.00150148
0.00188636
0.00229507
0.00272651
0.00317934
0.00365198
0.00414259
0.00464905
0.00516898
0.00569972
0.00623837
0.00678174
0.00732644
0.00786882
0.0084051
0.00893131
0.00944339
0.00993722
0.0104087
0.0108536
0.0112681
0.0116484
0.0119908
0.0122919
0.012549
0.0127592
0.0129206
0.0130314
0.0130905
0.0130972
0.0130515
0.0129539
0.0128053
0.0126073
0.0123618
0.0120712
0.0117384
0.0113662
0.0109582
0.0105176
0.010048
0.00955295
0.00903553
0.00849873
0.0079488
0.0073913
0.00678193
0.00608028
0.00514152
0.00421666
0.00346676
0.00283346
0.00224907
0.00171497
0.00123316
0.000800741
0.000414866
7.31479e-05
-0.000226661
-0.000486689
-0.000708903
-0.000895101
-0.00104691
-0.00116578
-0.00125297
-0.00130957
-0.00133649
-0.00133447
-0.00130411
-0.00124585
-0.00116
-0.00104677
-0.000906295
-0.000738631
-0.00054381
-0.000321862
-7.28343e-05
0.000203175
0.00050599
0.000835326
0.00119076
0.00157171
0.0019774
0.00240682
0.00285875
0.00333169
0.00382389
0.0043333
0.00485758
0.00539412
0.00593999
0.00649202
0.00704676
0.00760053
0.00814942
0.00868936
0.00921615
0.00972549
0.0102131
0.0106745
0.0111057
0.0115025
0.0118611
0.0121779
0.0124495
0.0126731
0.0128463
0.0129671
0.013034
0.0130463
0.0130035
0.012906
0.0127544
0.0125503
0.0122954
0.011992
0.0116428
0.0112509
0.0108196
0.0103523
0.00985263
0.00932431
0.00877057
0.00819456
0.00760305
0.00700213
0.00634395
0.00558503
0.00520808
0.00422952
0.00343714
0.00276916
0.0021538
0.00159235
0.00108673
0.000633669
0.000229904
-0.00012732
-0.000440613
-0.000712442
-0.000945087
-0.00114063
-0.00130095
-0.00142771
-0.00152236
-0.00158614
-0.00162008
-0.00162501
-0.00160159
-0.00155028
-0.00147142
-0.0013652
-0.00123169
-0.00107092
-0.000882847
-0.000667405
-0.000424548
-0.000154269
0.000143375
0.000468218
0.000819962
0.00119814
0.00160211
0.00203097
0.0024836
0.0029586
0.00345431
0.00396873
0.00449959
0.00504428
0.00559992
0.00616328
0.00673089
0.00729898
0.00786355
0.00842041
0.00896517
0.00949337
0.0100005
0.0104819
0.0109332
0.01135
0.0117281
0.0120637
0.012353
0.012593
0.0127808
0.0129142
0.0129914
0.0130112
0.0129731
0.0128771
0.0127238
0.0125144
0.0122505
0.0119344
0.0115688
0.0111566
0.0107013
0.0102064
0.00967562
0.00911282
0.00852147
0.00790495
0.00727059
0.00662506
0.00591696
0.00509973
0.0052054
0.00417471
0.00334103
0.00263926
0.00199363
0.00140536
0.000876301
0.0004028
-1.87834e-05
-0.000391563
-0.000718491
-0.00100235
-0.00124573
-0.00145097
-0.00162018
-0.00175524
-0.00185776
-0.00192911
-0.00197044
-0.00198266
-0.00196646
-0.00192234
-0.00185062
-0.00175148
-0.00162495
-0.00147099
-0.00128947
-0.00108024
-0.000843152
-0.000578082
-0.000284969
3.61521e-05
0.00038511
0.00076157
0.001165
0.00159463
0.00204946
0.00252817
0.0030292
0.00355061
0.00409019
0.00464536
0.00521323
0.00579057
0.00637384
0.00695921
0.00754257
0.00811956
0.00868566
0.00923618
0.00976633
0.0102713
0.0107463
0.0111868
0.011588
0.0119459
0.0122565
0.0125161
0.0127217
0.0128706
0.0129607
0.0129906
0.0129594
0.0128668
0.0127132
0.0124996
0.0122275
0.0118992
0.0115172
0.0110846
0.0106049
0.0100816
0.00951874
0.00892036
0.00829015
0.00763179
0.00695323
0.00626176
0.00550237
0.00462534
0.00512905
0.00404776
0.00317395
0.00243928
0.00176413
0.00114964
0.000597582
0.000103941
-0.000335293
-0.000723576
-0.00106419
-0.00136022
-0.00161454
-0.00182974
-0.00200816
-0.00215184
-0.00226257
-0.00234186
-0.00239092
-0.00241074
-0.00240204
-0.00236535
-0.00230096
-0.00220902
-0.00208952
-0.00194233
-0.00176725
-0.00156403
-0.0013324
-0.00107212
-0.000782996
-0.000464939
-0.000117979
0.000257683
0.000661645
0.00109327
0.00155166
0.00203563
0.00254368
0.00307396
0.00362431
0.00419219
0.00477472
0.00536864
0.00597037
0.00657598
0.00718124
0.00778167
0.00837254
0.00894894
0.00950584
0.0100381
0.0105407
0.0110086
0.0114369
0.011821
0.0121565
0.0124395
0.0126663
0.012834
0.0129402
0.012983
0.0129611
0.0128741
0.0127221
0.0125058
0.0122268
0.0118871
0.0114892
0.0110362
0.0105317
0.00997956
0.00938383
0.00874882
0.00807854
0.00737697
0.00665275
0.00591382
0.00510149
0.00416278
0.00497473
0.00384432
0.00293154
0.00216491
0.00146103
0.000820951
0.000246398
-0.000267015
-0.000723654
-0.00112731
-0.00148157
-0.00178984
-0.00205523
-0.00228059
-0.00246845
-0.00262105
-0.00274031
-0.00282784
-0.00288495
-0.00291268
-0.00291177
-0.00288276
-0.00282592
-0.00274134
-0.00262897
-0.00248859
-0.00231991
-0.00212258
-0.00189619
-0.00164039
-0.00135484
-0.00103931
-0.000693683
-0.000318023
8.74121e-05
0.000522119
0.000985326
0.00147596
0.00199261
0.00253354
0.00309663
0.00367938
0.00427891
0.00489197
0.00551491
0.00614373
0.00677407
0.00740129
0.00802045
0.00862642
0.0092139
0.00977747
0.0103117
0.0108112
0.0112707
0.0116851
0.0120496
0.0123599
0.0126119
0.0128022
0.0129279
0.0129868
0.0129772
0.0128985
0.0127503
0.0125333
0.0122488
0.0118988
0.0114857
0.0110127
0.0104835
0.00990207
0.00927277
0.00860018
0.00788861
0.00714243
0.00637097
0.00558288
0.00471565
0.00371293
0.00473828
0.00356022
0.00260964
0.00181196
0.00108015
0.000415177
-0.000181327
-0.000714091
-0.00118783
-0.00160667
-0.00197449
-0.00229498
-0.00257152
-0.00280718
-0.00300469
-0.00316644
-0.0032945
-0.00339057
-0.00345604
-0.00349198
-0.00349917
-0.00347811
-0.00342906
-0.00335207
-0.00324699
-0.00311354
-0.00295131
-0.00275983
-0.00253859
-0.00228706
-0.00200478
-0.00169137
-0.00134655
-0.000970232
-0.000562527
-0.000123793
0.000345336
0.00084391
0.00137064
0.00192386
0.00250154
0.00310123
0.00372006
0.00435477
0.00500165
0.00565663
0.00631523
0.00697264
0.00762371
0.00826308
0.00888513
0.00948413
0.0100543
0.0105898
0.0110849
0.0115341
0.0119322
0.0122741
0.0125556
0.0127726
0.0129218
0.0130004
0.0130067
0.0129392
0.0127976
0.0125822
0.0122941
0.0119352
0.011508
0.0110156
0.0104619
0.00985103
0.0091876
0.00847653
0.00772248
0.00693019
0.00610978
0.00527064
0.00434627
0.0032768
0.00441564
0.00319139
0.00220415
0.00137638
0.00061747
-7.16995e-05
-0.000689573
-0.00124123
-0.00173172
-0.00216549
-0.00254673
-0.0028794
-0.00316711
-0.00341317
-0.00362049
-0.00379161
-0.00392872
-0.00403362
-0.00410775
-0.00415222
-0.00416781
-0.00415501
-0.00411405
-0.0040449
-0.00394735
-0.00382102
-0.00366538
-0.00347983
-0.00326373
-0.0030164
-0.00273723
-0.00242566
-0.00208126
-0.00170378
-0.00129316
-0.0008496
-0.000373591
0.000134058
0.000672181
0.00123923
0.00183324
0.00245182
0.00309215
0.00375094
0.00442446
0.00510855
0.00579861
0.00648966
0.00717635
0.00785304
0.00851381
0.00915259
0.00976316
0.0103393
0.0108748
0.0113637
0.0118001
0.0121786
0.0124943
0.0127426
0.0129196
0.0130223
0.0130481
0.0129955
0.0128636
0.0126526
0.0123633
0.0119974
0.0115574
0.0110466
0.0104688
0.00982848
0.00913051
0.00838013
0.00758239
0.00674247
0.00587127
0.00497899
0.00399494
0.00285554
0.00400287
0.00273387
0.00171113
0.000854211
6.90446e-05
-0.000643591
-0.00128223
-0.00185227
-0.00235914
-0.00280757
-0.00320205
-0.0035468
-0.00384568
-0.00410221
-0.00431946
-0.00450014
-0.00464654
-0.00476053
-0.00484362
-0.00489694
-0.00492128
-0.00491709
-0.00488455
-0.00482358
-0.00473386
-0.00461492
-0.0044661
-0.00428668
-0.00407584
-0.00383277
-0.00355667
-0.00324681
-0.0029026
-0.0025236
-0.00210959
-0.00166057
-0.00117689
-0.000659197
-0.000108511
0.000473733
0.00108568
0.001725
0.00238892
0.00307416
0.00377696
0.00449308
0.00521781
0.00594599
0.00667207
0.00739012
0.00809393
0.00877703
0.00943279
0.0100545
0.0106355
0.0111692
0.0116492
0.0120696
0.0124246
0.0127093
0.0129191
0.0130505
0.0131003
0.0130666
0.0129482
0.0127447
0.0124569
0.0120863
0.0116354
0.0111074
0.0105063
0.00983669
0.00910389
0.00831347
0.00747086
0.00658169
0.00565773
0.00471004
0.00366346
0.00245054
0.00349611
0.00218382
0.00112674
0.000241627
-0.000568946
-0.00130431
-0.00196307
-0.002551
-0.00307384
-0.00353662
-0.00394412
-0.00430083
-0.00461085
-0.00487788
-0.00510518
-0.00529559
-0.00545149
-0.00557485
-0.00566722
-0.00572974
-0.00576318
-0.00576798
-0.00574425
-0.00569184
-0.00561035
-0.00549915
-0.00535749
-0.00518448
-0.00497916
-0.00474052
-0.00446761
-0.00415951
-0.00381543
-0.00343473
-0.003017
-0.00256209
-0.00207011
-0.00154157
-0.000977328
-0.00037867
0.000252659
0.000914433
0.00160392
0.00231788
0.00305252
0.00380355
0.00456613
0.00533496
0.00610426
0.00686784
0.00761913
0.0083513
0.00905725
0.0097298
0.0103617
0.0109458
0.0114751
0.011943
0.0123431
0.0126698
0.0129179
0.0130831
0.013162
0.0131518
0.013051
0.0128589
0.0125758
0.0122033
0.0117435
0.0111999
0.0105765
0.00987815
0.00911042
0.00827929
0.00739065
0.00645058
0.00547179
0.00446619
0.00335395
0.00206349
0.00289162
0.00153749
0.000447247
-0.000465099
-0.00130022
-0.00205755
-0.00273581
-0.00334109
-0.00387946
-0.00435626
-0.00477656
-0.00514509
-0.00546619
-0.00574374
-0.00598117
-0.00618146
-0.00634709
-0.00648009
-0.00658204
-0.00665411
-0.00669706
-0.00671127
-0.0066968
-0.00665341
-0.00658058
-0.00647759
-0.00634353
-0.00617734
-0.00597791
-0.00574405
-0.00547459
-0.00516844
-0.00482458
-0.00444219
-0.00402064
-0.00355954
-0.00305886
-0.00251886
-0.00194025
-0.00132414
-0.000672146
1.3627e-05
0.000730526
0.00147534
0.0022443
0.00303304
0.00383665
0.00464965
0.00546606
0.0062794
0.00708277
0.00786893
0.00863032
0.00935921
0.0100478
0.0106882
0.0112729
0.0117945
0.0122459
0.0126207
0.0129131
0.0131181
0.0132315
0.0132501
0.0131717
0.0129953
0.0127209
0.0123496
0.0118837
0.0113264
0.010682
0.00995563
0.00915305
0.00828069
0.00734487
0.00635222
0.00531638
0.00425022
0.0030689
0.00169647
0.00218577
0.000791268
-0.000330971
-0.00126958
-0.00212838
-0.00290693
-0.00360403
-0.00422612
-0.00477957
-0.00527006
-0.00570289
-0.00608308
-0.00641516
-0.00670323
-0.00695088
-0.00716119
-0.00733675
-0.00747966
-0.00759153
-0.00767353
-0.0077264
-0.00775048
-0.00774577
-0.00771191
-0.00764829
-0.00755404
-0.00742811
-0.00726929
-0.00707625
-0.00684763
-0.00658206
-0.00627821
-0.00593487
-0.00555098
-0.00512567
-0.00465834
-0.00414872
-0.00359687
-0.00300328
-0.00236889
-0.00169514
-0.000983993
-0.00023801
0.000539673
0.0013453
0.00217448
0.00302221
0.00388289
0.00475032
0.00561773
0.0064779
0.00732314
0.00814543
0.00893647
0.00968781
0.010391
0.0110376
0.0116196
0.012129
0.0125587
0.0129021
0.0131533
0.0133074
0.0133607
0.0133102
0.0131544
0.0128929
0.0125267
0.0120577
0.0114893
0.0108257
0.0100722
0.00923509
0.0083211
0.00733706
0.0062901
0.00519492
0.00406535
0.00281124
0.00135199
0.00137503
-5.83616e-05
-0.00121142
-0.00217533
-0.00305695
-0.00385594
-0.00457123
-0.00520956
-0.00577765
-0.00628145
-0.00672655
-0.0071182
-0.00746117
-0.00775974
-0.00801765
-0.00823811
-0.00842381
-0.00857689
-0.008699
-0.00879133
-0.00885456
-0.00888902
-0.00889459
-0.00887084
-0.00881703
-0.00873217
-0.00861501
-0.00846419
-0.00827818
-0.00805543
-0.00779433
-0.00749334
-0.00715099
-0.00676597
-0.00633719
-0.00586379
-0.00534523
-0.00478134
-0.00417239
-0.0035191
-0.00282271
-0.00208502
-0.00130847
-0.000496086
0.000348412
0.00122064
0.00211553
0.00302734
0.00394969
0.00487554
0.00579731
0.0067069
0.00759576
0.00845502
0.00927557
0.0100482
0.0107638
0.0114133
0.0119881
0.0124801
0.0128817
0.0131863
0.0133881
0.0134825
0.013466
0.0133365
0.0130931
0.0127363
0.0122679
0.0116912
0.0110106
0.0102314
0.00936028
0.00840444
0.00737118
0.0062682
0.00511128
0.00391529
0.00258442
0.00103309
0.000456004
-0.00101479
-0.00219749
-0.00318573
-0.0040893
-0.00490797
-0.00564079
-0.0062948
-0.00687706
-0.00739379
-0.00785086
-0.00825377
-0.0086075
-0.00891652
-0.00918472
-0.00941544
-0.00961145
-0.00977496
-0.00990766
-0.0100107
-0.0100848
-0.0101301
-0.0101465
-0.0101335
-0.0100902
-0.0100154
-0.00990779
-0.00976573
-0.00958754
-0.00937141
-0.00911553
-0.0088181
-0.00847741
-0.00809187
-0.0076601
-0.007181
-0.00665373
-0.00607788
-0.00545342
-0.00478084
-0.00406117
-0.003296
-0.0024876
-0.00163888
-0.000753472
0.000164259
0.00110921
0.00207554
0.00305668
0.00404535
0.0050336
0.00601291
0.00697421
0.00790802
0.00880455
0.00965381
0.0104458
0.0111706
0.0118187
0.0123809
0.0128487
0.0132145
0.0134716
0.0136145
0.013639
0.0135421
0.0133225
0.0129802
0.0125168
0.0119353
0.0112402
0.010437
0.00953278
0.00853507
0.00745173
0.00629104
0.00506992
0.00380435
0.00239246
0.000743404
-0.000574573
-0.00208128
-0.00329245
-0.00430407
-0.00522872
-0.00606631
-0.00681599
-0.00748512
-0.00808106
-0.00861032
-0.00907905
-0.00949298
-0.00985732
-0.0101767
-0.0104552
-0.0106963
-0.0109027
-0.0110769
-0.0112205
-0.0113346
-0.01142
-0.0114768
-0.0115047
-0.0115031
-0.011471
-0.0114071
-0.0113098
-0.0111773
-0.0110078
-0.0107993
-0.0105495
-0.0102565
-0.00991833
-0.00953306
-0.00909904
-0.00861484
-0.00807934
-0.00749182
-0.00685197
-0.00615998
-0.00541664
-0.0046233
-0.00378201
-0.00289554
-0.0019674
-0.00100189
-4.11744e-06
0.00102
0.00206374
0.00311957
0.00417922
0.00523374
0.00627351
0.00728844
0.00826799
0.00920138
0.0100777
0.0108861
0.0116159
0.0122569
0.0127996
0.0132353
0.0135562
0.0137558
0.0138289
0.0137718
0.0135825
0.0132605
0.0128069
0.0122248
0.0115183
0.0106935
0.00975727
0.00871794
0.0075838
0.00636374
0.00507593
0.00373749
0.00224007
0.00048724
-0.00171983
-0.00326097
-0.00449945
-0.0055335
-0.00647839
-0.00733415
-0.00810002
-0.00878369
-0.00939281
-0.00993419
-0.0104142
-0.0108389
-0.0112136
-0.0115433
-0.011832
-0.0120834
-0.0123005
-0.0124856
-0.0126403
-0.0127659
-0.012863
-0.0129317
-0.0129717
-0.0129822
-0.0129621
-0.0129099
-0.0128239
-0.0127021
-0.0125423
-0.0123423
-0.0120997
-0.0118122
-0.0114776
-0.0110936
-0.0106582
-0.0101698
-0.00962679
-0.00902817
-0.0083733
-0.00766207
-0.00689494
-0.00607301
-0.00519808
-0.00427271
-0.00330024
-0.00228489
-0.00123173
-0.000146706
0.000963319
0.00209061
0.00322658
0.00436183
0.00548624
0.00658905
0.00765898
0.00868438
0.00965338
0.0105541
0.0113747
0.0121039
0.012731
0.0132459
0.0136398
0.013905
0.0140353
0.0140261
0.0138745
0.0135794
0.0131415
0.0125634
0.0118494
0.0110055
0.010039
0.0089586
0.00777313
0.00649216
0.00513512
0.00372039
0.00213271
0.000269655
-0.00298273
-0.00455687
-0.00582152
-0.00687707
-0.00784138
-0.00871455
-0.00949596
-0.0101936
-0.0108154
-0.0113684
-0.0118594
-0.0122945
-0.0126794
-0.0130191
-0.0133179
-0.0135797
-0.0138074
-0.0140035
-0.0141696
-0.014307
-0.0144163
-0.0144975
-0.0145502
-0.0145735
-0.0145661
-0.0145265
-0.0144527
-0.0143425
-0.0141936
-0.0140033
-0.0137691
-0.0134884
-0.0131585
-0.012777
-0.0123415
-0.0118499
-0.0113003
-0.0106914
-0.0100222
-0.0092922
-0.00850147
-0.00765083
-0.00674179
-0.00577664
-0.00475855
-0.00369155
-0.00258066
-0.00143181
-0.000251957
0.00095098
0.00216812
0.00338966
0.00460494
0.00580256
0.00697045
0.00809607
0.00916654
0.0101688
0.01109
0.0119174
0.0126389
0.0132434
0.0137204
0.0140612
0.0142583
0.0143059
0.0142003
0.0139395
0.0135238
0.0129554
0.0122383
0.0113785
0.0103839
0.00926328
0.00802621
0.00668289
0.00525412
0.00375959
0.00207666
9.65593e-05
-0.00436609
-0.00597182
-0.00726155
-0.00833772
-0.00932063
-0.0102105
-0.0110068
-0.0117177
-0.0123516
-0.0129159
-0.0134173
-0.0138625
-0.0142572