/*--------------------------------*- C++ -*----------------------------------*\
  =========                 |
  \\      /  F ield         | OpenFOAM: The Open Source CFD Toolbox
   \\    /   O peration     | Website:  https://openfoam.org
    \\  /    A nd           | Version:  7
     \\/     M anipulation  |
\*---------------------------------------------------------------------------*/
FoamFile
{
    version     2.0;
    format      ascii;
    class       surfaceScalarField;
    location    "1.225";
    object      phi;
}
// * * * * * * * * * * * * * * * * * * * * * * * * * * * * * * * * * * * * * //

dimensions      [0 3 -1 0 0 0 0];

internalField   nonuniform List<scalar> 
12640
(
1.98281e-10
-2.06137e-10
5.66139e-10
-3.67891e-10
8.73116e-10
-3.06972e-10
9.95076e-10
-1.21976e-10
8.74008e-10
1.21056e-10
4.88034e-10
3.85969e-10
-1.64304e-10
6.52338e-10
-1.07286e-09
9.08561e-10
-2.22102e-09
1.14816e-09
-3.58863e-09
1.36762e-09
-5.15382e-09
1.56519e-09
-6.89405e-09
1.74023e-09
-8.78683e-09
1.89278e-09
-1.08101e-08
2.02329e-09
-1.29426e-08
2.13248e-09
-1.51638e-08
2.22121e-09
-1.74542e-08
2.2904e-09
-1.97952e-08
2.34101e-09
-2.21692e-08
2.37398e-09
-2.45594e-08
2.39021e-09
-2.69499e-08
2.39055e-09
-2.93257e-08
2.37577e-09
-3.16723e-08
2.34659e-09
-3.39759e-08
2.30366e-09
-3.62235e-08
2.24757e-09
-3.84023e-08
2.17885e-09
-4.05003e-08
2.09799e-09
-4.25058e-08
2.00545e-09
-4.44074e-08
1.90166e-09
-4.61945e-08
1.78704e-09
-4.78565e-08
1.662e-09
-4.93835e-08
1.52699e-09
-5.07659e-08
1.38246e-09
-5.19948e-08
1.22891e-09
-5.30617e-08
1.06691e-09
-5.39588e-08
8.97052e-10
-5.46788e-08
7.20028e-10
-5.52154e-08
5.366e-10
-5.5563e-08
3.47612e-10
-5.5717e-08
1.53998e-10
-5.56738e-08
-4.32175e-11
-5.54309e-08
-2.4292e-10
-5.4987e-08
-4.43899e-10
-5.43421e-08
-6.44859e-10
-5.34977e-08
-8.44418e-10
-5.24566e-08
-1.04112e-09
-5.12231e-08
-1.23345e-09
-4.98033e-08
-1.41983e-09
-4.82046e-08
-1.59867e-09
-4.64363e-08
-1.76831e-09
-4.45092e-08
-1.92714e-09
-4.24356e-08
-2.07351e-09
-4.02298e-08
-2.20584e-09
-3.79072e-08
-2.3226e-09
-3.54849e-08
-2.42233e-09
-3.29812e-08
-2.50367e-09
-3.04158e-08
-2.56536e-09
-2.78095e-08
-2.60631e-09
-2.5184e-08
-2.62555e-09
-2.25617e-08
-2.62231e-09
-1.99657e-08
-2.596e-09
-1.74194e-08
-2.54624e-09
-1.49466e-08
-2.47288e-09
-1.25706e-08
-2.37597e-09
-1.03148e-08
-2.25585e-09
-8.20168e-09
-2.11308e-09
-6.25314e-09
-1.94854e-09
-4.48977e-09
-1.76339e-09
-2.93064e-09
-1.55914e-09
-1.59288e-09
-1.33776e-09
-4.91085e-10
-1.10178e-09
3.63433e-10
-8.54489e-10
9.63733e-10
-6.003e-10
1.30898e-09
-3.45285e-10
1.4073e-09
-9.8366e-11
1.28031e-09
1.26973e-10
9.70587e-10
3.09747e-10
5.54668e-10
4.15953e-10
1.65984e-10
3.88705e-10
1.65998e-10
3.6494e-10
-5.71103e-10
8.5346e-10
-8.56448e-10
1.1078e-09
-5.6129e-10
9.05485e-10
8.03536e-11
1.16282e-10
9.10265e-10
-1.32301e-09
1.82527e-09
-3.42992e-09
2.75924e-09
-6.19185e-09
3.6705e-09
-9.5769e-09
4.53321e-09
-1.3541e-08
5.33175e-09
-1.8033e-08
6.05714e-09
-2.29975e-08
6.70475e-09
-2.83776e-08
7.27286e-09
-3.41159e-08
7.7617e-09
-4.01562e-08
8.17271e-09
-4.64431e-08
8.50816e-09
-5.29235e-08
8.77078e-09
-5.9546e-08
8.96355e-09
-6.62616e-08
9.08952e-09
-7.30231e-08
9.15172e-09
-7.97856e-08
9.15307e-09
-8.65062e-08
9.09632e-09
-9.31436e-08
8.98406e-09
-9.96587e-08
8.81868e-09
-1.06013e-07
8.60238e-09
-1.12172e-07
8.33723e-09
-1.18099e-07
8.02512e-09
-1.23761e-07
7.66787e-09
-1.29127e-07
7.26722e-09
-1.34165e-07
6.82488e-09
-1.38845e-07
6.3426e-09
-1.43141e-07
5.82216e-09
-1.47024e-07
5.26548e-09
-1.50469e-07
4.67461e-09
-1.53454e-07
4.05179e-09
-1.55957e-07
3.39949e-09
-1.57957e-07
2.72043e-09
-1.59438e-07
2.01761e-09
-1.60385e-07
1.29436e-09
-1.60785e-07
5.54294e-10
-1.6063e-07
-1.98616e-10
-1.59912e-07
-9.60081e-10
-1.58631e-07
-1.72549e-09
-1.56786e-07
-2.4899e-09
-1.54382e-07
-3.24812e-09
-1.51428e-07
-3.99465e-09
-1.47938e-07
-4.72379e-09
-1.43928e-07
-5.42967e-09
-1.39421e-07
-6.10628e-09
-1.34441e-07
-6.74755e-09
-1.29021e-07
-7.34741e-09
-1.23195e-07
-7.89984e-09
-1.17002e-07
-8.39898e-09
-1.10485e-07
-8.83918e-09
-1.03692e-07
-9.21508e-09
-9.66742e-08
-9.52168e-09
-8.94852e-08
-9.75445e-09
-8.21821e-08
-9.90937e-09
-7.48246e-08
-9.98303e-09
-6.74742e-08
-9.97265e-09
-6.0194e-08
-9.87622e-09
-5.30477e-08
-9.69249e-09
-4.60995e-08
-9.42109e-09
-3.9413e-08
-9.06252e-09
-3.30505e-08
-8.61827e-09
-2.70728e-08
-8.09087e-09
-2.15373e-08
-7.484e-09
-1.6498e-08
-6.80262e-09
-1.2004e-08
-6.05318e-09
-8.09786e-09
-5.24387e-09
-4.81449e-09
-4.38518e-09
-2.17839e-09
-3.49059e-09
-2.00898e-10
-2.57775e-09
1.12418e-09
-1.67031e-09
1.82647e-09
-8.00644e-10
1.96778e-09
-1.43718e-11
1.65364e-09
6.23837e-10
1.04831e-09
1.02127e-09
3.87868e-10
1.04914e-09
5.5389e-10
3.09685e-10
-8.8078e-10
5.67429e-10
-1.1142e-09
3.72746e-10
-3.66624e-10
-5.31356e-10
9.84454e-10
-2.30526e-09
2.68417e-09
-5.0339e-09
4.5539e-09
-8.74576e-09
6.47112e-09
-1.3429e-08
8.35377e-09
-1.90437e-08
1.01479e-08
-2.55306e-08
1.18187e-08
-3.28182e-08
1.33448e-08
-4.08272e-08
1.47138e-08
-4.94742e-08
1.59198e-08
-5.86737e-08
1.69613e-08
-6.83406e-08
1.78396e-08
-7.83908e-08
1.85583e-08
-8.87419e-08
1.9122e-08
-9.93144e-08
1.95361e-08
-1.10031e-07
1.98064e-08
-1.20818e-07
1.99388e-08
-1.31605e-07
1.99392e-08
-1.42321e-07
1.98132e-08
-1.52903e-07
1.95661e-08
-1.63288e-07
1.92029e-08
-1.73414e-07
1.87283e-08
-1.83223e-07
1.81468e-08
-1.92661e-07
1.74626e-08
-2.01672e-07
1.66796e-08
-2.10207e-07
1.58018e-08
-2.18215e-07
1.4833e-08
-2.2565e-07
1.37773e-08
-2.32466e-07
1.26387e-08
-2.38622e-07
1.14216e-08
-2.44078e-07
1.01306e-08
-2.48797e-07
8.7708e-09
-2.52746e-07
7.34774e-09
-2.55893e-07
5.86751e-09
-2.58212e-07
4.33678e-09
-2.5968e-07
2.76286e-09
-2.6028e-07
1.15375e-09
-2.59997e-07
-4.81887e-10
-2.58822e-07
-2.13471e-09
-2.56753e-07
-3.7947e-09
-2.53791e-07
-5.4512e-09
-2.49947e-07
-7.09295e-09
-2.45233e-07
-8.7082e-09
-2.39672e-07
-1.02847e-08
-2.33292e-07
-1.18099e-08
-2.26127e-07
-1.3271e-08
-2.1822e-07
-1.4655e-08
-2.09618e-07
-1.59491e-08
-2.00377e-07
-1.71405e-08
-1.9056e-07
-1.82167e-08
-1.80233e-07
-1.91658e-08
-1.69471e-07
-1.99766e-08
-1.58355e-07
-2.06384e-08
-1.46967e-07
-2.11419e-08
-1.35398e-07
-2.14785e-08
-1.2374e-07
-2.16413e-08
-1.12088e-07
-2.16245e-08
-1.0054e-07
-2.14241e-08
-8.91951e-08
-2.10376e-08
-7.81514e-08
-2.04647e-08
-6.75071e-08
-1.97068e-08
-5.73578e-08
-1.87676e-08
-4.77958e-08
-1.76529e-08
-3.89084e-08
-1.63714e-08
-3.07767e-08
-1.49343e-08
-2.34735e-08
-1.33564e-08
-1.70611e-08
-1.16562e-08
-1.15889e-08
-9.85737e-09
-7.08998e-09
-7.98955e-09
-3.57684e-09
-6.09092e-09
-1.0361e-09
-4.21106e-09
5.78685e-10
-2.41539e-09
1.35585e-09
-7.9151e-10
1.43711e-09
5.42597e-10
1.02938e-09
1.42902e-09
4.1728e-10
1.66123e-09
9.71199e-10
1.29595e-10
-1.01038e-09
-6.59481e-11
-9.18648e-10
-9.69818e-10
5.3724e-10
-2.83637e-09
2.851e-09
-5.82801e-09
5.67581e-09
-1.00332e-08
8.75907e-09
-1.5482e-08
1.192e-08
-2.21604e-08
1.50321e-08
-3.00213e-08
1.80088e-08
-3.89943e-08
2.07917e-08
-4.89924e-08
2.33429e-08
-5.99179e-08
2.56393e-08
-7.16666e-08
2.76685e-08
-8.41306e-08
2.94253e-08
-9.7201e-08
3.09101e-08
-1.10769e-07
3.21267e-08
-1.24729e-07
3.30815e-08
-1.38975e-07
3.37825e-08
-1.53407e-07
3.42383e-08
-1.67927e-07
3.44583e-08
-1.82439e-07
3.44515e-08
-1.96853e-07
3.42271e-08
-2.11081e-07
3.37938e-08
-2.25038e-07
3.316e-08
-2.38643e-07
3.23335e-08
-2.51818e-07
3.13221e-08
-2.64488e-07
3.01328e-08
-2.76582e-07
2.87728e-08
-2.88029e-07
2.72488e-08
-2.98764e-07
2.55679e-08
-3.08723e-07
2.3737e-08
-3.17848e-07
2.17635e-08
-3.26081e-07
1.96551e-08
-3.33371e-07
1.74201e-08
-3.39668e-07
1.50676e-08
-3.44927e-07
1.26073e-08
-3.4911e-07
1.00499e-08
-3.5218e-07
7.40717e-09
-3.54109e-07
4.69184e-09
-3.54873e-07
1.91777e-09
-3.54455e-07
-9.00034e-10
-3.52844e-07
-3.74546e-09
-3.50038e-07
-6.60128e-09
-3.4604e-07
-9.44923e-09
-3.40862e-07
-1.22701e-08
-3.34527e-07
-1.50438e-08
-3.27062e-07
-1.77495e-08
-3.18506e-07
-2.03659e-08
-3.08906e-07
-2.28713e-08
-2.98317e-07
-2.52437e-08
-2.86805e-07
-2.74614e-08
-2.74442e-07
-2.95029e-08
-2.61312e-07
-3.13472e-08
-2.47504e-07
-3.29742e-08
-2.33115e-07
-3.4365e-08
-2.18252e-07
-3.5502e-08
-2.03024e-07
-3.63692e-08
-1.8755e-07
-3.69528e-08
-1.7195e-07
-3.7241e-08
-1.5635e-07
-3.72244e-08
-1.40878e-07
-3.68967e-08
-1.25661e-07
-3.62541e-08
-1.1083e-07
-3.52962e-08
-9.65105e-08
-3.40262e-08
-8.28272e-08
-3.24509e-08
-6.98991e-08
-3.0581e-08
-5.78386e-08
-2.84319e-08
-4.67491e-08
-2.60237e-08
-3.6723e-08
-2.33825e-08
-2.78384e-08
-2.05408e-08
-2.01563e-08
-1.75394e-08
-1.37166e-08
-1.44292e-08
-8.53359e-09
-1.1274e-08
-4.58977e-09
-8.1549e-09
-1.82953e-09
-5.17564e-09
-1.50835e-10
-2.4702e-09
6.04293e-10
-2.12521e-10
6.59955e-10
1.37338e-09
3.19172e-10
2.00202e-09
1.2904e-09
-1.10974e-10
-8.99409e-10
-8.97217e-10
-1.32389e-10
-2.68347e-09
2.3235e-09
-5.69367e-09
5.86121e-09
-1.00722e-08
1.00544e-08
-1.58967e-08
1.45836e-08
-2.31895e-08
1.92128e-08
-3.19292e-08
2.37718e-08
-4.20602e-08
2.81398e-08
-5.35011e-08
3.22326e-08
-6.61522e-08
3.5994e-08
-7.99006e-08
3.93877e-08
-9.46248e-08
4.23927e-08
-1.10199e-07
4.49991e-08
-1.26493e-07
4.72048e-08
-1.4338e-07
4.90134e-08
-1.60731e-07
5.04324e-08
-1.78421e-07
5.1472e-08
-1.96326e-07
5.21439e-08
-2.14329e-07
5.24607e-08
-2.32312e-07
5.24353e-08
-2.50166e-07
5.20806e-08
-2.67781e-07
5.14092e-08
-2.85055e-07
5.04334e-08
-3.01886e-07
4.9165e-08
-3.18179e-07
4.76151e-08
-3.33841e-07
4.57949e-08
-3.48783e-07
4.37149e-08
-3.6292e-07
4.13859e-08
-3.76171e-07
3.88185e-08
-3.88458e-07
3.60237e-08
-3.99707e-07
3.30129e-08
-4.0985e-07
2.97983e-08
-4.18823e-07
2.63926e-08
-4.26565e-07
2.281e-08
-4.33024e-07
1.90656e-08
-4.3815e-07
1.51759e-08
-4.41901e-07
1.1159e-08
-4.44244e-07
7.0342e-09
-4.45149e-07
2.82285e-09
-4.44597e-07
-1.4523e-09
-4.42575e-07
-5.76679e-09
-4.39082e-07
-1.00946e-08
-4.34123e-07
-1.44081e-08
-4.27715e-07
-1.86785e-08
-4.19883e-07
-2.28755e-08
-4.10665e-07
-2.6968e-08
-4.00106e-07
-3.0924e-08
-3.88267e-07
-3.47111e-08
-3.75214e-07
-3.82966e-08
-3.61027e-07
-4.16481e-08
-3.45796e-07
-4.47334e-08
-3.29622e-07
-4.75216e-08
-3.12613e-07
-4.99828e-08
-2.94889e-07
-5.20889e-08
-2.76578e-07
-5.38139e-08
-2.57813e-07
-5.51343e-08
-2.38736e-07
-5.60296e-08
-2.19494e-07
-5.64826e-08
-2.00239e-07
-5.64799e-08
-1.81123e-07
-5.60121e-08
-1.62303e-07
-5.50744e-08
-1.43932e-07
-5.36668e-08
-1.26164e-07
-5.17944e-08
-1.09147e-07
-4.94683e-08
-9.30221e-08
-4.67055e-08
-7.79242e-08
-4.35297e-08
-6.39758e-08
-3.99722e-08
-5.12856e-08
-3.60727e-08
-3.99457e-08
-3.18807e-08
-3.00276e-08
-2.74575e-08
-2.15782e-08
-2.28785e-08
-1.46151e-08
-1.8237e-08
-9.12135e-09
-1.36486e-08
-5.03927e-09
-9.25773e-09
-2.2637e-09
-5.24576e-09
-6.3451e-10
-1.8417e-09
7.16213e-11
6.67268e-10
1.51513e-10
1.92213e-09
1.44193e-09
-3.78329e-10
-5.21087e-10
-1.83225e-09
1.32154e-09
-4.60815e-09
5.09941e-09
-8.88132e-09
1.01344e-08
-1.47637e-08
1.59367e-08
-2.23105e-08
2.21304e-08
-3.15283e-08
2.84306e-08
-4.23825e-08
3.46261e-08
-5.48061e-08
4.05633e-08
-6.87059e-08
4.61325e-08
-8.39697e-08
5.12577e-08
-1.00471e-07
5.58888e-08
-1.18073e-07
5.99951e-08
-1.36635e-07
6.35605e-08
-1.5601e-07
6.65797e-08
-1.76051e-07
6.90553e-08
-1.96614e-07
7.09955e-08
-2.17555e-07
7.24122e-08
-2.38731e-07
7.33201e-08
-2.60005e-07
7.37351e-08
-2.81244e-07
7.3674e-08
-3.02317e-07
7.31538e-08
-3.23099e-07
7.21912e-08
-3.43469e-07
7.08028e-08
-3.63308e-07
6.90046e-08
-3.82505e-07
6.68122e-08
-4.00951e-07
6.42409e-08
-4.18542e-07
6.13057e-08
-4.35178e-07
5.80217e-08
-4.50763e-07
5.4404e-08
-4.65208e-07
5.04683e-08
-4.78426e-07
4.6231e-08
-4.90337e-07
4.17094e-08
-5.00866e-07
3.69219e-08
-5.09945e-07
3.18885e-08
-5.1751e-07
2.66308e-08
-5.23506e-07
2.11722e-08
-5.27885e-07
1.55381e-08
-5.30607e-07
9.7561e-09
-5.3164e-07
3.8559e-09
-5.30962e-07
-2.13054e-09
-5.2856e-07
-8.16903e-09
-5.24431e-07
-1.42233e-08
-5.18584e-07
-2.02549e-08
-5.11039e-07
-2.62238e-08
-5.01827e-07
-3.2088e-08
-4.9099e-07
-3.78046e-08
-4.78585e-07
-4.33292e-08
-4.64679e-07
-4.86172e-08
-4.49352e-07
-5.36235e-08
-4.32696e-07
-5.83034e-08
-4.14817e-07
-6.26129e-08
-3.95829e-07
-6.65092e-08
-3.75861e-07
-6.99514e-08
-3.55049e-07
-7.29011e-08
-3.3354e-07
-7.53226e-08
-3.1149e-07
-7.7184e-08
-2.89063e-07
-7.84571e-08
-2.66426e-07
-7.91189e-08
-2.43755e-07
-7.9151e-08
-2.21226e-07
-7.85412e-08
-1.99017e-07
-7.72834e-08
-1.77306e-07
-7.53781e-08
-1.56267e-07
-7.28333e-08
-1.3607e-07
-6.96648e-08
-1.16879e-07
-6.58971e-08
-9.88446e-08
-6.15639e-08
-8.21077e-08
-5.67091e-08
-6.6792e-08
-5.13883e-08
-5.30024e-08
-4.56703e-08
-4.0821e-08
-3.96389e-08
-3.03028e-08
-3.33967e-08
-2.14718e-08
-2.70681e-08
-1.43156e-08
-2.08048e-08
-8.78106e-09
-1.47923e-08
-4.76837e-09
-9.25844e-09
-2.12593e-09
-4.48413e-09
-6.44694e-10
-8.1394e-10
-5.20599e-11
1.32951e-09
1.38987e-09
-6.54437e-10
1.33349e-10
-2.81325e-09
3.48036e-09
-6.63839e-09
8.92455e-09
-1.22466e-08
1.57426e-08
-1.97075e-08
2.33977e-08
-2.90456e-08
3.14686e-08
-4.02444e-08
3.96293e-08
-5.32514e-08
4.76332e-08
-6.79843e-08
5.52963e-08
-8.43365e-08
6.24847e-08
-1.02182e-07
6.91036e-08
-1.21382e-07
7.50885e-08
-1.41786e-07
8.03988e-08
-1.63237e-07
8.50117e-08
-1.85575e-07
8.8918e-08
-2.08639e-07
9.21189e-08
-2.32266e-07
9.46227e-08
-2.56297e-07
9.6443e-08
-2.80573e-07
9.75969e-08
-3.04942e-07
9.81038e-08
-3.29252e-07
9.79844e-08
-3.53358e-07
9.72598e-08
-3.77118e-07
9.59512e-08
-4.00395e-07
9.40797e-08
-4.23057e-07
9.16661e-08
-4.44975e-07
8.87306e-08
-4.66028e-07
8.52934e-08
-4.86096e-07
8.13742e-08
-5.05068e-07
7.69933e-08
-5.22835e-07
7.21709e-08
-5.39295e-07
6.6928e-08
-5.5435e-07
6.12868e-08
-5.67911e-07
5.52705e-08
-5.79894e-07
4.89039e-08
-5.90219e-07
4.2214e-08
-5.98818e-07
3.52296e-08
-6.05628e-07
2.79821e-08
-6.10595e-07
2.05053e-08
-6.13675e-07
1.2836e-08
-6.14832e-07
5.01359e-09
-6.14043e-07
-2.91958e-09
-6.11294e-07
-1.09184e-08
-6.06582e-07
-1.89349e-08
-5.99919e-07
-2.69187e-08
-5.91325e-07
-3.4817e-08
-5.80838e-07
-4.2575e-08
-5.68507e-07
-5.01361e-08
-5.54393e-07
-5.74426e-08
-5.38575e-07
-6.44359e-08
-5.21141e-07
-7.10573e-08
-5.02196e-07
-7.72485e-08
-4.81857e-07
-8.2952e-08
-4.60254e-07
-8.81122e-08
-4.37529e-07
-9.2676e-08
-4.13837e-07
-9.65933e-08
-3.89342e-07
-9.98179e-08
-3.64217e-07
-1.02308e-07
-3.38646e-07
-1.04028e-07
-3.12817e-07
-1.04948e-07
-2.86925e-07
-1.05044e-07
-2.61166e-07
-1.043e-07
-2.35739e-07
-1.0271e-07
-2.10842e-07
-1.00275e-07
-1.86671e-07
-9.70049e-08
-1.63413e-07
-9.29224e-08
-1.4125e-07
-8.80598e-08
-1.20353e-07
-8.24617e-08
-1.00875e-07
-7.61863e-08
-8.29572e-08
-6.93065e-08
-6.67157e-08
-6.19117e-08
-5.22444e-08
-5.41102e-08
-3.96084e-08
-4.60327e-08
-2.88407e-08
-3.78357e-08
-1.99382e-08
-2.97073e-08
-1.28573e-08
-2.18732e-08
-7.5105e-09
-1.46052e-08
-3.76287e-09
-8.23175e-09
-1.42914e-09
-3.14765e-09
-2.71936e-10
1.72324e-10
1.11793e-09
-9.29692e-10
1.06305e-09
-3.80571e-09
6.35639e-09
-8.70696e-09
1.38258e-08
-1.56874e-08
2.2723e-08
-2.47688e-08
3.24791e-08
-3.5939e-08
4.26387e-08
-4.91529e-08
5.28433e-08
-6.43357e-08
6.2816e-08
-8.13865e-08
7.23471e-08
-1.00183e-07
8.1281e-08
-1.20585e-07
8.95053e-08
-1.42438e-07
9.69423e-08
-1.65581e-07
1.03541e-07
-1.89842e-07
1.09273e-07
-2.15048e-07
1.14124e-07
-2.41023e-07
1.18094e-07
-2.67592e-07
1.21191e-07
-2.9458e-07
1.23431e-07
-3.21814e-07
1.24832e-07
-3.49128e-07
1.25417e-07
-3.76355e-07
1.25212e-07
-4.03335e-07
1.2424e-07
-4.29914e-07
1.22529e-07
-4.55938e-07
1.20104e-07
-4.81264e-07
1.16991e-07
-5.05748e-07
1.13215e-07
-5.29257e-07
1.08802e-07
-5.51659e-07
1.03776e-07
-5.72829e-07
9.81637e-08
-5.92649e-07
9.19907e-08
-6.11005e-07
8.52841e-08
-6.27791e-07
7.80723e-08
-6.42906e-07
7.03853e-08
-6.56257e-07
6.22552e-08
-6.67759e-07
5.37164e-08
-6.77336e-07
4.48061e-08
-6.84918e-07
3.55644e-08
-6.90448e-07
2.60347e-08
-6.93875e-07
1.62638e-08
-6.95164e-07
6.30177e-09
-6.94286e-07
-3.79753e-09
-6.91227e-07
-1.39769e-08
-6.85986e-07
-2.41757e-08
-6.78575e-07
-3.43302e-08
-6.69018e-07
-4.43739e-08
-6.57355e-07
-5.42376e-08
-6.43641e-07
-6.38501e-08
-6.27945e-07
-7.31389e-08
-6.10351e-07
-8.20304e-08
-5.90957e-07
-9.04509e-08
-5.69878e-07
-9.83272e-08
-5.47243e-07
-1.05587e-07
-5.23194e-07
-1.12162e-07
-4.97886e-07
-1.17984e-07
-4.71489e-07
-1.2299e-07
-4.44182e-07
-1.27124e-07
-4.16157e-07
-1.30334e-07
-3.87611e-07
-1.32574e-07
-3.58753e-07
-1.33806e-07
-3.29794e-07
-1.34003e-07
-3.0095e-07
-1.33144e-07
-2.72438e-07
-1.31222e-07
-2.44476e-07
-1.28237e-07
-2.17275e-07
-1.24206e-07
-1.91043e-07
-1.19154e-07
-1.65978e-07
-1.13125e-07
-1.42266e-07
-1.06173e-07
-1.20079e-07
-9.83736e-08
-9.95692e-08
-8.98163e-08
-8.08682e-08
-8.06127e-08
-6.40819e-08
-7.08965e-08
-4.92877e-08
-6.08268e-08
-3.65308e-08
-5.05927e-08
-2.58206e-08
-4.04175e-08
-1.71281e-08
-3.05657e-08
-1.03833e-08
-2.135e-08
-5.47358e-09
-1.31414e-08
-2.24359e-09
-6.37761e-09
-4.9672e-10
-1.57454e-09
6.21211e-10
-1.19922e-09
2.26228e-09
-4.78961e-09
9.94678e-09
-1.0772e-08
1.98082e-08
-1.91371e-08
3.10882e-08
-2.98562e-08
4.31981e-08
-4.28766e-08
5.56591e-08
-5.81211e-08
6.80877e-08
-7.54887e-08
8.01836e-08
-9.48572e-08
9.17156e-08
-1.16086e-07
1.0251e-07
-1.39018e-07
1.12438e-07
-1.63487e-07
1.21411e-07
-1.89316e-07
1.2937e-07
-2.1632e-07
1.36277e-07
-2.44314e-07
1.42118e-07
-2.73109e-07
1.46889e-07
-3.02517e-07
1.50599e-07
-3.3235e-07
1.53263e-07
-3.62423e-07
1.54905e-07
-3.92555e-07
1.55549e-07
-4.22569e-07
1.55225e-07
-4.52291e-07
1.53962e-07
-4.81552e-07
1.51791e-07
-5.1019e-07
1.48742e-07
-5.38046e-07
1.44847e-07
-5.64966e-07
1.40136e-07
-5.90805e-07
1.34641e-07
-6.1542e-07
1.28391e-07
-6.38675e-07
1.21419e-07
-6.60442e-07
1.13757e-07
-6.80597e-07
1.05439e-07
-6.99025e-07
9.65002e-08
-7.15617e-07
8.69774e-08
-7.30273e-07
7.69106e-08
-7.42899e-07
6.63429e-08
-7.53413e-07
5.53203e-08
-7.61741e-07
4.38925e-08
-7.6782e-07
3.21132e-08
-7.71596e-07
2.004e-08
-7.73029e-07
7.73497e-09
-7.72091e-07
-4.73592e-09
-7.68766e-07
-1.73023e-08
-7.63051e-07
-2.98899e-08
-7.54961e-07
-4.24207e-08
-7.44522e-07
-5.48131e-08
-7.31777e-07
-6.69827e-08
-7.16784e-07
-7.88426e-08
-6.99619e-07
-9.03043e-08
-6.80371e-07
-1.01278e-07
-6.59148e-07
-1.11674e-07
-6.36072e-07
-1.21403e-07
-6.11282e-07
-1.30378e-07
-5.84931e-07
-1.38513e-07
-5.57187e-07
-1.45728e-07
-5.28231e-07
-1.51946e-07
-4.98258e-07
-1.57097e-07
-4.67473e-07
-1.61119e-07
-4.3609e-07
-1.63957e-07
-4.04332e-07
-1.65564e-07
-3.72428e-07
-1.65906e-07
-3.40611e-07
-1.64961e-07
-3.09116e-07
-1.62717e-07
-2.78176e-07
-1.59178e-07
-2.48021e-07
-1.54361e-07
-2.18875e-07
-1.483e-07
-1.90954e-07
-1.41046e-07
-1.64459e-07
-1.32668e-07
-1.39578e-07
-1.23255e-07
-1.16478e-07
-1.12916e-07
-9.53049e-08
-1.01785e-07
-7.61799e-08
-9.00215e-08
-5.91941e-08
-7.78126e-08
-4.44076e-08
-6.53792e-08
-3.18459e-08
-5.29792e-08
-2.14981e-08
-4.09135e-08
-1.33155e-08
-2.95326e-08
-7.21186e-09
-1.92451e-08
-3.06481e-09
-1.05247e-08
-7.20052e-10
-3.91929e-09
-9.8836e-11
-1.46069e-09
3.72296e-09
-5.75377e-09
1.42399e-08
-1.28081e-08
2.68625e-08
-2.25532e-08
4.08333e-08
-3.4909e-08
5.55539e-08
-4.97805e-08
7.05306e-08
-6.70556e-08
8.53629e-08
-8.66048e-08
9.97328e-08
-1.08282e-07
1.13393e-07
-1.31926e-07
1.26154e-07
-1.57364e-07
1.37876e-07
-1.84412e-07
1.48459e-07
-2.12879e-07
1.57837e-07
-2.42569e-07
1.65968e-07
-2.73284e-07
1.72832e-07
-3.04821e-07
1.78427e-07
-3.36981e-07
1.82759e-07
-3.69565e-07
1.85847e-07
-4.02376e-07
1.87716e-07
-4.35222e-07
1.88395e-07
-4.67912e-07
1.87916e-07
-5.00263e-07
1.86313e-07
-5.32095e-07
1.83622e-07
-5.63232e-07
1.7988e-07
-5.93507e-07
1.75122e-07
-6.22755e-07
1.69384e-07
-6.50819e-07
1.62704e-07
-6.77547e-07
1.55119e-07
-7.02795e-07
1.46667e-07
-7.26423e-07
1.37385e-07
-7.483e-07
1.27316e-07
-7.68301e-07
1.16502e-07
-7.86312e-07
1.04988e-07
-8.02224e-07
9.28222e-08
-8.15937e-07
8.00565e-08
-8.27363e-07
6.67466e-08
-8.36424e-07
5.29526e-08
-8.43049e-07
3.87391e-08
-8.47185e-07
2.41754e-08
-8.48786e-07
9.33596e-09
-8.47822e-07
-5.69995e-09
-8.44276e-07
-2.08481e-08
-8.38146e-07
-3.60197e-08
-8.29446e-07
-5.11213e-08
-8.18203e-07
-6.60556e-08
-8.04464e-07
-8.0722e-08
-7.8829e-07
-9.50167e-08
-7.6976e-07
-1.08834e-07
-7.4897e-07
-1.22068e-07
-7.26033e-07
-1.3461e-07
-7.01081e-07
-1.46356e-07
-6.74258e-07
-1.572e-07
-6.4573e-07
-1.67041e-07
-6.15673e-07
-1.75784e-07
-5.84281e-07
-1.83337e-07
-5.51761e-07
-1.89618e-07
-5.18331e-07
-1.9455e-07
-4.84219e-07
-1.98068e-07
-4.49664e-07
-2.00119e-07
-4.1491e-07
-2.00661e-07
-3.80204e-07
-1.99666e-07
-3.45799e-07
-1.97122e-07
-3.11944e-07
-1.93033e-07
-2.78886e-07
-1.87418e-07
-2.46866e-07
-1.8032e-07
-2.16115e-07
-1.71797e-07
-1.86852e-07
-1.61931e-07
-1.5928e-07
-1.50827e-07
-1.33583e-07
-1.38614e-07
-1.09922e-07
-1.25446e-07
-8.84349e-08
-1.11509e-07
-6.9229e-08
-9.70185e-08
-5.23816e-08
-8.22266e-08
-3.7937e-08
-6.74238e-08
-2.59054e-08
-5.29452e-08
-1.62622e-08
-3.91758e-08
-8.94964e-09
-2.65576e-08
-3.87944e-09
-1.55948e-08
-9.3868e-10
-6.86005e-09
-1.03751e-09
-1.71316e-09
5.43612e-09
-6.69236e-09
1.92191e-08
-1.48007e-08
3.49708e-08
-2.59094e-08
5.1942e-08
-3.98879e-08
6.95324e-08
-5.65982e-08
8.7241e-08
-7.58921e-08
1.04657e-07
-9.76094e-08
1.2145e-07
-1.21578e-07
1.37362e-07
-1.47616e-07
1.52192e-07
-1.75531e-07
1.6579e-07
-2.05123e-07
1.78051e-07
-2.36186e-07
1.889e-07
-2.68511e-07
1.98293e-07
-3.01887e-07
2.06208e-07
-3.361e-07
2.1264e-07
-3.70939e-07
2.17598e-07
-4.06194e-07
2.21103e-07
-4.41658e-07
2.2318e-07
-4.77127e-07
2.23864e-07
-5.12402e-07
2.23191e-07
-5.47288e-07
2.21199e-07
-5.81595e-07
2.17929e-07
-6.15139e-07
2.13423e-07
-6.4774e-07
2.07723e-07
-6.79226e-07
2.0087e-07
-7.09429e-07
1.92908e-07
-7.3819e-07
1.8388e-07
-7.65355e-07
1.73831e-07
-7.90776e-07
1.62807e-07
-8.14315e-07
1.50855e-07
-8.35839e-07
1.38026e-07
-8.55226e-07
1.24375e-07
-8.72361e-07
1.09957e-07
-8.87139e-07
9.48343e-08
-8.99465e-07
7.90727e-08
-9.09255e-07
6.27431e-08
-9.16438e-07
4.59215e-08
-9.20952e-07
2.86898e-08
-9.22751e-07
1.11354e-08
-9.21803e-07
-6.64854e-09
-9.18088e-07
-2.45632e-08
-9.11603e-07
-4.25042e-08
-9.02362e-07
-6.03624e-08
-8.90394e-07
-7.80236e-08
-8.75746e-07
-9.53701e-08
-8.58482e-07
-1.12281e-07
-8.38685e-07
-1.28632e-07
-8.16454e-07
-1.44298e-07
-7.91909e-07
-1.59155e-07
-7.65186e-07
-1.73079e-07
-7.3644e-07
-1.85947e-07
-7.0584e-07
-1.97641e-07
-6.73576e-07
-2.08048e-07
-6.39851e-07
-2.17063e-07
-6.04882e-07
-2.24587e-07
-5.68899e-07
-2.30532e-07
-5.32145e-07
-2.34822e-07
-4.94871e-07
-2.37393e-07
-4.57335e-07
-2.38196e-07
-4.19802e-07
-2.37199e-07
-3.82538e-07
-2.34386e-07
-3.4581e-07
-2.29761e-07
-3.0988e-07
-2.23349e-07
-2.75005e-07
-2.15194e-07
-2.41435e-07
-2.05367e-07
-2.09405e-07
-1.93962e-07
-1.79135e-07
-1.81097e-07
-1.50826e-07
-1.66922e-07
-1.24658e-07
-1.51614e-07
-1.00784e-07
-1.35382e-07
-7.9332e-08
-1.18471e-07
-6.03979e-08
-1.01161e-07
-4.40473e-08
-8.37744e-08
-3.03134e-08
-6.66791e-08
-1.91976e-08
-5.02916e-08
-1.06715e-08
-3.50837e-08
-4.68072e-09
-2.15856e-08
-1.15124e-09
-1.03895e-08
-2.18873e-09
-1.9565e-09
7.39262e-09
-7.6028e-09
2.48654e-08
-1.6742e-08
4.411e-08
-2.91904e-08
6.43905e-08
-4.47687e-08
8.51106e-08
-6.32961e-08
1.05768e-07
-8.45875e-08
1.25948e-07
-1.08451e-07
1.45314e-07
-1.34689e-07
1.63599e-07
-1.63094e-07
1.80597e-07
-1.93456e-07
1.96152e-07
-2.25556e-07
2.10151e-07
-2.59174e-07
2.22518e-07
-2.94087e-07
2.33206e-07
-3.30071e-07
2.42192e-07
-3.66901e-07
2.4947e-07
-4.04356e-07
2.55052e-07
-4.42213e-07
2.5896e-07
-4.80258e-07
2.61225e-07
-5.18275e-07
2.61882e-07
-5.56057e-07
2.60972e-07
-5.93399e-07
2.58541e-07
-6.30102e-07
2.54633e-07
-6.65973e-07
2.49294e-07
-7.00825e-07
2.42574e-07
-7.34475e-07
2.34521e-07
-7.6675e-07
2.25182e-07
-7.97479e-07
2.1461e-07
-8.26503e-07
2.02855e-07
-8.53665e-07
1.8997e-07
-8.78821e-07
1.76011e-07
-9.01831e-07
1.61037e-07
-9.22566e-07
1.4511e-07
-9.40905e-07
1.28296e-07
-9.56737e-07
1.10667e-07
-9.69963e-07
9.22985e-08
-9.80493e-07
7.32735e-08
-9.88252e-07
5.36798e-08
-9.93174e-07
3.36121e-08
-9.9521e-07
1.31715e-08
-9.94324e-07
-7.53448e-09
-9.90496e-07
-2.83916e-08
-9.8372e-07
-4.92798e-08
-9.7401e-07
-7.00728e-08
-9.61394e-07
-9.06394e-08
-9.4592e-07
-1.10844e-07
-9.27655e-07
-1.30546e-07
-9.06682e-07
-1.49605e-07
-8.83105e-07
-1.67875e-07
-8.57048e-07
-1.85213e-07
-8.28651e-07
-2.01476e-07
-7.98075e-07
-2.16522e-07
-7.65498e-07
-2.30217e-07
-7.31117e-07
-2.4243e-07
-6.95144e-07
-2.53037e-07
-6.57805e-07
-2.61925e-07
-6.19344e-07
-2.68993e-07
-5.80015e-07
-2.74152e-07
-5.4008e-07
-2.77327e-07
-4.99814e-07
-2.78463e-07
-4.59495e-07
-2.77519e-07
-4.19404e-07
-2.74477e-07
-3.79824e-07
-2.69341e-07
-3.41035e-07
-2.62137e-07
-3.03312e-07
-2.52918e-07
-2.66919e-07
-2.4176e-07
-2.32111e-07
-2.2877e-07
-1.99126e-07
-2.14082e-07
-1.68184e-07
-1.97865e-07
-1.39483e-07
-1.80315e-07
-1.13197e-07
-1.61668e-07
-8.9473e-08
-1.42195e-07
-6.84291e-08
-1.22205e-07
-5.01535e-08
-1.0205e-07
-3.47043e-08
-8.21284e-08
-2.21097e-08
-6.28862e-08
-1.23709e-08
-4.48225e-08
-5.4663e-09
-2.84902e-08
-1.35752e-09
-1.44983e-08
-3.54624e-09
-2.19094e-09
9.58355e-09
-8.48439e-09
3.11589e-08
-1.86286e-08
5.42542e-08
-3.23884e-08
7.81502e-08
-4.95374e-08
1.0226e-07
-6.98533e-08
1.26084e-07
-9.31142e-08
1.49209e-07
-1.19097e-07
1.71296e-07
-1.47574e-07
1.92076e-07
-1.78316e-07
2.11339e-07
-2.11091e-07
2.28927e-07
-2.45663e-07
2.44724e-07
-2.81797e-07
2.58652e-07
-3.19254e-07
2.70663e-07
-3.57797e-07
2.80735e-07
-3.97192e-07
2.88865e-07
-4.37205e-07
2.95065e-07
-4.77606e-07
2.99361e-07
-5.18168e-07
3.01787e-07
-5.5867e-07
3.02383e-07
-5.98892e-07
3.01195e-07
-6.38624e-07
2.98273e-07
-6.77658e-07
2.93666e-07
-7.15792e-07
2.87429e-07
-7.52832e-07
2.79614e-07
-7.88588e-07
2.70277e-07
-8.22878e-07
2.59472e-07
-8.55526e-07
2.47258e-07
-8.86364e-07
2.33692e-07
-9.1523e-07
2.18836e-07
-9.41972e-07
2.02753e-07
-9.66445e-07
1.85509e-07
-9.88513e-07
1.67177e-07
-1.00805e-06
1.47832e-07
-1.02494e-06
1.27555e-07
-1.03907e-06
1.06435e-07
-1.05036e-06
8.45634e-08
-1.05873e-06
6.20423e-08
-1.06409e-06
3.89793e-08
-1.06641e-06
1.54895e-08
-1.06564e-06
-8.30446e-09
-1.06176e-06
-3.22729e-08
-1.05476e-06
-5.62789e-08
-1.04465e-06
-8.01791e-08
-1.03147e-06
-1.03824e-07
-1.01525e-06
-1.2706e-07
-9.96073e-07
-1.49727e-07
-9.74013e-07
-1.71665e-07
-9.49179e-07
-1.92708e-07
-9.21698e-07
-2.12694e-07
-8.91716e-07
-2.31458e-07
-8.59397e-07
-2.48842e-07
-8.24925e-07
-2.64689e-07
-7.88505e-07
-2.7885e-07
-7.50355e-07
-2.91186e-07
-7.10715e-07
-3.01566e-07
-6.69834e-07
-3.09874e-07
-6.2798e-07
-3.16006e-07
-5.85428e-07
-3.19879e-07
-5.42465e-07
-3.21425e-07
-4.99384e-07
-3.20599e-07
-4.56482e-07
-3.17379e-07
-4.14059e-07
-3.11765e-07
-3.7241e-07
-3.03786e-07
-3.31828e-07
-2.93499e-07
-2.92598e-07
-2.8099e-07
-2.54991e-07
-2.66377e-07
-2.19265e-07
-2.49808e-07
-1.85661e-07
-2.31469e-07
-1.54397e-07
-2.11579e-07
-1.25669e-07
-1.90397e-07
-9.96454e-08
-1.68218e-07
-7.64683e-08
-1.45382e-07
-5.62499e-08
-1.22268e-07
-3.9074e-08
-9.93043e-08
-2.49965e-08
-7.69638e-08
-1.40476e-08
-5.57713e-08
-6.23674e-09
-3.63011e-08
-1.55805e-09
-1.9177e-08
-5.10427e-09
-2.41693e-09
1.20005e-08
-9.33756e-09
3.80795e-08
-2.04596e-08
6.53763e-08
-3.54998e-08
9.31904e-08
-5.4187e-08
1.20947e-07
-7.62583e-08
1.48156e-07
-1.01456e-07
1.74406e-07
-1.29523e-07
1.99364e-07
-1.60207e-07
2.2276e-07
-1.93252e-07
2.44385e-07
-2.28405e-07
2.6408e-07
-2.65412e-07
2.81731e-07
-3.0402e-07
2.9726e-07
-3.43978e-07
3.10621e-07
-3.85036e-07
3.21793e-07
-4.26948e-07
3.30777e-07
-4.69469e-07
3.37587e-07
-5.1236e-07
3.42252e-07
-5.55385e-07
3.44812e-07
-5.98315e-07
3.45312e-07
-6.40922e-07
3.43803e-07
-6.82987e-07
3.40338e-07
-7.24296e-07
3.34975e-07
-7.64641e-07
3.27773e-07
-8.03818e-07
3.18792e-07
-8.41633e-07
3.08092e-07
-8.77896e-07
2.95736e-07
-9.12425e-07
2.81787e-07
-9.45046e-07
2.66313e-07
-9.7559e-07
2.4938e-07
-1.0039e-06
2.31062e-07
-1.02982e-06
2.11433e-07
-1.05322e-06
1.90574e-07
-1.07396e-06
1.6857e-07
-1.09192e-06
1.45513e-07
-1.10698e-06
1.21502e-07
-1.11906e-06
9.66417e-08
-1.12806e-06
7.10461e-08
-1.13392e-06
4.48363e-08
-1.13657e-06
1.8142e-08
-1.13598e-06
-8.89916e-09
-1.13211e-06
-3.61411e-08
-1.12496e-06
-6.34301e-08
-1.11453e-06
-9.06051e-08
-1.10086e-06
-1.17498e-07
-1.08398e-06
-1.43935e-07
-1.06397e-06
-1.69739e-07
-1.04091e-06
-1.94726e-07
-1.01491e-06
-2.18712e-07
-9.86089e-07
-2.41513e-07
-9.54603e-07
-2.62944e-07
-9.2062e-07
-2.82825e-07
-8.84328e-07
-3.0098e-07
-8.45937e-07
-3.17241e-07
-8.05675e-07
-3.31448e-07
-7.63786e-07
-3.43454e-07
-7.20533e-07
-3.53126e-07
-6.76193e-07
-3.60347e-07
-6.31053e-07
-3.65019e-07
-5.85414e-07
-3.67064e-07
-5.39583e-07
-3.6643e-07
-4.93874e-07
-3.63088e-07
-4.486e-07
-3.57038e-07
-4.04078e-07
-3.48309e-07
-3.60618e-07
-3.3696e-07
-3.18522e-07
-3.23086e-07
-2.78085e-07
-3.06814e-07
-2.39584e-07
-2.88309e-07
-2.03282e-07
-2.67771e-07
-1.69419e-07
-2.45442e-07
-1.38215e-07
-2.21601e-07
-1.09861e-07
-1.96572e-07
-8.45248e-08
-1.70718e-07
-6.2344e-08
-1.44449e-07
-4.3429e-08
-1.18219e-07
-2.78632e-08
-9.25296e-08
-1.57055e-08
-6.79289e-08
-6.99457e-09
-4.50121e-08
-1.7538e-09
-2.44178e-08
-6.85806e-09
-2.635e-09
1.46355e-08
-1.01633e-08
4.56078e-08
-2.22359e-08
7.74488e-08
-3.85242e-08
1.09479e-07
-5.87147e-08
1.41137e-07
-8.25053e-08
1.71946e-07
-1.09602e-07
2.01503e-07
-1.39719e-07
2.2948e-07
-1.72571e-07
2.55613e-07
-2.07882e-07
2.79695e-07
-2.45375e-07
3.01572e-07
-2.84777e-07
3.21133e-07
-3.2582e-07
3.38303e-07
-3.68237e-07
3.53038e-07
-4.11767e-07
3.65323e-07
-4.56149e-07
3.75159e-07
-5.01132e-07
3.82569e-07
-5.46465e-07
3.87586e-07
-5.91905e-07
3.90252e-07
-6.37214e-07
3.9062e-07
-6.82157e-07
3.88746e-07
-7.26509e-07
3.84689e-07
-7.70047e-07
3.78514e-07
-8.12558e-07
3.70284e-07
-8.53832e-07
3.60066e-07
-8.93669e-07
3.47928e-07
-9.31873e-07
3.33939e-07
-9.68255e-07
3.1817e-07
-1.00264e-06
3.00694e-07
-1.03484e-06
2.81587e-07
-1.06471e-06
2.6093e-07
-1.09208e-06
2.38806e-07
-1.11682e-06
2.15306e-07
-1.13877e-06
1.90523e-07
-1.15782e-06
1.64561e-07
-1.17385e-06
1.3753e-07
-1.18675e-06
1.09546e-07
-1.19644e-06
8.0736e-08
-1.20284e-06
5.12353e-08
-1.20588e-06
2.11877e-08
-1.20553e-06
-9.25336e-09
-1.20175e-06
-3.99256e-08
-1.19452e-06
-7.06579e-08
-1.18385e-06
-1.01271e-07
-1.16977e-06
-1.31578e-07
-1.15232e-06
-1.61385e-07
-1.13157e-06
-1.90494e-07
-1.10759e-06
-2.18702e-07
-1.0805e-06
-2.45802e-07