/*--------------------------------*- C++ -*----------------------------------*\
  =========                 |
  \\      /  F ield         | OpenFOAM: The Open Source CFD Toolbox
   \\    /   O peration     | Website:  https://openfoam.org
    \\  /    A nd           | Version:  7
     \\/     M anipulation  |
\*---------------------------------------------------------------------------*/
FoamFile
{
    version     2.0;
    format      ascii;
    class       volVectorField;
    location    "1.225";
    object      U;
}
// * * * * * * * * * * * * * * * * * * * * * * * * * * * * * * * * * * * * * //

dimensions      [0 1 -1 0 0 0 0];

internalField   nonuniform List<vector> 
6400
(
(7.64027e-06 -7.97159e-06 0)
(3.07397e-05 -1.48274e-05 0)
(5.95983e-05 -1.38607e-05 0)
(7.84485e-05 -8.7789e-06 0)
(7.92731e-05 -1.98195e-06 0)
(5.92489e-05 5.30791e-06 0)
(1.76926e-05 1.24793e-05 0)
(-4.4939e-05 1.92325e-05 0)
(-0.000127509 2.5429e-05 0)
(-0.0002285 3.1011e-05 0)
(-0.000346203 3.59646e-05 0)
(-0.000478825 4.02988e-05 0)
(-0.000624553 4.40347e-05 0)
(-0.000781597 4.72001e-05 0)
(-0.000948219 4.98256e-05 0)
(-0.00112274 5.19426e-05 0)
(-0.00130357 5.3582e-05 0)
(-0.00148917 5.47734e-05 0)
(-0.0016781 5.55445e-05 0)
(-0.00186898 5.59209e-05 0)
(-0.00206051 5.59259e-05 0)
(-0.00225145 5.55802e-05 0)
(-0.00244062 5.49021e-05 0)
(-0.00262689 5.39077e-05 0)
(-0.00280919 5.26113e-05 0)
(-0.00298649 5.10255e-05 0)
(-0.00315779 4.91611e-05 0)
(-0.00332215 4.70281e-05 0)
(-0.00347865 4.46355e-05 0)
(-0.00362641 4.19919e-05 0)
(-0.00376456 3.91058e-05 0)
(-0.00389231 3.59859e-05 0)
(-0.00400887 3.26416e-05 0)
(-0.00411349 2.90831e-05 0)
(-0.00420548 2.53219e-05 0)
(-0.00428418 2.13709e-05 0)
(-0.00434899 1.7245e-05 0)
(-0.00439937 1.2961e-05 0)
(-0.00443483 8.53779e-06 0)
(-0.00445497 3.9966e-06 0)
(-0.00445946 -6.39057e-07 0)
(-0.00444804 -5.34326e-06 0)
(-0.00442058 -1.00876e-05 0)
(-0.00437701 -1.48415e-05 0)
(-0.00431739 -1.95717e-05 0)
(-0.0042419 -2.42433e-05 0)
(-0.00415082 -2.88197e-05 0)
(-0.00404455 -3.32627e-05 0)
(-0.00392365 -3.75331e-05 0)
(-0.00378878 -4.15907e-05 0)
(-0.00364073 -4.5395e-05 0)
(-0.00348045 -4.89057e-05 0)
(-0.003309 -5.20834e-05 0)
(-0.00312755 -5.48899e-05 0)
(-0.00293741 -5.72884e-05 0)
(-0.00274001 -5.92447e-05 0)
(-0.00253686 -6.07271e-05 0)
(-0.00232959 -6.17071e-05 0)
(-0.0021199 -6.21601e-05 0)
(-0.00190955 -6.20655e-05 0)
(-0.00170038 -6.14072e-05 0)
(-0.00149425 -6.01739e-05 0)
(-0.00129304 -5.83594e-05 0)
(-0.00109865 -5.59626e-05 0)
(-0.000912944 -5.29879e-05 0)
(-0.000737773 -4.94453e-05 0)
(-0.000574915 -4.53509e-05 0)
(-0.000426073 -4.07267e-05 0)
(-0.000292845 -3.56013e-05 0)
(-0.000176687 -3.00125e-05 0)
(-7.88812e-05 -2.40098e-05 0)
(-4.82798e-07 -1.76602e-05 0)
(5.77512e-05 -1.10571e-05 0)
(9.54699e-05 -4.33897e-06 0)
(0.000112908 2.2689e-06 0)
(0.000111166 8.38574e-06 0)
(9.26068e-05 1.33514e-05 0)
(6.17191e-05 1.59714e-05 0)
(2.77008e-05 1.41591e-05 0)
(5.73791e-06 5.74251e-06 0)
(1.46828e-05 -3.12708e-05 0)
(5.086e-05 -5.10969e-05 0)
(8.49026e-05 -4.0546e-05 0)
(9.06616e-05 -1.25362e-05 0)
(5.2882e-05 2.43316e-05 0)
(-3.55187e-05 6.48398e-05 0)
(-0.00017732 0.000105867 0)
(-0.000372486 0.000145567 0)
(-0.000619081 0.000182867 0)
(-0.000913955 0.000217159 0)
(-0.00125322 0.000248126 0)
(-0.00163256 0.000275632 0)
(-0.00204745 0.000299655 0)
(-0.00249329 0.000320246 0)
(-0.00296552 0.000337501 0)
(-0.00345966 0.000351544 0)
(-0.00397138 0.000362512 0)
(-0.00449648 0.000370549 0)
(-0.00503095 0.000375796 0)
(-0.00557094 0.000378393 0)
(-0.00611276 0.000378469 0)
(-0.00665292 0.000376146 0)
(-0.00718803 0.000371536 0)
(-0.00771489 0.00036474 0)
(-0.00823042 0.000355851 0)
(-0.00873165 0.000344955 0)
(-0.00921574 0.00033213 0)
(-0.00967997 0.000317448 0)
(-0.0101217 0.00030098 0)
(-0.0105384 0.000282793 0)
(-0.0109277 0.000262955 0)
(-0.0112873 0.000241536 0)
(-0.011615 0.000218613 0)
(-0.0119086 0.000194266 0)
(-0.0121663 0.000168583 0)
(-0.0123861 0.000141664 0)
(-0.0125666 0.000113617 0)
(-0.0127062 8.45656e-05 0)
(-0.0128036 5.4643e-05 0)
(-0.0128577 2.39984e-05 0)
(-0.0128676 -7.20532e-06 0)
(-0.0128328 -3.87911e-05 0)
(-0.0127528 -7.05677e-05 0)
(-0.0126277 -0.00010233 0)
(-0.0124576 -0.00013386 0)
(-0.0122431 -0.000164929 0)
(-0.0119851 -0.000195297 0)
(-0.0116847 -0.000224717 0)
(-0.0113435 -0.000252936 0)
(-0.0109635 -0.000279697 0)
(-0.0105468 -0.000304744 0)
(-0.0100962 -0.000327821 0)
(-0.00961464 -0.00034868 0)
(-0.00910536 -0.000367079 0)
(-0.00857202 -0.00038279 0)
(-0.00801856 -0.000395601 0)
(-0.00744919 -0.000405315 0)
(-0.00686836 -0.000411761 0)
(-0.00628075 -0.00041479 0)
(-0.00569122 -0.000414281 0)
(-0.00510475 -0.000410145 0)
(-0.00452644 -0.000402323 0)
(-0.00396141 -0.000390792 0)
(-0.00341479 -0.000375567 0)
(-0.00289163 -0.000356701 0)
(-0.00239688 -0.000334289 0)
(-0.00193526 -0.000308473 0)
(-0.00151127 -0.000279446 0)
(-0.00112905 -0.000247458 0)
(-0.0007923 -0.000212829 0)
(-0.000504154 -0.000175975 0)
(-0.000267038 -0.000137435 0)
(-8.24536e-05 -9.79299e-05 0)
(4.92953e-05 -5.84489e-05 0)
(0.000129517 -2.04049e-05 0)
(0.000161702 1.41189e-05 0)
(0.000152182 4.19879e-05 0)
(0.000111199 5.8429e-05 0)
(5.63141e-05 5.63424e-05 0)
(1.41072e-05 2.76509e-05 0)
(1.3971e-05 -6.00776e-05 0)
(4.0938e-05 -8.5224e-05 0)
(4.89052e-05 -4.83701e-05 0)
(9.32309e-06 2.60281e-05 0)
(-9.53969e-05 0.000121499 0)
(-0.000274449 0.000226888 0)
(-0.000531932 0.000334804 0)
(-0.000868255 0.000440454 0)
(-0.00128115 0.000540792 0)
(-0.0017665 0.00063392 0)
(-0.00231896 0.000718716 0)
(-0.00293242 0.000794573 0)
(-0.00360032 0.000861235 0)
(-0.00431586 0.000918681 0)
(-0.00507219 0.000967044 0)
(-0.00586251 0.00100656 0)
(-0.00668016 0.00103753 0)
(-0.00751866 0.00106028 0)
(-0.00837173 0.00107515 0)
(-0.00923332 0.0010825 0)
(-0.0100976 0.00108264 0)
(-0.0109591 0.00107592 0)
(-0.0118123 0.00106262 0)
(-0.0126522 0.00104302 0)
(-0.0134738 0.00101739 0)
(-0.0142723 0.000985959 0)
(-0.0150433 0.000948965 0)
(-0.0157823 0.00090662 0)
(-0.0164851 0.000859133 0)
(-0.0171478 0.00080671 0)
(-0.0177664 0.00074956 0)
(-0.0183373 0.0006879 0)
(-0.0188571 0.000621959 0)
(-0.0193223 0.000551985 0)
(-0.01973 0.000478246 0)
(-0.0200773 0.000401038 0)
(-0.0203617 0.000320685 0)
(-0.0205808 0.000237548 0)
(-0.0207328 0.000152019 0)
(-0.0208158 6.45294e-05 0)
(-0.0208287 -2.44506e-05 0)
(-0.0207705 -0.000114413 0)
(-0.0206407 -0.000204813 0)
(-0.0204394 -0.000295069 0)
(-0.0201669 -0.000384565 0)
(-0.0198242 -0.000472656 0)
(-0.0194127 -0.000558672 0)
(-0.0189345 -0.000641922 0)
(-0.0183919 -0.0007217 0)
(-0.0177881 -0.000797294 0)
(-0.0171267 -0.000867992 0)
(-0.0164119 -0.00093309 0)
(-0.0156482 -0.000991899 0)
(-0.0148411 -0.00104376 0)
(-0.013996 -0.00108804 0)
(-0.0131193 -0.00112417 0)
(-0.0122174 -0.0011516 0)
(-0.0112973 -0.00116988 0)
(-0.0103664 -0.00117861 0)
(-0.00943205 -0.00117746 0)
(-0.00850213 -0.0011662 0)
(-0.00758446 -0.0011447 0)
(-0.00668696 -0.00111291 0)
(-0.00581754 -0.0010709 0)
(-0.00498394 -0.00101887 0)
(-0.00419371 -0.000957105 0)
(-0.00345407 -0.000886066 0)
(-0.0027718 -0.00080635 0)
(-0.00215307 -0.000718736 0)
(-0.00160335 -0.000624217 0)
(-0.00112715 -0.000524053 0)
(-0.000727854 -0.000419861 0)
(-0.000407373 -0.00031374 0)
(-0.000165793 -0.00020847 0)
(-8.66712e-07 -0.000107805 0)
(9.26248e-05 -1.69042e-05 0)
(0.000123519 5.70657e-05 0)
(0.000105163 0.000104224 0)
(5.87873e-05 0.000111294 0)
(1.59575e-05 6.16162e-05 0)
(9.12484e-06 -7.93355e-05 0)
(1.35286e-05 -9.14609e-05 0)
(-2.47807e-05 -8.95339e-06 0)
(-0.000131417 0.000132433 0)
(-0.000323286 0.000308394 0)
(-0.000610036 0.000501588 0)
(-0.000996072 0.000699862 0)
(-0.00148178 0.000894909 0)
(-0.00206453 0.00108115 0)
(-0.00273945 0.00125493 0)
(-0.00350013 0.00141394 0)
(-0.00433907 0.00155681 0)
(-0.00524814 0.00168285 0)
(-0.0062188 0.00179181 0)
(-0.00724233 0.00188381 0)
(-0.00831002 0.00195914 0)
(-0.00941323 0.00201825 0)
(-0.0105435 0.00206168 0)
(-0.0116926 0.00209001 0)
(-0.0128526 0.00210384 0)
(-0.0140157 0.00210376 0)
(-0.0151745 0.00209036 0)
(-0.0163219 0.00206417 0)
(-0.0174509 0.00202573 0)
(-0.018555 0.00197553 0)
(-0.0196278 0.00191403 0)
(-0.0206631 0.00184168 0)
(-0.021655 0.0017589 0)
(-0.0225979 0.00166611 0)
(-0.0234865 0.00156372 0)
(-0.0243155 0.00145216 0)
(-0.02508 0.00133187 0)
(-0.0257755 0.0012033 0)
(-0.0263974 0.00106697 0)
(-0.0269418 0.000923404 0)
(-0.0274049 0.000773201 0)
(-0.0277833 0.000617006 0)
(-0.028074 0.000455528 0)
(-0.0282745 0.000289542 0)
(-0.0283826 0.000119894 0)
(-0.0283967 -5.2502e-05 0)
(-0.0283157 -0.00022666 0)
(-0.028139 -0.000401523 0)
(-0.0278667 -0.000575972 0)
(-0.0274993 -0.000748823 0)
(-0.0270383 -0.000918841 0)
(-0.0264856 -0.00108474 0)
(-0.025844 -0.00124521 0)
(-0.0251167 -0.00139891 0)
(-0.0243079 -0.00154447 0)
(-0.0234225 -0.00168055 0)
(-0.022466 -0.00180583 0)
(-0.0214446 -0.00191899 0)
(-0.0203651 -0.00201879 0)
(-0.0192353 -0.00210406 0)
(-0.018063 -0.00217369 0)
(-0.0168571 -0.0022267 0)
(-0.0156267 -0.00226222 0)
(-0.0143813 -0.00227951 0)
(-0.0131308 -0.00227798 0)
(-0.0118853 -0.00225721 0)
(-0.0106552 -0.00221698 0)
(-0.00945078 -0.00215724 0)
(-0.00828225 -0.00207815 0)
(-0.00715974 -0.00198012 0)
(-0.00609299 -0.0018638 0)
(-0.0050913 -0.00173008 0)
(-0.00416336 -0.00158021 0)
(-0.00331705 -0.00141573 0)
(-0.00255923 -0.00123864 0)
(-0.00189556 -0.00105143 0)
(-0.00133014 -0.000857249 0)
(-0.000865253 -0.000660088 0)
(-0.000500881 -0.000465089 0)
(-0.000234248 -0.000278944 0)
(-5.91994e-05 -0.000110465 0)
(3.43562e-05 2.86882e-05 0)
(6.12036e-05 0.000123214 0)
(4.36182e-05 0.000153344 0)
(1.35571e-05 9.28317e-05 0)
(2.50856e-06 -8.09415e-05 0)
(-2.31199e-05 -5.42793e-05 0)
(-0.000120704 9.59001e-05 0)
(-0.000309163 0.000324551 0)
(-0.000602554 0.000600405 0)
(-0.00100971 0.000900397 0)
(-0.00153442 0.00120775 0)
(-0.00217652 0.00151056 0)
(-0.00293272 0.00180051 0)
(-0.0037974 0.00207193 0)
(-0.00476321 0.00232107 0)
(-0.00582152 0.00254561 0)
(-0.00696289 0.00274422 0)
(-0.00817735 0.00291634 0)
(-0.00945465 0.00306191 0)
(-0.0107845 0.00318124 0)
(-0.0121565 0.00327491 0)
(-0.0135606 0.00334364 0)
(-0.0149868 0.00338825 0)
(-0.0164254 0.00340961 0)
(-0.0178671 0.00340861 0)
(-0.0193028 0.00338612 0)
(-0.0207237 0.00334298 0)
(-0.0221213 0.00328001 0)
(-0.0234874 0.00319799 0)
(-0.0248143 0.00309766 0)
(-0.0260943 0.00297973 0)
(-0.0273202 0.0028449 0)
(-0.028485 0.00269386 0)
(-0.0295821 0.00252729 0)
(-0.0306051 0.0023459 0)
(-0.031548 0.00215043 0)
(-0.032405 0.00194165 0)
(-0.0331709 0.00172038 0)
(-0.0338406 0.00148753 0)
(-0.0344096 0.00124408 0)
(-0.0348739 0.000991094 0)
(-0.0352298 0.000729731 0)
(-0.0354742 0.00046126 0)
(-0.0356045 0.000187054 0)
(-0.035619 -9.14009e-05 0)
(-0.0355162 -0.000372513 0)
(-0.0352956 -0.000654581 0)
(-0.0349572 -0.000935805 0)
(-0.0345021 -0.00121429 0)
(-0.0339319 -0.00148806 0)
(-0.0332491 -0.00175507 0)
(-0.0324569 -0.00201323 0)
(-0.0315598 -0.00226039 0)
(-0.0305626 -0.00249441 0)
(-0.0294713 -0.00271316 0)
(-0.0282927 -0.00291452 0)
(-0.0270344 -0.00309644 0)
(-0.0257049 -0.00325696 0)
(-0.0243131 -0.00339422 0)
(-0.0228691 -0.0035065 0)
(-0.0213832 -0.00359226 0)
(-0.0198667 -0.00365011 0)
(-0.018331 -0.00367894 0)
(-0.0167881 -0.00367783 0)
(-0.0152502 -0.00364615 0)
(-0.0137297 -0.00358358 0)
(-0.012239 -0.00349008 0)
(-0.0107904 -0.00336598 0)
(-0.00939612 -0.00321197 0)
(-0.00806769 -0.00302914 0)
(-0.00681624 -0.00281902 0)
(-0.00565209 -0.00258362 0)
(-0.00458454 -0.00232554 0)
(-0.0036217 -0.002048 0)
(-0.0027702 -0.00175504 0)
(-0.00203484 -0.00145164 0)
(-0.00141832 -0.00114404 0)
(-0.000920763 -0.000840063 0)
(-0.000539316 -0.000549612 0)
(-0.000267601 -0.000285308 0)
(-9.52208e-05 -6.33122e-05 0)
(-7.12421e-06 9.58259e-05 0)
(1.8056e-05 0.000166121 0)
(9.03098e-06 0.00011264 0)
(-4.71812e-06 -6.17448e-05 0)
(-6.41799e-05 3.42576e-05 0)
(-0.000228754 0.000276806 0)
(-0.000508488 0.000614039 0)
(-0.000913115 0.00100896 0)
(-0.00144966 0.00143353 0)
(-0.00212055 0.00186676 0)
(-0.00292447 0.00229332 0)
(-0.0038572 0.00270218 0)
(-0.00491219 0.00308557 0)
(-0.00608112 0.00343821 0)
(-0.00735434 0.00375664 0)
(-0.00872126 0.00403882 0)
(-0.0101707 0.00428372 0)
(-0.011691 0.00449106 0)
(-0.0132706 0.0046611 0)
(-0.0148977 0.00479448 0)
(-0.0165607 0.00489209 0)
(-0.0182481 0.00495498 0)
(-0.0199489 0.00498431 0)
(-0.021652 0.00498125 0)
(-0.023347 0.00494699 0)
(-0.0250237 0.00488272 0)
(-0.0266721 0.00478956 0)
(-0.0282828 0.00466863 0)
(-0.0298465 0.00452099 0)
(-0.0313543 0.00434767 0)
(-0.0327978 0.00414971 0)
(-0.0341688 0.0039281 0)
(-0.0354595 0.00368388 0)
(-0.0366625 0.0034181 0)
(-0.0377706 0.00313184 0)
(-0.0387774 0.00282627 0)
(-0.0396764 0.00250262 0)
(-0.040462 0.00216225 0)
(-0.0411289 0.00180658 0)
(-0.0416724 0.00143721 0)
(-0.0420883 0.00105585 0)
(-0.0423731 0.000664354 0)
(-0.0425238 0.000264736 0)
(-0.0425384 -0.00014084 0)
(-0.0424153 -0.000550053 0)
(-0.042154 -0.000960438 0)
(-0.0417547 -0.00136939 0)
(-0.0412185 -0.00177416 0)
(-0.0405475 -0.00217192 0)
(-0.0397445 -0.00255971 0)
(-0.0388136 -0.00293453 0)
(-0.0377597 -0.0032933 0)
(-0.0365886 -0.00363297 0)
(-0.0353074 -0.00395046 0)
(-0.0339238 -0.00424276 0)
(-0.0324467 -0.00450695 0)
(-0.0308858 -0.00474022 0)
(-0.0292517 -0.00493994 0)
(-0.0275559 -0.00510365 0)
(-0.0258104 -0.00522917 0)
(-0.024028 -0.00531457 0)
(-0.022222 -0.00535824 0)
(-0.0204062 -0.00535892 0)
(-0.0185947 -0.00531576 0)
(-0.0168016 -0.00522831 0)
(-0.0150413 -0.0050966 0)
(-0.0133279 -0.00492114 0)
(-0.0116751 -0.004703 0)
(-0.0100965 -0.00444379 0)
(-0.00860452 -0.00414581 0)
(-0.00721104 -0.00381202 0)
(-0.00592665 -0.00344621 0)
(-0.00476057 -0.00305307 0)
(-0.00372035 -0.00263836 0)
(-0.00281156 -0.00220918 0)
(-0.00203746 -0.00177419 0)
(-0.0013986 -0.00134408 0)
(-0.000892469 -0.000932056 0)
(-0.000513061 -0.000554521 0)
(-0.000250428 -0.000231949 0)
(-9.01463e-05 1.0251e-05 0)
(-1.31798e-05 0.000140563 0)
(3.56739e-06 0.00011712 0)
(-1.20068e-05 -2.05664e-05 0)
(-0.000106896 0.000178282 0)
(-0.000342503 0.000540018 0)
(-0.000719005 0.00100824 0)
(-0.00124092 0.00154156 0)
(-0.00191276 0.00210786 0)
(-0.00273494 0.00268254 0)
(-0.00370455 0.00324717 0)
(-0.00481605 0.00378819 0)
(-0.00606178 0.0042958 0)
(-0.00743236 0.00476315 0)
(-0.00891708 0.00518565 0)
(-0.0105043 0.00556044 0)
(-0.0121816 0.00588598 0)
(-0.0139364 0.00616169 0)
(-0.0157557 0.00638773 0)
(-0.0176266 0.00656477 0)
(-0.0195361 0.00669384 0)
(-0.0214715 0.0067762 0)
(-0.0234203 0.00681328 0)
(-0.0253704 0.00680657 0)
(-0.02731 0.00675759 0)
(-0.0292274 0.00666785 0)
(-0.0311115 0.00653887 0)
(-0.0329517 0.00637209 0)
(-0.0347374 0.00616896 0)
(-0.0364586 0.00593087 0)
(-0.0381058 0.00565921 0)
(-0.0396696 0.00535538 0)
(-0.0411412 0.00502078 0)
(-0.0425123 0.00465687 0)
(-0.0437747 0.00426517 0)
(-0.0449212 0.00384729 0)
(-0.0459445 0.00340494 0)
(-0.0468383 0.00293999 0)
(-0.0475966 0.00245443 0)
(-0.0482141 0.00195043 0)
(-0.0486861 0.00143036 0)
(-0.0490088 0.000896746 0)
(-0.0491789 0.000352346 0)
(-0.049194 -0.000199893 0)
(-0.0490526 -0.000756823 0)
(-0.0487541 -0.0013151 0)
(-0.0482988 -0.0018712 0)
(-0.0476879 -0.00242142 0)
(-0.0469238 -0.00296193 0)
(-0.04601 -0.00348877 0)
(-0.0449508 -0.00399789 0)
(-0.0437519 -0.00448517 0)
(-0.0424198 -0.00494651 0)
(-0.0409625 -0.00537779 0)
(-0.0393886 -0.00577499 0)
(-0.0377082 -0.0061342 0)
(-0.0359322 -0.00645168 0)
(-0.0340723 -0.00672391 0)
(-0.0321415 -0.00694763 0)
(-0.0301531 -0.00711992 0)
(-0.0281216 -0.00723824 0)
(-0.0260618 -0.00730045 0)
(-0.023989 -0.00730493 0)
(-0.021919 -0.00725054 0)
(-0.0198676 -0.00713674 0)
(-0.0178508 -0.00696363 0)
(-0.0158842 -0.00673194 0)
(-0.0139834 -0.00644317 0)
(-0.012163 -0.00609958 0)
(-0.0104374 -0.00570429 0)
(-0.00881943 -0.00526135 0)
(-0.00732105 -0.00477589 0)
(-0.00595255 -0.0042542 0)
(-0.00472244 -0.00370395 0)
(-0.00363715 -0.00313446 0)
(-0.00270069 -0.00255694 0)
(-0.00191432 -0.001985 0)
(-0.00127627 -0.00143511 0)
(-0.00078139 -0.000927324 0)
(-0.000420767 -0.000486103 0)
(-0.000181283 -0.000141176 0)
(-4.71661e-05 7.13169e-05 0)
(-2.20857e-06 0.000104402 0)
(-1.91104e-05 4.28061e-05 0)
(-0.000149734 0.00037956 0)
(-0.00045799 0.000888763 0)
(-0.000933936 0.00151131 0)
(-0.00157644 0.00220269 0)
(-0.00238699 0.00292763 0)
(-0.00336356 0.00365858 0)
(-0.0045012 0.00437447 0)
(-0.0057928 0.00505948 0)
(-0.00722932 0.00570196 0)
(-0.00880018 0.00629358 0)
(-0.0104936 0.00682863 0)
(-0.0122968 0.00730345 0)
(-0.0141963 0.00771595 0)
(-0.0161785 0.00806523 0)
(-0.0182293 0.00835131 0)
(-0.0203345 0.00857487 0)
(-0.0224802 0.00873704 0)
(-0.0246525 0.0088393 0)
(-0.0268378 0.00888333 0)
(-0.0290227 0.00887094 0)
(-0.0311941 0.00880398 0)
(-0.0333395 0.00868434 0)
(-0.0354466 0.0085139 0)
(-0.0375035 0.0082945 0)
(-0.0394987 0.00802796 0)
(-0.041421 0.00771609 0)
(-0.04326 0.0073607 0)
(-0.0450053 0.00696359 0)
(-0.0466473 0.00652661 0)
(-0.0481765 0.00605167 0)
(-0.0495842 0.00554079 0)
(-0.0508622 0.00499606 0)
(-0.0520026 0.00441977 0)
(-0.0529983 0.00381435 0)
(-0.053843 0.00318241 0)
(-0.0545306 0.00252681 0)
(-0.0550561 0.00185062 0)
(-0.0554153 0.00115716 0)
(-0.0556045 0.000449985 0)
(-0.0556214 -0.000267069 0)
(-0.0554641 -0.000989932 0)
(-0.055132 -0.00171429 0)
(-0.0546255 -0.00243559 0)
(-0.0539461 -0.00314908 0)
(-0.0530964 -0.00384983 0)
(-0.0520801 -0.00453275 0)
(-0.0509022 -0.00519266 0)
(-0.0495687 -0.0058243 0)
(-0.0480871 -0.00642238 0)
(-0.0464658 -0.00698166 0)
(-0.0447145 -0.00749702 0)
(-0.0428442 -0.00796344 0)
(-0.0408666 -0.00837616 0)
(-0.038795 -0.0087307 0)
(-0.0366431 -0.00902291 0)
(-0.034426 -0.00924907 0)
(-0.0321591 -0.00940596 0)
(-0.0298587 -0.00949088 0)
(-0.0275418 -0.00950177 0)
(-0.0252253 -0.00943723 0)
(-0.0229268 -0.00929662 0)
(-0.0206635 -0.00908008 0)
(-0.0184528 -0.00878864 0)
(-0.0163114 -0.00842424 0)
(-0.0142557 -0.00798984 0)
(-0.0123011 -0.00748948 0)
(-0.0104619 -0.0069284 0)
(-0.00875115 -0.00631314 0)
(-0.00718034 -0.00565171 0)
(-0.005759 -0.00495378 0)
(-0.00449455 -0.00423094 0)
(-0.00339194 -0.00349701 0)
(-0.00245342 -0.00276848 0)
(-0.00167829 -0.00206498 0)
(-0.00106265 -0.00140997 0)
(-0.000599086 -0.000831527 0)
(-0.000276241 -0.000363089 0)
(-8.21396e-05 -4.45005e-05 0)
(-7.97156e-06 7.37376e-05 0)
(-2.59309e-05 0.000128049 0)
(-0.000191871 0.000638331 0)
(-0.000572844 0.00132414 0)
(-0.00114896 0.00212506 0)
(-0.0019133 0.00299456 0)
(-0.00286405 0.00389508 0)
(-0.00399643 0.00479678 0)
(-0.00530317 0.00567645 0)
(-0.00677525 0.00651636 0)
(-0.0084021 0.00730325 0)
(-0.0101718 0.00802748 0)
(-0.0120713 0.0086823 0)
(-0.0140868 0.00926328 0)
(-0.0162038 0.00976783 0)
(-0.0184075 0.0101947 0)
(-0.0206828 0.0105438 0)
(-0.0230147 0.0108158 0)
(-0.025388 0.0110119 0)
(-0.0277879 0.0111338 0)
(-0.0301997 0.0111835 0)
(-0.0326091 0.011163 0)
(-0.0350019 0.0110745 0)
(-0.0373646 0.0109204 0)
(-0.0396838 0.0107029 0)
(-0.0419466 0.0104242 0)
(-0.0441407 0.0100866 0)
(-0.0462539 0.00969229 0)
(-0.0482748 0.00924357 0)
(-0.0501923 0.00874269 0)
(-0.0519957 0.00819199 0)
(-0.0536749 0.00759388 0)
(-0.0552205 0.00695088 0)
(-0.0566234 0.00626569 0)
(-0.0578752 0.00554118 0)
(-0.0589683 0.00478041 0)
(-0.0598954 0.0039867 0)
(-0.0606505 0.00316364 0)
(-0.0612279 0.00231509 0)
(-0.061623 0.00144521 0)
(-0.0618321 0.000558475 0)
(-0.0618523 -0.000340347 0)
(-0.061682 -0.00124617 0)
(-0.0613203 -0.00215361 0)
(-0.0607677 -0.00305703 0)
(-0.0600258 -0.00395051 0)
(-0.0590974 -0.00482794 0)
(-0.0579866 -0.00568301 0)
(-0.0566986 -0.0065093 0)
(-0.0552401 -0.0073003 0)
(-0.053619 -0.0080495 0)
(-0.0518444 -0.0087504 0)
(-0.0499269 -0.00939667 0)
(-0.047878 -0.00998213 0)
(-0.0457107 -0.0105009 0)
(-0.043439 -0.0109475 0)
(-0.0410779 -0.0113167 0)
(-0.0386433 -0.0116041 0)
(-0.0361522 -0.0118055 0)
(-0.0336221 -0.0119178 0)
(-0.031071 -0.0119384 0)
(-0.0285175 -0.0118656 0)
(-0.0259804 -0.0116986 0)
(-0.0234783 -0.0114377 0)
(-0.02103 -0.0110841 0)
(-0.0186536 -0.0106403 0)
(-0.0163667 -0.01011 0)
(-0.0141862 -0.0094982 0)
(-0.0121276 -0.00881134 0)
(-0.0102052 -0.00805748 0)
(-0.00843161 -0.00724639 0)
(-0.00681757 -0.00638977 0)
(-0.00537161 -0.00550153 0)
(-0.00409985 -0.00459805 0)
(-0.00300575 -0.00369862 0)
(-0.00208995 -0.00282589 0)
(-0.00135015 -0.00200645 0)
(-0.000780701 -0.0012716 0)
(-0.000372334 -0.000657899 0)
(-0.000117083 -0.000208078 0)
(-1.35634e-05 2.50551e-05 0)
(-3.24395e-05 0.000234572 0)
(-0.000232888 0.000953921 0)
(-0.000685691 0.00184587 0)
(-0.0013614 0.00284969 0)
(-0.00224737 0.00391771 0)
(-0.00333837 0.00501088 0)
(-0.00462665 0.00609769 0)
(-0.0061024 0.0071533 0)
(-0.00775453 0.00815845 0)
(-0.00957072 0.00909855 0)
(-0.0115376 0.00996284 0)
(-0.0136407 0.0107437 0)
(-0.0158652 0.011436 0)
(-0.0181955 0.0120367 0)
(-0.0206157 0.0125443 0)
(-0.0231098 0.0129586 0)
(-0.0256617 0.0132801 0)
(-0.0282554 0.0135103 0)
(-0.0308751 0.0136511 0)
(-0.0335052 0.0137045 0)
(-0.0361303 0.0136732 0)
(-0.0387356 0.0135595 0)
(-0.0413065 0.0133662 0)
(-0.0438287 0.013096 0)
(-0.0462885 0.0127514 0)
(-0.0486726 0.0123353 0)
(-0.0509682 0.0118503 0)
(-0.0531628 0.0112991 0)
(-0.0552447 0.0106845 0)
(-0.0572024 0.0100093 0)
(-0.0590251 0.00927654 0)
(-0.0607027 0.00848928 0)
(-0.0622254 0.00765082 0)
(-0.0635844 0.00676467 0)
(-0.0647713 0.00583461 0)
(-0.0657785 0.0048647 0)
(-0.0665994 0.00385933 0)
(-0.0672281 0.00282319 0)
(-0.0676596 0.00176138 0)
(-0.0678898 0.000679315 0)
(-0.0679157 -0.000417195 0)
(-0.0677355 -0.00152199 0)
(-0.0673484 -0.00262855 0)
(-0.0667547 -0.00373005 0)
(-0.0659563 -0.00481934 0)
(-0.0649559 -0.00588904 0)
(-0.063758 -0.00693155 0)
(-0.0623681 -0.00793912 0)
(-0.0607932 -0.00890392 0)
(-0.0590417 -0.00981807 0)
(-0.0571234 -0.0106738 0)
(-0.0550493 -0.0114635 0)
(-0.0528318 -0.0121796 0)
(-0.0504847 -0.0128152 0)
(-0.0480228 -0.0133636 0)
(-0.0454621 -0.0138186 0)
(-0.0428196 -0.0141748 0)
(-0.0401133 -0.0144273 0)
(-0.0373618 -0.0145721 0)
(-0.0345845 -0.0146064 0)
(-0.0318011 -0.0145279 0)
(-0.0290317 -0.0143359 0)
(-0.0262963 -0.0140305 0)
(-0.0236149 -0.0136134 0)
(-0.0210071 -0.0130875 0)
(-0.0184918 -0.0124573 0)
(-0.016087 -0.0117287 0)
(-0.0138097 -0.0109095 0)
(-0.0116754 -0.0100092 0)
(-0.00969814 -0.00903936 0)
(-0.00788977 -0.00801379 0)
(-0.00626018 -0.00694865 0)
(-0.00481682 -0.00586284 0)
(-0.00356457 -0.00477833 0)
(-0.00250566 -0.00372061 0)
(-0.00163959 -0.00271914 0)
(-0.000962708 -0.00180805 0)
(-0.000467974 -0.00102654 0)
(-0.000151448 -0.000419561 0)
(-1.89189e-05 -4.13557e-05 0)
(-3.86407e-05 0.000361671 0)
(-0.000272598 0.00132514 0)
(-0.000795782 0.00245277 0)
(-0.00156967 0.00368423 0)
(-0.00257605 0.00497145 0)
(-0.00380627 0.0062745 0)
(-0.00524951 0.00756079 0)
(-0.0068933 0.00880432 0)
(-0.00872431 0.00998471 0)
(-0.0107283 0.0110863 0)
(-0.0128904 0.0120975 0)
(-0.0151947 0.01301 0)
(-0.017625 0.0138181 0)
(-0.0201648 0.0145183 0)
(-0.0227971 0.015109 0)
(-0.0255048 0.0155898 0)
(-0.0282712 0.0159615 0)
(-0.0310791 0.0162254 0)
(-0.033912 0.0163836 0)
(-0.0367533 0.0164388 0)
(-0.0395871 0.0163935 0)
(-0.0423973 0.0162507 0)
(-0.0451688 0.0160135 0)
(-0.0478864 0.0156849 0)
(-0.0505357 0.0152681 0)
(-0.0531026 0.0147663 0)
(-0.0555735 0.0141825 0)
(-0.0579352 0.0135201 0)
(-0.0601752 0.0127823 0)
(-0.0622815 0.0119725 0)
(-0.0642426 0.0110942 0)
(-0.0660477 0.0101512 0)
(-0.0676865 0.00914742 0)
(-0.0691495 0.00808704 0)
(-0.070428 0.00697459 0)
(-0.071514 0.00581493 0)
(-0.0724002 0.00461328 0)
(-0.0730804 0.00337525 0)
(-0.0735494 0.00210689 0)
(-0.0738027 0.000814651 0)
(-0.0738373 -0.000494575 0)
(-0.0736509 -0.00181348 0)
(-0.0732429 -0.00313436 0)
(-0.0726134 -0.00444911 0)
(-0.0717643 -0.00574931 0)
(-0.0706985 -0.00702621 0)
(-0.0694206 -0.00827086 0)
(-0.0679363 -0.0094741 0)
(-0.066253 -0.0106267 0)
(-0.0643794 -0.0117193 0)
(-0.0623258 -0.0127428 0)
(-0.0601038 -0.0136882 0)
(-0.0577263 -0.0145467 0)
(-0.0552079 -0.01531 0)
(-0.0525641 -0.0159701 0)
(-0.0498119 -0.01652 0)
(-0.0469691 -0.0169529 0)
(-0.0440547 -0.0172634 0)
(-0.0410885 -0.0174467 0)
(-0.0380909 -0.0174992 0)
(-0.0350828 -0.0174185 0)
(-0.0320856 -0.0172035 0)
(-0.0291206 -0.0168545 0)
(-0.0262091 -0.0163734 0)
(-0.0233719 -0.0157636 0)
(-0.0206292 -0.0150302 0)
(-0.0180007 -0.0141803 0)
(-0.0155044 -0.0132229 0)
(-0.0131575 -0.012169 0)
(-0.010975 -0.0110321 0)
(-0.00897054 -0.00982773 0)
(-0.00715526 -0.00857447 0)
(-0.00553818 -0.00729362 0)
(-0.00412579 -0.00600973 0)
(-0.00292206 -0.00475092 0)
(-0.00192846 -0.00354932 0)
(-0.00114348 -0.00244156 0)
(-0.000562331 -0.00146906 0)
(-0.000184986 -0.000678508 0)
(-2.40237e-05 -0.000125036 0)
(-4.45532e-05 0.000508608 0)
(-0.000310945 0.00175052 0)
(-0.000902753 0.00314314 0)
(-0.00177288 0.00462703 0)
(-0.00289778 0.00615424 0)
(-0.00426544 0.00768451 0)
(-0.00586194 0.00918471 0)
(-0.00767208 0.0106281 0)
(-0.00968018 0.0119935 0)
(-0.0118701 0.0132646 0)
(-0.0142251 0.0144292 0)
(-0.0167279 0.0154784 0)
(-0.0193611 0.0164061 0)
(-0.0221068 0.0172088 0)
(-0.0249472 0.0178844 0)
(-0.0278642 0.0184327 0)
(-0.03084 0.0188544 0)
(-0.0338569 0.0191512 0)
(-0.0368973 0.0193253 0)
(-0.039944 0.0193796 0)
(-0.0429801 0.0193172 0)
(-0.0459891 0.0191413 0)
(-0.0489548 0.0188553 0)
(-0.0518616 0.0184629 0)
(-0.0546942 0.0179676 0)
(-0.0574378 0.0173731 0)
(-0.0600782 0.0166829 0)
(-0.0626017 0.0159009 0)
(-0.0649949 0.0150308 0)
(-0.0672454 0.0140767 0)
(-0.069341 0.0130427 0)
(-0.0712703 0.0119332 0)
(-0.0730226 0.0107527 0)
(-0.0745879 0.00950625 0)
(-0.0759568 0.00819908 0)
(-0.077121 0.00683691 0)
(-0.0780729 0.00542582 0)
(-0.0788059 0.00397241 0)
(-0.0793142 0.0024837 0)
(-0.0795934 0.000967243 0)
(-0.07964 -0.000568954 0)
(-0.0794516 -0.00211638 0)
(-0.0790274 -0.00366606 0)
(-0.0783675 -0.00520861 0)
(-0.0774737 -0.00673421 0)
(-0.076349 -0.00823274 0)
(-0.0749979 -0.00969377 0)
(-0.0734265 -0.0111067 0)
(-0.0716423 -0.0124608 0)
(-0.0696543 -0.0137453 0)
(-0.0674731 -0.0149495 0)
(-0.0651108 -0.0160629 0)
(-0.062581 -0.0170755 0)
(-0.0598986 -0.0179775 0)
(-0.05708 -0.0187597 0)
(-0.0541428 -0.0194137 0)
(-0.0511059 -0.019932 0)
(-0.0479891 -0.0203079 0)
(-0.0448132 -0.020536 0)
(-0.0415996 -0.0206121 0)
(-0.0383706 -0.0205332 0)
(-0.0351486 -0.0202982 0)
(-0.0319562 -0.0199072 0)
(-0.0288159 -0.0193623 0)
(-0.02575 -0.0186674 0)
(-0.0227801 -0.0178285 0)
(-0.0199272 -0.0168535 0)
(-0.0172109 -0.0157527 0)
(-0.0146496 -0.0145386 0)
(-0.0122602 -0.0132263 0)
(-0.0100575 -0.0118336 0)
(-0.00805439 -0.010381 0)
(-0.00626159 -0.00889228 0)
(-0.00468733 -0.00739441 0)
(-0.00333748 -0.00591801 0)
(-0.00221558 -0.00449764 0)
(-0.00132229 -0.00317218 0)
(-0.000655083 -0.001985 0)
(-0.000217637 -0.000984198 0)
(-2.88904e-05 -0.000225471 0)
(-5.0201e-05 0.000674655 0)
(-0.000347943 0.00222849 0)
(-0.00100648 0.00391499 0)
(-0.0019706 0.00567595 0)
(-0.0032117 0.00746394 0)
(-0.0047145 0.00923886 0)
(-0.006462 0.0109674 0)
(-0.00843625 0.0126225 0)
(-0.0106192 0.0141827 0)
(-0.0129926 0.0156312 0)
(-0.015538 0.0169554 0)
(-0.0182366 0.018146 0)
(-0.0210696 0.019197 0)
(-0.0240179 0.0201044 0)
(-0.0270627 0.0208664 0)
(-0.0301849 0.0214827 0)
(-0.0333658 0.0219542 0)
(-0.036587 0.0222827 0)
(-0.03983 0.0224708 0)
(-0.0430769 0.0225216 0)
(-0.0463102 0.0224386 0)
(-0.0495126 0.0222254 0)
(-0.0526673 0.021886 0)
(-0.0557579 0.0214243 0)
(-0.0587687 0.0208444 0)
(-0.0616843 0.0201504 0)
(-0.0644897 0.0193465 0)
(-0.0671707 0.0184369 0)
(-0.0697134 0.0174261 0)
(-0.0721047 0.0163186 0)
(-0.0743321 0.0151191 0)
(-0.0763834 0.0138329 0)
(-0.0782477 0.012465 0)
(-0.0799142 0.0110213 0)
(-0.0813735 0.00950779 0)
(-0.0826164 0.00793107 0)
(-0.0836352 0.00629816 0)
(-0.0844228 0.00461659 0)
(-0.0849732 0.00289447 0)
(-0.0852815 0.00114044 0)
(-0.0853441 -0.000636308 0)
(-0.0851583 -0.00242602 0)
(-0.0847231 -0.00421843 0)
(-0.0840385 -0.00600276 0)
(-0.0831061 -0.00776781 0)
(-0.0819289 -0.00950198 0)
(-0.0805114 -0.0111933 0)
(-0.0788599 -0.0128297 0)
(-0.0769818 -0.0143989 0)
(-0.0748866 -0.0158885 0)
(-0.0725849 -0.0172863 0)
(-0.0700894 -0.0185804 0)
(-0.0674139 -0.019759 0)
(-0.064574 -0.020811 0)
(-0.0615866 -0.0217259 0)
(-0.0584701 -0.0224941 0)
(-0.0552441 -0.0231067 0)
(-0.0519293 -0.0235562 0)
(-0.0485474 -0.0238362 0)
(-0.045121 -0.0239418 0)
(-0.0416734 -0.0238696 0)
(-0.0382281 -0.023618 0)
(-0.0348092 -0.0231873 0)
(-0.0314404 -0.0225796 0)
(-0.0281454 -0.0217993 0)
(-0.0249473 -0.020853 0)
(-0.0218685 -0.0197496 0)
(-0.0189302 -0.0185005 0)
(-0.0161524 -0.0171198 0)
(-0.0135536 -0.0156242 0)
(-0.0111502 -0.0140335 0)
(-0.00895706 -0.0123703 0)
(-0.00698649 -0.0106606 0)
(-0.00524869 -0.00893379 0)
(-0.00375153 -0.00722277 0)
(-0.0025007 -0.00556443 0)
(-0.00149906 -0.00399971 0)
(-0.000746256 -0.00257374 0)
(-0.000249461 -0.00133584 0)
(-3.35475e-05 -0.00034217 0)
(-5.56088e-05 0.000859114 0)
(-0.000383646 0.00275743 0)
(-0.00110696 0.00476617 0)
(-0.00216269 0.00682856 0)
(-0.00351742 0.00889806 0)
(-0.0051527 0.010935 0)
(-0.00704856 0.0129064 0)
(-0.00918427 0.0147852 0)
(-0.0115394 0.0165498 0)
(-0.0140936 0.0181834 0)
(-0.0168266 0.0196732 0)
(-0.0197181 0.02101 0)
(-0.0227477 0.0221875 0)
(-0.0258954 0.0232019 0)
(-0.029141 0.0240514 0)
(-0.0324647 0.0247359 0)
(-0.0358469 0.0252565 0)
(-0.0392681 0.0256153 0)
(-0.0427094 0.0258153 0)
(-0.0461522 0.0258599 0)
(-0.0495781 0.0257528 0)
(-0.0529694 0.0254983 0)
(-0.0563086 0.0251007 0)
(-0.0595788 0.0245644 0)
(-0.0627637 0.023894 0)
(-0.0658472 0.0230941 0)
(-0.0688141 0.0221693 0)
(-0.0716493 0.0211246 0)
(-0.0743387 0.0199649 0)
(-0.0768686 0.0186954 0)
(-0.0792258 0.0173215 0)
(-0.081398 0.0158488 0)
(-0.0833736 0.0142836 0)
(-0.0851415 0.0126321 0)
(-0.0866916 0.0109013 0)
(-0.0880147 0.00909871 0)
(-0.0891024 0.00723223 0)
(-0.0899472 0.00531043 0)
(-0.0905429 0.00334248 0)
(-0.0908843 0.00133815 0)
(-0.0909673 -0.000692132 0)
(-0.0907891 -0.00273736 0)
(-0.0903484 -0.00478591 0)
(-0.0896449 -0.00682561 0)
(-0.0886802 -0.00884378 0)
(-0.0874571 -0.0108273 0)
(-0.0859801 -0.0127627 0)
(-0.0842553 -0.0146363 0)
(-0.0822904 -0.0164341 0)
(-0.0800947 -0.0181422 0)
(-0.0776793 -0.0197467 0)
(-0.075057 -0.021234 0)
(-0.072242 -0.0225909 0)