/*--------------------------------*- C++ -*----------------------------------*\
  =========                 |
  \\      /  F ield         | OpenFOAM: The Open Source CFD Toolbox
   \\    /   O peration     | Website:  https://openfoam.org
    \\  /    A nd           | Version:  7
     \\/     M anipulation  |
\*---------------------------------------------------------------------------*/
FoamFile
{
    version     2.0;
    format      ascii;
    class       volScalarField;
    location    "1.4";
    object      p;
}
// * * * * * * * * * * * * * * * * * * * * * * * * * * * * * * * * * * * * * //

dimensions      [0 2 -2 0 0 0 0];

internalField   nonuniform List<scalar> 
6400
(
2.3726e-06
5.03465e-07
-0.000112306
-0.000332413
-0.000633401
-0.000991367
-0.00138517
-0.00179649
-0.00220992
-0.00261283
-0.00299487
-0.00334769
-0.00366462
-0.00394035
-0.00417075
-0.00435265
-0.00448371
-0.00456227
-0.0045872
-0.00455789
-0.00447411
-0.00433597
-0.00414386
-0.00389845
-0.00360062
-0.00325148
-0.00285233
-0.00240468
-0.00191022
-0.00137088
-0.000788766
-0.000166237
0.000494141
0.00118956
0.00191697
0.00267307
0.0034543
0.00425684
0.00507662
0.00590933
0.00675045
0.00759521
0.00843867
0.00927574
0.0101012
0.0109097
0.0116959
0.0124544
0.01318
0.0138674
0.0145117
0.0151081
0.0156522
0.0161399
0.0165675
0.0169319
0.0172306
0.0174616
0.0176236
0.0177162
0.0177395
0.0176947
0.0175837
0.0174092
0.0171752
0.0168862
0.016548
0.0161673
0.0157518
0.0153105
0.0148535
0.014392
0.0139387
0.0135078
0.0131148
0.0127766
0.012511
0.012335
0.0122642
0.0122879
7.36485e-06
4.22383e-06
-9.58768e-05
-0.000282793
-0.000534926
-0.000835168
-0.00116746
-0.00151699
-0.00187071
-0.00221749
-0.00254794
-0.00285428
-0.0031301
-0.00337021
-0.00357049
-0.00372767
-0.00383927
-0.00390345
-0.00391892
-0.00388484
-0.0038008
-0.00366672
-0.00348281
-0.00324957
-0.00296771
-0.00263819
-0.00226216
-0.00184099
-0.00137625
-0.000869714
-0.000323368
0.000260586
0.000879731
0.00153142
0.00221278
0.00292069
0.00365181
0.00440254
0.00516908
0.00594738
0.0067332
0.00752211
0.00830951
0.00909066
0.00986071
0.0106147
0.0113478
0.0120549
0.0127313
0.0133721
0.0139729
0.0145293
0.0150373
0.0154931
0.0158936
0.0162359
0.0165178
0.0167377
0.0168944
0.0169878
0.0170181
0.0169865
0.0168949
0.0167462
0.016544
0.0162927
0.0159977
0.0156654
0.0153031
0.0149188
0.0145219
0.0141225
0.0137318
0.013362
0.0130261
0.0127377
0.0125097
0.0123545
0.0122875
0.0123114
0.000120742
0.000104349
3.82425e-06
-0.000168671
-0.000394984
-0.000661561
-0.000955542
-0.00126466
-0.00157783
-0.00188534
-0.00217882
-0.00245115
-0.0026964
-0.00290967
-0.00308696
-0.00322509
-0.00332158
-0.00337453
-0.00338258
-0.0033448
-0.00326065
-0.00312994
-0.00295277
-0.0027295
-0.00246073
-0.00214728
-0.0017902
-0.00139072
-0.000950299
-0.000470589
4.65543e-05
0.000599063
0.00118466
0.00180084
0.00244489
0.00311386
0.00380459
0.00451369
0.00523756
0.00597237
0.00671413
0.00745866
0.00820164
0.00893861
0.00966501
0.0103762
0.0110676
0.0117346
0.0123726
0.0129772
0.0135442
0.0140696
0.0145495
0.0149808
0.0153602
0.0156854
0.0159543
0.0161655
0.0163179
0.0164116
0.0164468
0.0164248
0.0163475
0.0162177
0.0160387
0.0158149
0.0155514
0.015254
0.0149297
0.0145859
0.0142311
0.0138744
0.0135259
0.0131961
0.0128963
0.0126377
0.012431
0.0122864
0.01222
0.0122413
0.000341794
0.000291777
0.000175407
1.76175e-06
-0.000215986
-0.000466519
-0.000739071
-0.00102339
-0.00131008
-0.00159074
-0.00185803
-0.00210561
-0.00232809
-0.00252099
-0.0026806
-0.00280391
-0.00288854
-0.00293266
-0.00293492
-0.00289435
-0.00281039
-0.00268277
-0.00251151
-0.00229689
-0.00203941
-0.00173979
-0.00139899
-0.00101812
-0.000598529
-0.000141753
0.000350474
0.000876211
0.00143331
0.00201942
0.00263197
0.00326817
0.00392502
0.00459931
0.00528762
0.00598633
0.00669165
0.00739962
0.00810612
0.00880694
0.00949775
0.0101742
0.0108319
0.0114664
0.0120735
0.0126491
0.013189
0.0136896
0.0141472
0.0145588
0.0149216
0.0152331
0.0154915
0.0156955
0.0158444
0.0159378
0.0159764
0.0159613
0.0158944
0.0157783
0.0156163
0.0154125
0.0151717
0.0148995
0.0146021
0.0142865
0.0139605
0.0136324
0.0133111
0.013006
0.0127268
0.0124833
0.0122848
0.0121404
0.0120646
0.0120672
0.000646229
0.000546159
0.000401717
0.000216357
-3.37001e-06
-0.000248131
-0.00050891
-0.000777297
-0.00104547
-0.00130631
-0.00155351
-0.00178153
-0.00198565
-0.00216184
-0.00230674
-0.00241763
-0.00249229
-0.00252902
-0.00252651
-0.00248386
-0.00240046
-0.00227604
-0.00211055
-0.00190421
-0.00165746
-0.00137092
-0.00104545
-0.000682061
-0.000281994
0.000153336
0.000622317
0.00112314
0.00165379
0.00221206
0.00279552
0.00340155
0.0040273
0.00466975
0.00532563
0.00599154
0.00666385
0.0073388
0.0080125
0.00868091
0.00933992
0.00998539
0.0106131
0.011219
0.0117988
0.0123488
0.0128649
0.0133438
0.0137819
0.0141764
0.0145245
0.014824
0.0150732
0.0152708
0.0154162
0.0155091
0.0155501
0.0155404
0.0154817
0.0153765
0.0152279
0.0150399
0.014817
0.0145642
0.0142875
0.0139933
0.0136886
0.0133809
0.0130782
0.0127888
0.0125211
0.0122836
0.0120845
0.0119318
0.0118361
0.0118042
0.0010119
0.000851558
0.000670078
0.000464577
0.000234279
-1.32235e-05
-0.000270401
-0.000530512
-0.00078719
-0.00103454
-0.00126724
-0.0014806
-0.00167054
-0.00183357
-0.00196674
-0.00206763
-0.00213427
-0.00216511
-0.00215897
-0.002115
-0.00203263
-0.00191158
-0.00175179
-0.00155343
-0.00131687
-0.00104266
-0.000731566
-0.000384519
-2.63685e-06
0.000412777
0.000860231
0.00133805
0.00184435
0.00237706
0.00293392
0.00351244
0.00410995
0.00472356
0.00535021
0.00598664
0.00662941
0.00727493
0.00791949
0.00855923
0.00919024
0.00980852
0.0104101
0.0109909
0.0115471
0.0120749
0.0125706
0.0130307
0.0134521
0.0138318
0.0141674
0.0144566
0.0146978
0.0148898
0.015032
0.0151241
0.0151667
0.0151609
0.0151083
0.0150113
0.014873
0.0146968
0.0144871
0.0142487
0.0139869
0.0137076
0.0134174
0.0131228
0.012831
0.0125493
0.0122851
0.0120457
0.0118382
0.0116697
0.0115456
0.0114682
0.00141928
0.00119297
0.000968365
0.000736223
0.000488421
0.000231098
-2.94503e-05
-0.000287966
-0.000539404
-0.00077899
-0.00100237
-0.00120565
-0.00138542
-0.00153874
-0.0016631
-0.00175642
-0.00181702
-0.00184355
-0.00183496
-0.00179051
-0.00170969
-0.00159224
-0.00143811
-0.00124743
-0.00102052
-0.000757889
-0.000460203
-0.000128307
0.000236785
0.000633881
0.00106161
0.00151842
0.00200256
0.00251212
0.00304495
0.00359873
0.00417094
0.00475885
0.00535954
0.00596991
0.0065867
0.00720646
0.00782563
0.00844053
0.00904737
0.00964232
0.0102215
0.0107811
0.0113173
0.0118264
0.0123049
0.0127494
0.0131569
0.0135244
0.0138495
0.0141302
0.0143647
0.014552
0.0146912
0.0147824
0.0148258
0.0148226
0.0147743
0.014683
0.0145518
0.0143838
0.014183
0.013954
0.0137017
0.0134316
0.0131493
0.0128611
0.0125733
0.0122923
0.0120244
0.011776
0.0115535
0.0113629
0.0112041
0.0110744
0.0018513
0.00155638
0.00128481
0.00102135
0.000750814
0.000478152
0.000208654
-5.3729e-05
-0.000305143
-0.000541838
-0.000760356
-0.000957581
-0.00113076
-0.00127749
-0.00139572
-0.00148376
-0.00154019
-0.00156391
-0.00155404
-0.00150996
-0.00143124
-0.00131768
-0.00116922
-0.000985993
-0.000768292
-0.000516558
-0.000231393
8.6447e-05
0.000436045
0.000816317
0.00122601
0.00166369
0.00212776
0.00261641
0.00312767
0.00365934
0.00420904
0.00477419
0.00535203
0.0059396
0.00653376
0.00713123
0.00772858
0.00832223
0.00890855
0.00948381
0.0100443
0.0105862
0.0111058
0.0115996
0.0120641
0.0124959
0.0128921
0.0132498
0.0135666
0.0138404
0.0140696
0.014253
0.0143898
0.0144799
0.0145237
0.014522
0.0144763
0.0143887
0.0142617
0.0140987
0.0139032
0.0136793
0.0134317
0.0131655
0.0128857
0.0125981
0.0123081
0.0120216
0.0117441
0.0114809
0.0112378
0.0110202
0.0108222
0.0106365
0.00229341
0.00192918
0.00160848
0.00131053
0.00101345
0.000721252
0.000438432
0.00016779
-8.78776e-05
-0.000325756
-0.000543215
-0.000737865
-0.000907583
-0.00105051
-0.00116505
-0.00124988
-0.0013039
-0.00132623
-0.0013162
-0.00127332
-0.00119728
-0.0010879
-0.000945187
-0.000769255
-0.000560372
-0.000318937
-4.54878e-05
0.000259301
0.000594606
0.00095945
0.00135269
0.00177303
0.00221897
0.00268885
0.00318084
0.00369287
0.00422272
0.00476792
0.00532585
0.00589368
0.00646841
0.00704688
0.00762576
0.0082016
0.00877085
0.00932989
0.00987504
0.0104026
0.010909
0.0113907
0.0118441
0.0122661
0.0126536
0.0130039
0.0133145
0.0135832
0.0138084
0.0139889
0.0141239
0.0142131
0.0142568
0.0142557
0.0142114
0.0141255
0.0140007
0.0138397
0.0136461
0.0134237
0.0131768
0.0129099
0.0126278
0.0123357
0.0120385
0.0117413
0.0114491
0.0111663
0.0108983
0.0106498
0.0104098
0.0101661
0.0027333
0.00230024
0.00192943
0.00159495
0.00126864
0.00095379
0.000654268
0.000371878
0.000108475
-0.000133965
-0.000353572
-0.000548636
-0.000717631
-0.000859217
-0.000972245
-0.00105576
-0.00110896
-0.00113125
-0.00112213
-0.00108126
-0.00100845
-0.000903585
-0.000766706
-0.000597945
-0.000397546
-0.000165871
9.66018e-05
0.000389273
0.000711411
0.00106214
0.00144043
0.00184509
0.00227476
0.00272792
0.00320284
0.0036976
0.0042101
0.00473803
0.00527886
0.00582989
0.00638824
0.00695085
0.00751449
0.0080758
0.0086313
0.00917745
0.00971061
0.0102272
0.0107235
0.0111961
0.0116415
0.0120565
0.0124379
0.0127831
0.0130894
0.0133548
0.0135775
0.0137562
0.01389
0.0139786
0.0140221
0.0140212
0.0139772
0.0138916
0.0137669
0.0136057
0.0134112
0.013187
0.0129371
0.0126657
0.0123772
0.0120762
0.0117673
0.0114552
0.0111439
0.0108376
0.0105413
0.0102591
0.00997523
0.00967296
0.00316044
0.00265974
0.00223865
0.00186645
0.0015091
0.00116935
0.000850569
0.000553705
0.000279779
3.0012e-05
-0.000194417
-0.000392429
-0.000563056
-0.000705451
-0.000818892
-0.000902784
-0.000956647
-0.000980108
-0.000972889
-0.000934804
-0.000865757
-0.000765736
-0.00063481
-0.000473127
-0.000280922
-5.85202e-05
0.000193656
0.000475077
0.000785099
0.00112294
0.00148769
0.00187827
0.00229344
0.0027318
0.00319174
0.0036715
0.00416907
0.00468227
0.00520869
0.00574574
0.00629063
0.0068404
0.0073919
0.00794184
0.00848681
0.00902328
0.00954767
0.0100564
0.0105458
0.0110123
0.0114526
0.0118633
0.0122413
0.0125837
0.012888
0.0131519
0.0133736
0.0135518
0.0136853
0.0137737
0.0138172
0.0138161
0.0137716
0.0136852
0.013559
0.0133955
0.0131978
0.0129691
0.0127131
0.0124338
0.0121353
0.0118218
0.0114975
0.0111666
0.0108329
0.0104998
0.0101723
0.00985448
0.0095255
0.00916486
0.00356571
0.00299895
0.00252795
0.00211748
0.00172796
0.00136175
0.00102183
0.000708413
0.000421769
0.000162447
-6.90038e-05
-0.000272082
-0.000446343
-0.000591402
-0.000706943
-0.00079272
-0.000848548
-0.0008743
-0.000869896
-0.000835303
-0.000770542
-0.000675678
-0.000550829
-0.000396159
-0.000211893
1.67667e-06
0.000244179
0.000515155
0.000814043
0.00114016
0.0014927
0.0018707
0.00227304
0.00269843
0.0031454
0.00361229
0.00409724
0.00459815
0.00511274
0.00563851
0.00617276
0.0067126
0.00725495
0.00779658
0.00833411
0.00886405
0.0093828
0.00988676
0.0103723
0.0108359
0.0112739
0.0116831
0.0120602
0.0124023
0.0127067
0.0129711
0.0131935
0.0133725
0.0135067
0.0135958
0.0136395
0.0136381
0.0135928
0.0135047
0.0133758
0.0132085
0.0130055
0.01277
0.0125054
0.0122154
0.0119038
0.0115745
0.0112316
0.0108788
0.0105197
0.0101573
0.00979642
0.00944127
0.00906655
0.00864805
0.00394113
0.00331007
0.00278988
0.00234104
0.00191875
0.00152506
0.00116269
0.000831157
0.000530102
0.00025946
1.92072e-05
-0.000190687
-0.000370262
-0.000519565
-0.000638664
-0.000727641
-0.000786597
-0.000815639
-0.000814878
-0.000784434
-0.000724439
-0.000635038
-0.000516393
-0.000368688
-0.000192137
1.2997e-05
0.000246396
0.00050767
0.000796338
0.00111182
0.0014534
0.00182023
0.00221131
0.00262548
0.00306138
0.00351746
0.00399197
0.00448294
0.00498816
0.00550525
0.00603156
0.00656429
0.0071004
0.00763669
0.00816982
0.00869627
0.00921248
0.00971478
0.0101995
0.010663
0.0111017
0.0115122
0.0118911
0.0122354
0.0125422
0.0128092
0.0130342
0.0132154
0.0133517
0.0134422
0.0134868
0.0134854
0.013439
0.0133488
0.0132164
0.013044
0.0128342
0.0125899
0.0123145
0.0120113
0.0116841
0.0113365
0.0109722
0.0105949
0.0102078
0.00981378
0.00941782
0.00902413
0.00860323
0.00812749
0.00427959
0.00358608
0.00301763
0.00253065
0.00207536
0.00165361
0.00126789
0.000917138
0.000600402
0.00031707
6.65961e-05
-0.000151538
-0.000337817
-0.000492695
-0.000616595
-0.000709912
-0.000773014
-0.000806232
-0.00080986
-0.000784163
-0.000729379
-0.000645728
-0.000533415
-0.000392641
-0.000223611
-2.65543e-05
0.000198263
0.000450518
0.000729814
0.00103566
0.00136745
0.00172445
0.00210577
0.00251036
0.00293699
0.00338421
0.00385039
0.00433365
0.00483189
0.00534278
0.00586378
0.00639212
0.0069248
0.00745866
0.00799034
0.00851634
0.00903304
0.00953673
0.0100237
0.0104902
0.0109325
0.0113471
0.0117305
0.0120796
0.0123913
0.012663
0.0128925
0.0130779
0.0132176
0.0133108
0.013357
0.0133562
0.0133089
0.0132163
0.0130798
0.0129014
0.0126836
0.0124291
0.0121411
0.0118228
0.0114777
0.0111094
0.0107215
0.0103174
0.00990024
0.0094728
0.00904022
0.00860693
0.00813954
0.00760708
0.00457466
0.00382055
0.00320491
0.00268025
0.00219205
0.00174197
0.00133236
0.000961627
0.000628288
0.000331229
6.94284e-05
-0.000158082
-0.000352203
-0.00051376
-0.000643511
-0.000742144
-0.000810276
-0.00084845
-0.000857131
-0.000836719
-0.000787553
-0.00070992
-0.000604067
-0.000470205
-0.000308527
-0.000119229
9.74768e-05
0.000341338
0.000612043
0.000909193
0.00123229
0.0015807
0.00195366
0.00235023
0.00276928
0.00320951
0.00366935
0.00414704
0.00464057
0.00514769
0.00566591
0.0061925
0.00672451
0.00725877
0.00779193
0.00832045
0.00884066
0.0093488
0.00984104
0.0103135
0.0107625
0.0111841
0.0115749
0.0119315
0.0122506
0.0125295
0.0127657
0.0129571
0.013102
0.0131993
0.0132482
0.0132487
0.0132011
0.0131062
0.0129654
0.0127805
0.0125539
0.012288
0.0119859
0.0116509
0.0112862
0.0108953
0.0104817
0.0100489
0.0095998
0.00913729
0.00866676
0.00819294
0.0076787
0.00708984
0.00482047
0.00400757
0.00334588
0.00278416
0.00226332
0.00178492
0.00135116
0.000959977
0.000609401
0.000297859
2.38905e-05
-0.000213889
-0.000416762
-0.000585904
-0.000722383
-0.000827158
-0.000901082
-0.000944892
-0.000959214
-0.000944572
-0.000901395
-0.000830034
-0.000730766
-0.00060381
-0.000449345
-0.000267526
-5.85094e-05
0.000177524
0.000440348
0.000729661
0.00104507
0.00138605
0.00175196
0.00214196
0.00255506
0.00299004
0.00344546
0.00391964
0.00441065
0.00491631
0.0054342
0.00596162
0.00649564
0.0070331
0.00757062
0.00810461
0.00863136
0.00914701
0.00964761
0.0101292
0.0105878
0.0110196
0.0114207
0.0117876
0.0121169
0.0124056
0.0126508
0.0128504
0.0130024
0.0131055
0.0131586
0.0131615
0.0131143
0.0130176
0.0128726
0.012681
0.012445
0.0121669
0.0118498
0.0114966
0.0111108
0.0106957
0.0102548
0.00979151
0.00930893
0.00880988
0.00830017
0.00778491
0.00722335
0.00657816
0.00501157
0.00414164
0.00343508
0.00283702
0.002284
0.00177746
0.0013195
0.000907631
0.000539419
0.00021287
-7.38835e-05
-0.000322613
-0.000534957
-0.000712416
-0.000856345
-0.00096796
-0.00104833
-0.00109836
-0.00111885
-0.00111041
-0.00107356
-0.00100871
-0.000916155
-0.000796117
-0.000648753
-0.000474175
-0.00027248
-4.37715e-05
0.000211812
0.000494071
0.000802714
0.00113734
0.00149741
0.00188222
0.00229087
0.00272226
0.00317506
0.00364767
0.00413826
0.00464471
0.00516465
0.00569541
0.00623407
0.00677747
0.0073222
0.00786462
0.00840094
0.00892718
0.0094393
0.00993316
0.0104046
0.0108496
0.0112642
0.0116445
0.0119868
0.012288
0.012545
0.0127552
0.0129166
0.0130273
0.0130864
0.013093
0.0130473
0.0129495
0.0128009
0.0126027
0.0123571
0.0120664
0.0117334
0.0113612
0.010953
0.0105123
0.0100426
0.00954741
0.00902986
0.00849291
0.00794282
0.00738518
0.00677565
0.00607384
0.00514287
0.00421759
0.00346735
0.00283376
0.0022491
0.00171476
0.00123273
0.00080012
0.000414065
7.21782e-05
-0.000227791
-0.000487974
-0.000710344
-0.000896701
-0.00104867
-0.00116771
-0.00125507
-0.00131185
-0.00133895
-0.00133711
-0.00130691
-0.0012488
-0.00116309
-0.00105
-0.000909659
-0.000742129
-0.000547443
-0.000325622
-7.6712e-05
0.000199191
0.000501908
0.000831152
0.0011865
0.00156737
0.00197299
0.00240235
0.00285424
0.00332714
0.00381932
0.00432871
0.00485299
0.00538953
0.00593542
0.00648748
0.00704225
0.00759605
0.00814497
0.00868495
0.00921177
0.00972115
0.0102088
0.0106703
0.0111015
0.0114984
0.0118569
0.0121737
0.0124453
0.0126689
0.012842
0.0129627
0.0130297
0.0130419
0.012999
0.0129014
0.0127498
0.0125455
0.0122905
0.011987
0.0116377
0.0112457
0.0108142
0.0103468
0.00984702
0.00931856
0.00876467
0.0081885
0.00759683
0.00699575
0.00633741
0.00557831
0.00520951
0.00423051
0.00343778
0.0027695
0.00215387
0.00159217
0.00108633
0.000633066
0.000229116
-0.000128284
-0.000441745
-0.000713738
-0.000946548
-0.00114226
-0.00130275
-0.00142969
-0.00152453
-0.00158849
-0.00162262
-0.00162773
-0.00160448
-0.00155333
-0.00147461
-0.00136853
-0.00123517
-0.00107455
-0.000886615
-0.000671314
-0.00042859
-0.00015843
0.000139102
0.000463841
0.000815487
0.00119358
0.00159746
0.00202624
0.00247882
0.00295378
0.00344945
0.00396384
0.00449469
0.00503939
0.00559504
0.00615843
0.00672606
0.00729419
0.00785879
0.00841568
0.00896049
0.00948872
0.00999586
0.0104773
0.0109287
0.0113455
0.0117237
0.0120592
0.0123486
0.0125885
0.0127763
0.0129096
0.0129868
0.0130066
0.0129684
0.0128724
0.012719
0.0125094
0.0122454
0.0119292
0.0115635
0.0111512
0.0106957
0.0102007
0.00966979
0.00910685
0.00851534
0.00789865
0.00726413
0.00661843
0.00591016
0.00509273
0.00520688
0.00417573
0.00334169
0.00263961
0.0019937
0.00140517
0.00087589
0.000402182
-1.95921e-05
-0.000392555
-0.000719658
-0.0010037
-0.00124725
-0.00145267
-0.00162206
-0.0017573
-0.00186001
-0.00193156
-0.00197309
-0.00198549
-0.00196946
-0.0019255
-0.00185394
-0.00175494
-0.00162857
-0.00147476
-0.0012934
-0.00108433
-0.000847389
-0.000582452
-0.000289462
3.15431e-05
0.00038039
0.000756745
0.00116008
0.00158963
0.00204438
0.00252304
0.00302402
0.0035454
0.00408496
0.00464013
0.00520801
0.00578537
0.00636868
0.00695408
0.00753747
0.0081145
0.00868064
0.0092312
0.0097614
0.0102664
0.0107415
0.011182
0.0115833
0.0119412
0.0122517
0.0125113
0.0127169
0.0128658
0.0129559
0.0129857
0.0129544
0.0128617
0.0127081
0.0124944
0.0122222
0.0118938
0.0115117
0.011079
0.0105991
0.0100757
0.00951269
0.00891416
0.00828379
0.00762526
0.00694652
0.00625487
0.0054953
0.00461807
0.00513052
0.00404876
0.00317458
0.0024396
0.00176417
0.00114941
0.000597123
0.00010327
-0.000336161
-0.000724633
-0.00106543
-0.00136165
-0.00161615
-0.00183154
-0.00201014
-0.00215402
-0.00226495
-0.00234444
-0.00239369
-0.0024137
-0.00240518
-0.00236865
-0.00230442
-0.00221265
-0.00209331
-0.00194629
-0.00177138
-0.00156833
-0.00133686
-0.00107673
-0.00078774
-0.000469811
-0.000122974
0.000252571
0.000656423
0.00108795
0.00154626
0.00203016
0.00253816
0.0030684
0.00361873
0.00418661
0.00476914
0.00536308
0.00596483
0.00657048
0.00717578
0.00777626
0.00836717
0.00894362
0.00950056
0.0100329
0.0105356
0.0110035
0.0114318
0.011816
0.0121515
0.0124344
0.0126612
0.012829
0.0129351
0.0129778
0.0129559
0.0128688
0.0127167
0.0125004
0.0122213
0.0118814
0.0114834
0.0110303
0.0105257
0.00997341
0.00937754
0.00874239
0.00807194
0.0073702
0.0066458
0.00590668
0.00509416
0.00415522
0.00497615
0.00384527
0.00293211
0.00216516
0.00146098
0.000820644
0.000245851
-0.00026778
-0.000724622
-0.00112847
-0.00148293
-0.00179138
-0.00205696
-0.00228252
-0.00247058
-0.00262338
-0.00274284
-0.00283057
-0.00288788
-0.00291579
-0.00291507
-0.00288623
-0.00282956
-0.00274516
-0.00263297
-0.00249278
-0.00232429
-0.00212713
-0.00190091
-0.00164527
-0.00135987
-0.00104448
-0.000698986
-0.000323455
8.18568e-05
0.000516454
0.000979565
0.00147012
0.00198672
0.0025276
0.00309066
0.00367341
0.00427295
0.00488602
0.00550899
0.00613784
0.00676822
0.00739548
0.0080147
0.00862073
0.00920826
0.00977189
0.0103062
0.0108057
0.0112653
0.0116797
0.0120443
0.0123546
0.0126066
0.0127969
0.0129225
0.0129814
0.0129718
0.012893
0.0127447
0.0125277
0.0122431
0.0118929
0.0114797
0.0110066
0.0104773
0.0098957
0.00926625
0.00859351
0.00788178
0.00713541
0.00636376
0.00557549
0.00470806
0.00370511
0.00473959
0.00356106
0.00261009
0.00181209
0.00107999
0.000414743
-0.000182005
-0.00071499
-0.00118894
-0.00160797
-0.00197599
-0.00229668
-0.00257341
-0.00280927
-0.00300698
-0.00316894
-0.0032972
-0.00339348
-0.00345915
-0.00349528
-0.00350266
-0.00348178
-0.00343292
-0.00335611
-0.00325123
-0.00311798
-0.00295595
-0.00276466
-0.0025436
-0.00229224
-0.00201013
-0.00169686
-0.00135219
-0.00097602
-0.00056845
-0.000129838
0.000339186
0.000837673
0.00136433
0.00191751
0.00249516
0.00309484
0.00371368
0.0043484
0.00499531
0.00565032
0.00630896
0.00696641
0.00761755
0.00825697
0.0088791
0.00947817
0.0100484
0.0105839
0.0110791
0.0115283
0.0119264
0.0122685
0.0125499
0.0127669
0.0129161
0.0129948
0.0130009
0.0129334
0.0127917
0.0125763
0.0122881
0.0119291
0.0115018
0.0110093
0.0104554
0.00984441
0.00918084
0.00846961
0.00771539
0.00692292
0.00610232
0.00526299
0.00433842
0.00326871
0.0044168
0.00319206
0.00220444
0.00137634
0.000617137
-7.23035e-05
-0.000690422
-0.0012423
-0.001733
-0.00216697
-0.00254842
-0.00288128
-0.00316919
-0.00341545
-0.00362297
-0.0037943
-0.00393161
-0.00403671
-0.00411104
-0.00415571
-0.0041715
-0.00415891
-0.00411814
-0.0040492
-0.00395186
-0.00382574
-0.00367031
-0.00348497
-0.00326906
-0.00302192
-0.00274292
-0.00243152
-0.00208728
-0.00170996
-0.00129948
-0.00085606
-0.000380167
0.000127387
0.000665436
0.00123243
0.00182641
0.00244498
0.00308531
0.00374412
0.00441767
0.0051018
0.0057919
0.00648299
0.00716974
0.0078465
0.00850735
0.00914621
0.00975686
0.0103331
0.0108686
0.0113575
0.011794
0.0121726
0.0124883
0.0127366
0.0129137
0.0130163
0.0130421
0.0129894
0.0128575
0.0126464
0.012357
0.011991
0.0115509
0.01104
0.0104621
0.00982162
0.0091235
0.00837296
0.00757506
0.00673494
0.00586356
0.00497109
0.00398683
0.00284718
0.00400381
0.00273433
0.00171121
0.000853965
6.85023e-05
-0.000644404
-0.00128328
-0.00185355
-0.00236063
-0.00280926
-0.00320394
-0.00354888
-0.00384797
-0.00410469
-0.00432215
-0.00450303
-0.00464963
-0.00476383
-0.00484713
-0.00490067
-0.00492521
-0.00492124
-0.00488891
-0.00482816
-0.00473867
-0.00461995
-0.00447136
-0.00429216
-0.00408153
-0.00383865
-0.00356274
-0.00325308
-0.00290905
-0.00253022
-0.00211636
-0.00166749
-0.00118393
-0.000666337
-0.000115733
0.000466455
0.00107836
0.00171767
0.0023816
0.00306686
0.00376969
0.00448585
0.00521062
0.00593885
0.00666499
0.00738312
0.00808702
0.00877021
0.00942606
0.0100479
0.010629
0.0111627
0.0116428
0.0120632
0.0124183
0.012703
0.0129129
0.0130442
0.013094
0.0130603
0.0129418
0.0127383
0.0124504
0.0120797
0.0116287
0.0111005
0.0104993
0.00982959
0.00909664
0.00830606
0.00746327
0.00657392
0.00564978
0.00470188
0.00365509
0.00244192
0.00349679
0.00218402
0.00112656
0.00024113
-0.000569736
-0.00130536
-0.00196437
-0.00255252
-0.00307556
-0.00353854
-0.00394624
-0.00430315
-0.00461337
-0.00488059
-0.00510809
-0.0052987
-0.00545481
-0.00557838
-0.00567097
-0.00573371
-0.00576737
-0.0057724
-0.00574891
-0.00569674
-0.00561549
-0.00550454
-0.00536311
-0.00519034
-0.00498523
-0.00474682
-0.00447411
-0.00416621
-0.00382233
-0.00344182
-0.00302426
-0.00256949
-0.00207765
-0.00154922
-0.000985062
-0.000386466
0.000244824
0.000906581
0.00159607
0.00231005
0.00304472
0.00379579
0.00455843
0.00532732
0.00609669
0.00686035
0.00761174
0.008344
0.00905006
0.00972272
0.0103547
0.0109389
0.0114683
0.0119362
0.0123364
0.0126631
0.0129112
0.0130765
0.0131553
0.0131451
0.0130443
0.0128521
0.012569
0.0121964
0.0117365
0.0111928
0.0105693
0.00987081
0.00910293
0.00827164
0.00738282
0.00644257
0.00546358
0.00445779
0.00334534
0.00205462
0.00289199
0.00153739
0.000446774
-0.000465884
-0.00130129
-0.00205888
-0.00273738
-0.00334288
-0.00388144
-0.00435844
-0.00477893
-0.00514765
-0.00546894
-0.00574668
-0.00598432
-0.00618481
-0.00635065
-0.00648387
-0.00658606
-0.00665836
-0.00670155
-0.00671601
-0.00670179
-0.00665865
-0.00658609
-0.00648336
-0.00634954
-0.00618361
-0.00598441
-0.00575078
-0.00548155
-0.00517561
-0.00483197
-0.00444978
-0.00402841
-0.00356748
-0.00306693
-0.00252705
-0.00194853
-0.00133249
-0.000680537
5.21462e-06
0.000722112
0.00146694
0.00223593
0.00302472
0.00382839
0.00464147
0.00545796
0.00627139
0.00707487
0.00786113
0.00862263
0.00935165
0.0100403
0.0106809
0.0112657
0.0117873
0.0122388
0.0126137
0.0129061
0.0131112
0.0132246
0.0132431
0.0131647
0.0129883
0.0127138
0.0123424
0.0118764
0.0113191
0.0106746
0.00994805
0.00914532
0.0082728
0.00733681
0.00634397
0.00530795
0.00424158
0.00306005
0.00168736
0.00218579
0.000790828
-0.000331776
-0.00127069
-0.00212977
-0.00290857
-0.0036059
-0.00422819
-0.00478184
-0.00527251
-0.00570553
-0.0060859
-0.00641818
-0.00670644
-0.00695429
-0.0071648
-0.00734058
-0.00748372
-0.00759584
-0.00767809
-0.00773122
-0.00775556
-0.00775111
-0.00771753
-0.00765418
-0.00756021
-0.00743455
-0.00727598
-0.0070832
-0.00685483
-0.0065895
-0.0062859
-0.00594279
-0.00555911
-0.005134
-0.00466685
-0.00415737
-0.00360564
-0.00301214
-0.00237782
-0.00170411
-0.000992995
-0.000247017
0.000530678
0.00133633
0.00216556
0.00301337
0.00387413
0.00474165
0.00560918
0.00646946
0.00731482
0.00813723
0.0089284
0.00967988
0.0103832
0.0110299
0.011612
0.0121215
0.0125513
0.0128947
0.013146
0.0133001
0.0133534
0.0133029
0.013147
0.0128856
0.0125192
0.0120502
0.0114817
0.010818
0.0100644
0.00922713
0.00831299
0.00732877
0.00628163
0.00518626
0.00405648
0.00280215
0.00134264
0.00137465
-5.918e-05
-0.00121259
-0.00217679
-0.00305868
-0.00385791
-0.00457342
-0.00521195
-0.00578023
-0.0062842
-0.00672949
-0.00712132
-0.00746448
-0.00776324
-0.00802135
-0.00824202
-0.00842794
-0.00858127
-0.00870364
-0.00879623
-0.00885974
-0.00889447
-0.00890032
-0.00887686
-0.00882334
-0.00873876
-0.00862189
-0.00847135
-0.00828562
-0.00806313
-0.00780229
-0.00750155
-0.00715945
-0.00677467
-0.00634609
-0.00587287
-0.00535446
-0.00479071
-0.00418185
-0.00352863
-0.00283229
-0.00209464
-0.00131809
-0.0005057
0.000338825
0.0012111
0.00210607
0.00301798
0.00394043
0.00486641
0.00578831
0.00669803
0.00758703
0.00844643
0.00926713
0.0100399
0.0107556
0.0114053
0.0119802
0.0124723
0.0128739
0.0131786
0.0133804
0.0134748
0.0134584
0.0133289
0.0130854
0.0127286
0.0122602
0.0116834
0.0110026
0.0102234
0.00935209
0.0083961
0.00736267
0.00625951
0.00510239
0.0039062
0.0025751
0.0010235
0.000455197
-0.00101602
-0.00219906
-0.00318758
-0.0040914
-0.0049103
-0.00564332
-0.00629753
-0.00687997
-0.00739687
-0.00785412
-0.0082572
-0.00861112
-0.00892033
-0.00918874
-0.00941968
-0.00961593
-0.00977969
-0.00991265
-0.010016
-0.0100903
-0.0101359
-0.0101527
-0.01014
-0.010097
-0.0100225
-0.00991515
-0.00977338
-0.00959548
-0.00937964
-0.00912403
-0.00882687
-0.00848643
-0.00810113
-0.00766959
-0.00719068
-0.00666357
-0.00608785
-0.0054635
-0.004791
-0.00407138
-0.00330625
-0.00249786
-0.00164913
-0.000763695
0.000154084
0.00109911
0.00206554
0.00304681
0.00403561
0.00502402
0.00600348
0.00696493
0.0078989
0.00879558
0.00964501
0.0104372
0.0111621
0.0118103
0.0123726
0.0128405
0.0132064
0.0134636
0.0136066
0.013631
0.0135342
0.0133145
0.0129722
0.0125087
0.0119272
0.011232
0.0104288
0.00952435
0.0085265
0.00744299
0.00628212
0.00506081
0.00379504
0.00238292
0.00073359
-0.000575845
-0.00208296
-0.00329444
-0.00430632
-0.00523122
-0.00606903
-0.0068189
-0.00748821
-0.00808432
-0.00861375
-0.00908265
-0.00949675
-0.00986128
-0.0101809
-0.0104596
-0.0107009
-0.0109076
-0.011082
-0.0112259
-0.0113403
-0.011426
-0.011483
-0.0115112
-0.01151
-0.0114782
-0.0114146
-0.0113176
-0.0111855
-0.0110163
-0.010808
-0.0105586
-0.0102659
-0.00992794
-0.00954292
-0.00910912
-0.00862512
-0.0080898
-0.00750242
-0.00686268
-0.00617078
-0.0054275
-0.0046342
-0.00379292
-0.00290645
-0.00197828
-0.00101272
-1.4865e-05
0.00100936
0.00205322
0.0031092
0.00416903
0.00522371
0.00626366
0.00727876
0.00825849
0.00919205
0.0100685
0.0108771
0.0116071
0.0122482
0.0127911
0.0132268
0.0135478
0.0137474
0.0138206
0.0137635
0.0135742
0.0132522
0.0127986
0.0122164
0.0115099
0.0106849
0.00974861
0.00870914
0.00757483
0.0063546
0.00506659
0.00372795
0.0022303
0.000477197
-0.0017216
-0.00326312
-0.00450189
-0.00553619
-0.00648131
-0.00733727
-0.00810332
-0.00878716
-0.00939644
-0.00993798
-0.0104182
-0.010843
-0.011218
-0.0115478
-0.0118368
-0.0120884
-0.0123058
-0.0124911
-0.0126461
-0.012772
-0.0128694
-0.0129384
-0.0129788
-0.0129896
-0.0129698
-0.0129179
-0.0128322
-0.0127107
-0.0125513
-0.0123516
-0.0121093
-0.0118222
-0.0114878
-0.0111041
-0.0106689
-0.0101807
-0.00963787
-0.0090394
-0.00838465
-0.00767352
-0.00690646
-0.00608458
-0.00520966
-0.00428428
-0.00331178
-0.00229638
-0.00124313
-0.000158004
0.000952155
0.0020796
0.00321575
0.00435118
0.00547578
0.00657879
0.00764891
0.0086745
0.0096437
0.0105446
0.0113654
0.0120948
0.012722
0.013237
0.013631
0.0138963
0.0140267
0.0140175
0.013866
0.0135708
0.0131329
0.0125548
0.0118407
0.0109967
0.0100301
0.00894956
0.00776394
0.00648279
0.00512556
0.00371064
0.00212272
0.00025939
-0.00298503
-0.00455951
-0.00582444
-0.00688022
-0.00784473
-0.0087181
-0.00949967
-0.0101974
-0.0108194
-0.0113726
-0.0118637
-0.012299
-0.0126841
-0.013024
-0.0133231
-0.0135851
-0.0138131
-0.0140094
-0.0141758
-0.0143135
-0.0144231
-0.0145046
-0.0145576
-0.0145813
-0.0145743
-0.0145351
-0.0144616
-0.0143517
-0.0142031
-0.0140132
-0.0137793
-0.0134989
-0.0131693
-0.0127881
-0.0123528
-0.0118614
-0.011312
-0.0107033
-0.0100342
-0.00930431
-0.00851367
-0.00766308
-0.00675406
-0.0057889
-0.00477077
-0.00370372
-0.00259273
-0.00144377
-0.00026378
0.000939319
0.00215664
0.00337837
0.00459386
0.00579169
0.0069598
0.00808564
0.00915631
0.0101588
0.0110802
0.0119078
0.0126295
0.013234
0.0137112
0.0140521
0.0142492
0.014297
0.0141914
0.0139307
0.013515
0.0129465
0.0122293
0.0113695
0.0103747
0.00925401
0.00801679
0.00667329
0.00524434
0.00374962
0.00206646
8.60824e-05
-0.00436895
-0.00597499
-0.00726497
-0.00834135
-0.00932445
-0.0102145
-0.0110109
-0.011722
-0.0123561
-0.0129204
-0.013422
-0.0138674
-0.0142623
-0.014612