/*--------------------------------*- C++ -*----------------------------------*\
  =========                 |
  \\      /  F ield         | OpenFOAM: The Open Source CFD Toolbox
   \\    /   O peration     | Website:  https://openfoam.org
    \\  /    A nd           | Version:  7
     \\/     M anipulation  |
\*---------------------------------------------------------------------------*/
FoamFile
{
    version     2.0;
    format      ascii;
    class       volScalarField;
    location    "2.9";
    object      p;
}
// * * * * * * * * * * * * * * * * * * * * * * * * * * * * * * * * * * * * * //

dimensions      [0 2 -2 0 0 0 0];

internalField   nonuniform List<scalar> 
6400
(
1.1599e-06
5.38369e-06
-2.6562e-05
-9.38931e-05
-0.000189007
-0.000304872
-0.000435259
-0.000574962
-0.000719951
-0.000867173
-0.00101443
-0.00116015
-0.00130322
-0.00144283
-0.00157834
-0.00170919
-0.00183478
-0.00195445
-0.00206746
-0.0021729
-0.00226975
-0.00235683
-0.00243287
-0.00249653
-0.0025464
-0.00258103
-0.00259902
-0.00259903
-0.00257982
-0.00254032
-0.00247967
-0.00239724
-0.00229275
-0.00216621
-0.00201807
-0.00184917
-0.00166081
-0.00145474
-0.00123322
-0.000998943
-0.000755079
-0.00050521
-0.000253289
-3.58093e-06
0.000239421
0.000471086
0.000686747
0.000881815
0.00105189
0.0011929
0.00130119
0.00137368
0.00140791
0.00140218
0.00135555
0.00126797
0.00114023
0.000973966
0.000771666
0.000536575
0.000272632
-1.56268e-05
-0.000323178
-0.000644622
-0.00097431
-0.00130646
-0.00163525
-0.00195494
-0.00225992
-0.00254482
-0.00280452
-0.00303422
-0.00322958
-0.00338673
-0.00350262
-0.00357542
-0.0036055
-0.00359709
-0.00356022
-0.00351309
-1.85314e-06
1.72731e-06
-2.76537e-05
-8.64239e-05
-0.000168073
-0.000267669
-0.000380786
-0.00050318
-0.000631571
-0.000763283
-0.000896266
-0.00102897
-0.00116022
-0.00128912
-0.00141492
-0.00153696
-0.00165457
-0.00176706
-0.00187365
-0.00197348
-0.00206557
-0.00214882
-0.00222208
-0.00228411
-0.00233363
-0.00236934
-0.00238998
-0.00239433
-0.00238128
-0.00234986
-0.0022993
-0.00222903
-0.00213878
-0.0020286
-0.00189887
-0.00175035
-0.00158424
-0.00140212
-0.00120604
-0.000998462
-0.000782263
-0.000560704
-0.000337385
-0.000116182
9.88108e-05
0.00030338
0.000493283
0.000664351
0.000812594
0.000934316
0.00102623
0.00108554
0.00111006
0.00109829
0.00104942
0.000963464
0.000841192
0.00068417
0.000494714
0.000275839
3.11855e-05
-0.000235068
-0.000518311
-0.000813606
-0.0011158
-0.00141963
-0.00171983
-0.00201124
-0.00228886
-0.00254792
-0.002784
-0.00299303
-0.00317144
-0.00331626
-0.00342534
-0.00349767
-0.00353416
-0.00353818
-0.00351325
-0.00346602
3.08076e-05
3.08368e-05
7.40631e-07
-5.47025e-05
-0.000129591
-0.000220031
-0.000322456
-0.000433533
-0.000550481
-0.000671032
-0.000793393
-0.000916158
-0.00103822
-0.0011587
-0.00127686
-0.00139203
-0.00150354
-0.0016107
-0.00171273
-0.0018088
-0.00189798
-0.00197924
-0.00205149
-0.00211356
-0.00216426
-0.00220237
-0.0022267
-0.00223611
-0.00222956
-0.0022061
-0.00216499
-0.00210568
-0.00202789
-0.00193161
-0.00181715
-0.0016852
-0.00153682
-0.00137345
-0.00119698
-0.00100966
-0.000814158
-0.000613507
-0.000411057
-0.000210427
-1.54408e-05
0.000169951
0.000341767
0.000496092
0.000629182
0.000737566
0.000818153
0.000868334
0.000886066
0.000869944
0.000819259
0.000734036
0.000615051
0.000463822
0.000282572
7.41824e-05
-0.000157881
-0.000409656
-0.000676784
-0.000954615
-0.00123832
-0.00152299
-0.00180375
-0.00207584
-0.0023347
-0.00257604
-0.00279592
-0.00299079
-0.00315758
-0.00329383
-0.00339774
-0.00346842
-0.00350651
-0.00351396
-0.00348862
-0.00342887
0.000100299
8.99804e-05
5.45174e-05
-2.07704e-06
-7.51309e-05
-0.000161326
-0.000257684
-0.000361523
-0.00047057
-0.00058297
-0.000697237
-0.000812196
-0.00092691
-0.00104061
-0.00115262
-0.00126234
-0.00136914
-0.00147236
-0.00157128
-0.00166509
-0.00175289
-0.00183371
-0.0019065
-0.00197014
-0.00202348
-0.00206535
-0.00209459
-0.00211008
-0.00211078
-0.00209576
-0.00206424
-0.00201564
-0.00194962
-0.0018661
-0.0017653
-0.0016478
-0.00151451
-0.00136676
-0.00120627
-0.00103514
-0.000855831
-0.000671241
-0.000484538
-0.000299167
-0.000118786
5.28168e-05
0.000211807
0.000354407
0.000476995
0.000576213
0.000649066
0.000693022
0.000706099
0.000686939
0.000634864
0.00054991
0.000432844
0.000285158
0.000109031
-9.27234e-05
-0.00031673
-0.000559143
-0.000815747
-0.00108206
-0.00135346
-0.00162527
-0.00189288
-0.00215181
-0.00239784
-0.00262703
-0.00283577
-0.00302091
-0.00317971
-0.00330994
-0.00340992
-0.00347856
-0.00351594
-0.00352274
-0.00349276
-0.00341939
0.000200365
0.000173312
0.000128254
6.71411e-05
-7.25815e-06
-9.21534e-05
-0.000185108
-0.000284041
-0.000387208
-0.000493183
-0.000600828
-0.000709245
-0.000817718
-0.000925646
-0.00103249
-0.00113772
-0.00124081
-0.00134114
-0.00143805
-0.00153078
-0.00161847
-0.00170018
-0.00177489
-0.00184153
-0.00189895
-0.001946
-0.00198152
-0.00200438
-0.00201352
-0.00200797
-0.00198689
-0.00194963
-0.00189576
-0.00182509
-0.00173774
-0.00163414
-0.00151508
-0.00138173
-0.00123565
-0.0010788
-0.000913553
-0.000742588
-0.000568956
-0.000395989
-0.000227235
-6.63865e-05
8.28057e-05
0.000216628
0.000331511
0.000424135
0.000491532
0.000531186
0.000541123
0.000519983
0.000467083
0.00038245
0.000266837
0.000121714
-5.07671e-05
-0.000247827
-0.000466138
-0.000701915
-0.000951025
-0.00120909
-0.00147162
-0.00173409
-0.00199208
-0.00224136
-0.00247794
-0.00269815
-0.0028987
-0.0030767
-0.00322966
-0.00335554
-0.00345267
-0.00351976
-0.00355642
-0.00356243
-0.00352917
-0.00344734
0.000324401
0.000276214
0.000218054
0.000149565
7.1138e-05
-1.49671e-05
-0.00010682
-0.00020293
-0.000302078
-0.000403286
-0.000505797
-0.000609026
-0.000712509
-0.000815852
-0.00091868
-0.0010206
-0.00112116
-0.00121986
-0.00131607
-0.00140909
-0.0014981
-0.0015822
-0.00166039
-0.00173159
-0.00179467
-0.00184845
-0.00189176
-0.00192341
-0.00194229
-0.00194734
-0.00193766
-0.00191248
-0.00187124
-0.00181365
-0.00173965
-0.00164955
-0.00154398
-0.00142397
-0.00129093
-0.00114669
-0.000993466
-0.00083385
-0.000670792
-0.000507541
-0.000347588
-0.000194583
-5.22569e-05
7.5681e-05
0.000185648
0.000274298
0.000338628
0.00037608
0.000384634
0.000362883
0.000310102
0.000226279
0.000112139
-3.08738e-05
-0.000200626
-0.000394354
-0.000608747
-0.000840042
-0.00108413
-0.0013367
-0.0015933
-0.00184953
-0.00210108
-0.00234389
-0.00257412
-0.00278835
-0.00298349
-0.00315686
-0.00330618
-0.00342953
-0.00352525
-0.00359193
-0.00362886
-0.00363524
-0.00360136
-0.00351691
0.000466182
0.000393605
0.000319731
0.000241564
0.000156891
6.74562e-05
-2.52891e-05
-0.000120433
-0.000217286
-0.00031533
-0.000414209
-0.000513673
-0.000613539
-0.000713643
-0.000813802
-0.000913772
-0.00101323
-0.00111174
-0.00120878
-0.00130368
-0.00139567
-0.00148386
-0.00156726
-0.00164479
-0.00171529
-0.00177754
-0.0018303
-0.00187233
-0.00190241
-0.00191938
-0.00192222
-0.00191002
-0.00188207
-0.00183792
-0.00177737
-0.00170053
-0.00160791
-0.00150036
-0.00137915
-0.00124599
-0.00110297
-0.000952603
-0.000797773
-0.000641683
-0.000487807
-0.000339806
-0.00020144
-7.64714e-05
3.14479e-05
0.000118885
0.000182744
0.000220365
0.000229629
0.000209037
0.000157776
7.57653e-05
-3.63275e-05
-0.000177096
-0.000344431
-0.000535577
-0.000747222
-0.000975595
-0.00121659
-0.00146587
-0.00171904
-0.0019717
-0.00221962
-0.00245882
-0.00268559
-0.00289664
-0.00308905
-0.0032603
-0.00340824
-0.00353106
-0.00362713
-0.00369497
-0.00373369
-0.00374221
-0.00371066
-0.0036288
0.000619486
0.000520271
0.000428769
0.000339165
0.000246518
0.000152075
5.68177e-05
-3.89253e-05
-0.000134996
-0.000231347
-0.000328033
-0.000425156
-0.000522833
-0.000621146
-0.000720116
-0.000819663
-0.000919593
-0.00101958
-0.00111916
-0.00121774
-0.00131456
-0.00140875
-0.00149932
-0.00158514
-0.00166503
-0.0017377
-0.00180182
-0.00185603
-0.00189901
-0.00192946
-0.00194619
-0.00194814
-0.00193442
-0.00190438
-0.00185765
-0.00179418
-0.00171427
-0.00161862
-0.00150838
-0.0013851
-0.00125079
-0.00110789
-0.000959227
-0.000807996
-0.000657687
-0.000512008
-0.000374797
-0.000249913
-0.00014113
-5.20206e-05
1.41671e-05
5.46199e-05
6.70639e-05
4.9854e-05
2.04561e-06
-7.65561e-05
-0.000185375
-0.00032307
-0.000487572
-0.000676142
-0.000885463
-0.00111174
-0.00135084
-0.0015984
-0.00184998
-0.00210118
-0.00234778
-0.0025858
-0.00281163
-0.00302203
-0.00321418
-0.00338568
-0.00353448
-0.00365884
-0.00375719
-0.00382805
-0.00387044
-0.00388316
-0.00385682
-0.0037819
0.000778377
0.000651017
0.000540517
0.000438178
0.000336257
0.00023551
0.000136445
3.87952e-05
-5.78236e-05
-0.000153838
-0.000249717
-0.00034593
-0.0004429
-0.000540967
-0.000640358
-0.000741168
-0.000843337
-0.000946644
-0.0010507
-0.00115496
-0.00125869
-0.00136102
-0.00146094
-0.00155728
-0.00164878
-0.00173407
-0.0018117
-0.00188019
-0.00193804
-0.00198381
-0.00201611
-0.00203369
-0.00203544
-0.00202053
-0.00198836
-0.00193869
-0.00187162
-0.0017877
-0.00168791
-0.00157367
-0.0014469
-0.00130997
-0.00116569
-0.00101724
-0.000868154
-0.000722226
-0.0005834
-0.000455678
-0.000343001
-0.00024913
-0.000177519
-0.000131192
-0.000112636
-0.000123699
-0.000165513
-0.000238438
-0.000342038
-0.000475076
-0.000635554
-0.000820773
-0.00102742
-0.00125168
-0.00148937
-0.00173608
-0.0019873
-0.00223858
-0.00248566
-0.00272454
-0.00295158
-0.00316359
-0.00335777
-0.00353179
-0.00368364
-0.00381166
-0.00391433
-0.00399021
-0.00403828
-0.00405733
-0.00403884
-0.00397439
0.000937163
0.000780646
0.000650214
0.000534234
0.000422098
0.000314066
0.00021016
0.000109504
1.11579e-05
-8.57837e-05
-0.000182213
-0.000278964
-0.00037677
-0.000476233
-0.000577793
-0.000681714
-0.000788072
-0.000896751
-0.00100743
-0.00111961
-0.00123258
-0.00134545
-0.00145716
-0.00156651
-0.00167213
-0.00177252
-0.00186612
-0.00195127
-0.00202631
-0.00208957
-0.00213946
-0.0021745
-0.00219336
-0.00219496
-0.00217848
-0.00214344
-0.00208975
-0.00201775
-0.00192827
-0.00182259
-0.00170253
-0.00157039
-0.00142893
-0.00128138
-0.00113132
-0.000982636
-0.00083941
-0.000705824
-0.00058603
-0.000484025
-0.00040352
-0.000347814
-0.000319665
-0.000321191
-0.000353776
-0.000418012
-0.000513658
-0.00063964
-0.000794075
-0.000974338
-0.00117715
-0.00139868
-0.00163471
-0.00188075
-0.00213223
-0.00238459
-0.00263348
-0.00287482
-0.00310492
-0.00332053
-0.00351885
-0.00369754
-0.00385461
-0.00398843
-0.00409751
-0.00418046
-0.00423626
-0.00426371
-0.00425539
-0.00420418
0.00109027
0.000903962
0.00075301
0.000622807
0.000499812
0.000383771
0.000274204
0.000169607
6.84753e-05
-3.05883e-05
-0.000128902
-0.000227664
-0.000327918
-0.000430523
-0.00053613
-0.000645174
-0.000757861
-0.000874172
-0.000993858
-0.00111644
-0.00124122
-0.00136729
-0.00149354
-0.00161867
-0.00174121
-0.00185953
-0.00197189
-0.00207645
-0.00217133
-0.00225465
-0.00232456
-0.00237931
-0.00241734
-0.00243727
-0.00243803
-0.00241891
-0.00237957
-0.00232015
-0.00224126
-0.00214406
-0.00203023
-0.001902
-0.00176211
-0.00161378
-0.00146066
-0.00130675
-0.0011563
-0.00101368
-0.000883308
-0.000769456
-0.000676151
-0.000607024
-0.00056518
-0.000553077
-0.00057243
-0.000624136
-0.000708227
-0.00082386
-0.000969331
-0.00114214
-0.00133908
-0.00155635
-0.00178968
-0.00203454
-0.00228623
-0.00254009
-0.00279162
-0.00303661
-0.00327128
-0.00349224
-0.00369663
-0.00388202
-0.00404642
-0.00418815
-0.00430575
-0.00439784
-0.00446339
-0.0045012
-0.00450508
-0.00446933
0.00123217
0.00101575
0.000843978
0.000699226
0.000564969
0.000440404
0.000324524
0.000215183
0.000110294
7.96079e-06
-9.35643e-05
-0.000195844
-0.000300227
-0.000407825
-0.000519496
-0.000635836
-0.00075718
-0.000883596
-0.00101489
-0.00115061
-0.00129006
-0.00143229
-0.00157611
-0.00172013
-0.00186273
-0.00200214
-0.00213643
-0.00226354
-0.00238135
-0.00248771
-0.00258051
-0.0026577
-0.00271743
-0.00275802
-0.00277811
-0.0027767
-0.00275319
-0.00270747
-0.00263995
-0.0025516
-0.00244393
-0.00231909
-0.00217977
-0.00202921
-0.00187109
-0.00170955
-0.00154899
-0.00139402
-0.00124934
-0.00111956
-0.00100906
-0.000921889
-0.000861561
-0.000830964
-0.000832232
-0.000866661
-0.000934646
-0.00103566
-0.00116826
-0.00133015
-0.00151824
-0.0017288
-0.00195757
-0.00219993
-0.0024511
-0.00270625
-0.00296073
-0.00321015
-0.00345052
-0.00367831
-0.00389049
-0.00408451
-0.00425826
-0.00440998
-0.00453818
-0.00464147
-0.00471873
-0.00476876
-0.00478663
-0.00476811
0.00135736
0.00111078
0.000918117
0.000758696
0.000612961
0.000479522
0.000356813
0.00024202
0.000132461
2.57335e-05
-8.03411e-05
-0.000187689
-0.000297959
-0.000412509
-0.000532395
-0.000658372
-0.000790888
-0.000930094
-0.00107584
-0.0012277
-0.00138494
-0.00154657
-0.00171132
-0.00187767
-0.00204386
-0.00220792
-0.00236771
-0.00252094
-0.00266522
-0.00279811
-0.00291717
-0.00302005
-0.00310456
-0.00316869
-0.00321076
-0.00322943
-0.00322381
-0.00319349
-0.00313864
-0.00306002
-0.00295888
-0.00283733
-0.00269796
-0.00254396
-0.00237909
-0.00220756
-0.00203398
-0.0018632
-0.00170023
-0.00155004
-0.00141745
-0.00130698
-0.00122265
-0.00116786
-0.00114528
-0.0011567
-0.00120298
-0.00128404
-0.00139879
-0.00154522
-0.00172045
-0.00192087
-0.00214226
-0.00237998
-0.00262911
-0.0028847
-0.00314186
-0.00339598
-0.00364283
-0.00387862
-0.0041001
-0.0043045
-0.00448952
-0.00465327
-0.00479412
-0.00491062
-0.00500151
-0.00506554
-0.005099
-0.00509921
0.00146029
0.00118377
0.00097036
0.00079632
0.000639045
0.000496508
0.000366549
0.00024566
0.000130552
1.83102e-05
-9.36773e-05
-0.000207698
-0.000325695
-0.000449268
-0.000579662
-0.000717776
-0.00086417
-0.00101906
-0.00118235
-0.0013536
-0.00153205
-0.00171664
-0.00190601
-0.00209849
-0.00229216
-0.00248485
-0.00267418
-0.00285758
-0.00303236
-0.00319577
-0.00334504
-0.00347745
-0.00359042
-0.00368161
-0.00374893
-0.00379069
-0.00380564
-0.00379306
-0.00375277
-0.00368521
-0.00359164
-0.00347377
-0.0033341
-0.0031758
-0.00300264
-0.00281893
-0.00262943
-0.00243926
-0.00225375
-0.00207831
-0.00191824
-0.00177859
-0.00166398
-0.00157844
-0.00152526
-0.00150687
-0.00152476
-0.00157936
-0.00167009
-0.00179534
-0.00195255
-0.0021383
-0.00234848
-0.00257844
-0.00282319
-0.00307759
-0.00333652
-0.00359509
-0.00384874
-0.00409337
-0.0043254
-0.00454176
-0.00473988
-0.0049176
-0.00507311
-0.0052048
-0.00531122
-0.00539091
-0.00544148
-0.0054617
0.00153543
0.00122941
0.000995593
0.000807139
0.000638377
0.00048661
0.000349045
0.000221456
9.99332e-05
-1.89582e-05
-0.000138263
-0.000260626
-0.000388284
-0.000523063
-0.000666394
-0.000819313
-0.000982476
-0.00115617
-0.00134032
-0.00153447
-0.00173784
-0.00194928
-0.0021673
-0.0023901
-0.00261556
-0.00284129
-0.00306464
-0.00328276
-0.00349263
-0.00369114
-0.00387515
-0.00404154
-0.00418734
-0.00430975
-0.00440631
-0.00447487
-0.0045138
-0.00452196
-0.00449883
-0.00444455
-0.00435997
-0.00424667
-0.00410697
-0.00394391
-0.00376123
-0.00356332
-0.00335509
-0.00314191
-0.00292948
-0.00272362
-0.00253019
-0.00235487
-0.00220294
-0.00207919
-0.00198767
-0.00193159
-0.00191317
-0.00193357
-0.00199284
-0.00208991
-0.00222265
-0.00238798
-0.00258195
-0.00279999
-0.00303703
-0.00328777
-0.00354682
-0.00380895
-0.00406924
-0.00432316
-0.0045667
-0.00479638
-0.00500925
-0.00520281
-0.00537493
-0.00552376
-0.00564755
-0.00574457
-0.00581368
-0.00585514
0.00157723
0.00124241
0.000988694
0.000786157
0.000606062
0.000444997
0.000299509
0.000164633
3.58208e-05
-9.08854e-05
-0.000218965
-0.000351416
-0.000490759
-0.000639046
-0.000797881
-0.00096843
-0.00115144
-0.00134726
-0.00155582
-0.00177666
-0.00200894
-0.00225142
-0.00250248
-0.00276017
-0.00302215
-0.00328578
-0.00354815
-0.00380606
-0.00405617
-0.00429496
-0.00451888
-0.00472439
-0.00490805
-0.00506661
-0.00519711
-0.00529695
-0.00536401
-0.00539669
-0.00539405
-0.00535582
-0.00528249
-0.00517533
-0.00503641
-0.00486863
-0.00467563
-0.00446181
-0.00423223
-0.00399249
-0.00374862
-0.00350695
-0.00327392
-0.00305586
-0.00285889
-0.00268862
-0.00255001
-0.00244721
-0.00238335
-0.00236048
-0.00237946
-0.00243994
-0.0025404
-0.00267818
-0.00284966
-0.00305039
-0.0032753
-0.00351891
-0.00377559
-0.0040397
-0.00430585
-0.00456903
-0.00482467
-0.00506879
-0.0052979
-0.00550904
-0.00569965
-0.00586753
-0.00601053
-0.00612653
-0.00621562
-0.00627951
0.00158021
0.00121752
0.000944576
0.000728397
0.000537201
0.00036682
0.000213111
7.03531e-05
-6.66462e-05
-0.000202376
-0.000340748
-0.000485111
-0.000638263
-0.000802475
-0.000979517
-0.00117068
-0.0013768
-0.00159826
-0.00183502
-0.00208659
-0.00235206
-0.00263009
-0.00291894
-0.00321646
-0.00352011
-0.00382698
-0.00413384
-0.00443717
-0.00473322
-0.00501808
-0.00528774
-0.00553819
-0.00576548
-0.00596585
-0.00613579
-0.00627217
-0.00637232
-0.00643411
-0.00645609
-0.00643751
-0.00637841
-0.00627966
-0.00614304
-0.00597116
-0.00576755
-0.00553656
-0.00528332
-0.00501365
-0.00473392
-0.00445094
-0.00417176
-0.0039035
-0.00365312
-0.00342722
-0.00323182
-0.00307215
-0.00295247
-0.0028759
-0.00284432
-0.00285831
-0.00291713
-0.00301875
-0.00316
-0.00333667
-0.00354376
-0.00377568
-0.00402648
-0.00429013
-0.00456069
-0.00483254
-0.00510046
-0.0053598
-0.00560642
-0.00583673
-0.00604764
-0.00623644
-0.00640046
-0.00653712
-0.00664766
-0.00673526
0.00153894
0.00114957
0.000858239
0.000628957
0.000426953
0.000247271
8.50459e-05
-6.62061e-05
-0.000212329
-0.000358345
-0.000508596
-0.000666776
-0.000835956
-0.00101862
-0.0012167
-0.00143162
-0.00166427
-0.0019151
-0.00218405
-0.00247062
-0.00277384
-0.00309225
-0.00342397
-0.00376665
-0.00411752
-0.0044734
-0.00483072
-0.00518561
-0.00553391
-0.00587124
-0.00619313
-0.00649502
-0.00677244
-0.00702102
-0.00723668
-0.00741566
-0.00755468
-0.00765102
-0.00770259
-0.00770809
-0.00766701
-0.00757977
-0.00744769
-0.00727308
-0.00705922
-0.00681036
-0.00653163
-0.00622901
-0.0059092
-0.00557948
-0.00524754
-0.00492132
-0.00460871
-0.00431742
-0.00405467
-0.00382694
-0.00363983
-0.00349776
-0.00340386
-0.00335989
-0.0033661
-0.00342132
-0.003523
-0.00366733
-0.0038495
-0.00406383
-0.00430413
-0.00456388
-0.00483657
-0.00511583
-0.00539568
-0.00567063
-0.00593574
-0.00618665
-0.00641955
-0.0066311
-0.00681797
-0.00697699
-0.00711052
-0.00722322
0.00144817
0.00103358
0.000724838
0.000483075
0.000270606
8.16522e-05
-8.939e-05
-0.000249778
-0.000406008
-0.00056363
-0.000727414
-0.000901397
-0.00108892
-0.00129267
-0.00151475
-0.00175668
-0.00201945
-0.00230353
-0.00260888
-0.00293496
-0.00328072
-0.00364462
-0.0040246
-0.00441812
-0.00482216
-0.00523325
-0.00564747
-0.00606057
-0.00646794
-0.00686474
-0.00724594
-0.00760645
-0.00794117
-0.00824512
-0.00851353
-0.00874197
-0.00892646
-0.00906358
-0.00915057
-0.00918544
-0.00916706
-0.00909524
-0.00897081
-0.00879563
-0.00857267
-0.00830594
-0.00800053
-0.00766251
-0.00729883
-0.00691724
-0.00652606
-0.00613405
-0.00575016
-0.00538325
-0.00504189
-0.00473403
-0.00446677
-0.0042461
-0.00407666
-0.00396164
-0.00390258
-0.00389941
-0.00395044
-0.00405248
-0.004201
-0.00439039
-0.00461421
-0.0048655
-0.00513704
-0.00542165
-0.00571244
-0.00600293
-0.00628718
-0.00655988
-0.00681633
-0.0070524
-0.00726395
-0.00744708
-0.00760526
-0.00774461
0.00130287
0.000864734
0.000539736
0.000286197
6.36412e-05
-0.000134546
-0.000314724
-0.000484925
-0.000652292
-0.000822898
-0.00100194
-0.00119379
-0.00140204
-0.00162961
-0.00187874
-0.00215107
-0.00244767
-0.00276905
-0.00311517
-0.00348546
-0.0038788
-0.00429354
-0.00472745
-0.0051778
-0.0056413
-0.00611417
-0.00659215
-0.00707055
-0.00754432
-0.00800809
-0.00845627
-0.00888316
-0.00928299
-0.0096501
-0.00997899
-0.0102645
-0.0105018
-0.0106867
-0.0108158
-0.0108862
-0.010896
-0.0108444
-0.0107317
-0.010559
-0.0103289
-0.0100452
-0.00971277
-0.00933763
-0.00892697
-0.00848891
-0.0080324
-0.00756704
-0.00710281
-0.00664987
-0.00621823
-0.00581748
-0.00545644
-0.0051429
-0.00488331
-0.00468259
-0.00454389
-0.00446854
-0.00445601
-0.00450394
-0.00460834
-0.00476376
-0.00496363
-0.00520051
-0.00546649
-0.00575347
-0.00605345
-0.0063588
-0.00666242
-0.00695781
-0.00723921
-0.0075015
-0.00773956
-0.00794861
-0.00813321
-0.00830101
0.00109827
0.000638547
0.000298579
3.40418e-05
-0.000198187
-0.000405569
-0.000595224
-0.00077595
-0.00095553
-0.00114055
-0.00133663
-0.00154847
-0.00177994
-0.00203413
-0.00231345
-0.00261966
-0.00295391
-0.00331674
-0.00370814
-0.0041275
-0.00457364
-0.00504477
-0.00553852
-0.00605193
-0.00658146
-0.00712301
-0.00767193
-0.0082231
-0.00877098
-0.00930965
-0.00983293
-0.0103345
-0.0108077
-0.0112464
-0.0116441
-0.0119948
-0.012293
-0.0125335
-0.012712
-0.0128248
-0.0128692
-0.0128436
-0.0127474
-0.0125812
-0.0123471
-0.0120483
-0.0116894
-0.0112764
-0.0108165
-0.0103182
-0.00979104
-0.0092453
-0.00869209
-0.00814287
-0.0076092
-0.00710243
-0.00663334
-0.00621175
-0.00584621
-0.0055437
-0.00530934
-0.00514621
-0.00505527
-0.00503534
-0.0050832
-0.0051938
-0.00536053
-0.00557556
-0.00583024
-0.00611544
-0.00642196
-0.00674082
-0.00706351
-0.00738215
-0.00768967
-0.00797977
-0.00824615
-0.00848299
-0.00869594
-0.00889421
0.000830017
0.000350882
-2.63322e-06
-0.000277321
-0.000518782
-0.000735319
-0.000934812
-0.00112681
-0.00131972
-0.00152064
-0.00173559
-0.0019696
-0.00222679
-0.00251046
-0.00282318
-0.00316681
-0.0035426
-0.00395114
-0.00439242
-0.00486582
-0.00537007
-0.00590329
-0.00646294
-0.00704583
-0.00764816
-0.00826548
-0.00889276
-0.00952443
-0.0101544
-0.0107762
-0.0113831
-0.0119678
-0.0125233
-0.0130422
-0.0135174
-0.0139421
-0.0143097
-0.0146141
-0.01485
-0.0150128
-0.015099
-0.0151058
-0.0150319
-0.0148773
-0.0146431
-0.0143321
-0.0139485
-0.0134981
-0.012988
-0.0124269
-0.0118247
-0.0111925
-0.0105425
-0.0098873
-0.0092402
-0.00861437
-0.0080227
-0.0074773
-0.00698911
-0.00656752
-0.00621997
-0.00595174
-0.00576566
-0.00566211
-0.00563899
-0.00569191
-0.00581443
-0.00599842
-0.00623452
-0.00651252
-0.00682187
-0.00715203
-0.00749287
-0.00783488
-0.00816942
-0.00848879
-0.00878528
-0.00905185
-0.00929522
-0.00952624
0.000494174
-1.95695e-06
-0.000367468
-0.0006514
-0.000901622
-0.00112727
-0.00133698
-0.00154102
-0.00174842
-0.00196675
-0.00220244
-0.00246082
-0.00274628
-0.00306231
-0.00341164
-0.00379627
-0.00421752
-0.00467604
-0.00517185
-0.0057043
-0.00627205
-0.00687311
-0.00750478
-0.00816365
-0.00884563
-0.00954593
-0.0102591
-0.0109791
-0.0116994
-0.0124127
-0.0131117
-0.0137884
-0.014435
-0.0150431
-0.0156049
-0.0161125
-0.0165583
-0.0169353
-0.0172371
-0.017458
-0.0175936
-0.01764
-0.0175951
-0.0174579
-0.0172287
-0.0169097
-0.0165044
-0.0160183
-0.0154583
-0.0148331
-0.014153
-0.0134297
-0.0126762
-0.0119065
-0.0111354
-0.0103781
-0.00964957
-0.0089645
-0.00833649
-0.00777765
-0.00729821
-0.00690601
-0.00660627
-0.00640136
-0.00629073
-0.006271
-0.00633619
-0.00647806
-0.00668659
-0.00695048
-0.00725769
-0.00759597
-0.0079533
-0.00831826
-0.00868038
-0.00903029
-0.00935861
-0.00965689
-0.00993292
-0.0101993
8.7338e-05
-0.000423158
-0.000798991
-0.0010912
-0.00134969
-0.00158441
-0.00180472
-0.0020216
-0.00224465
-0.00248192
-0.00274022
-0.00302518
-0.00334145
-0.00369272
-0.00408187
-0.00451105
-0.00498166
-0.00549442
-0.00604937
-0.00664584
-0.00728245
-0.00795707
-0.00866686
-0.00940817
-0.0101766
-0.0109671
-0.0117736
-0.0125898
-0.0134084
-0.0142216
-0.0150213
-0.0157987
-0.0165452
-0.0172516
-0.0179089
-0.0185083
-0.0190413
-0.0194996
-0.0198759
-0.0201635
-0.0203565
-0.0204503
-0.0204416
-0.0203284
-0.0201103
-0.0197884
-0.0193657
-0.0188471
-0.0182391
-0.0175504
-0.0167912
-0.0159738
-0.0151119
-0.0142207
-0.0133165
-0.0124164
-0.0115377
-0.0106976
-0.00991265
-0.00919807
-0.00856721
-0.00803099
-0.00759751
-0.00727166
-0.00705494
-0.00694546
-0.00693806
-0.00702465
-0.00719473
-0.00743591
-0.00773461
-0.00807666
-0.00844792
-0.00883478
-0.00922463
-0.0096061
-0.0099679
-0.0102999
-0.010611
-0.0109155
-0.000393298
-0.000915328
-0.00129969
-0.00159917
-0.0018654
-0.00210913
-0.00234044
-0.00257095
-0.00281081
-0.00306854
-0.0033513
-0.00366503
-0.00401461
-0.00440394
-0.00483608
-0.00531328
-0.00583707
-0.00640823
-0.00702682
-0.00769218
-0.00840287
-0.00915664
-0.00995048
-0.0107805
-0.0116421
-0.0125296
-0.0134369
-0.0143568
-0.0152815
-0.0162027
-0.0171113
-0.0179979
-0.0188528
-0.0196661
-0.0204277
-0.0211277
-0.0217565
-0.0223049
-0.0227643
-0.0231267
-0.0233855
-0.0235347
-0.0235699
-0.0234881
-0.0232878
-0.0229693
-0.0225348
-0.0219882
-0.0213359
-0.0205858
-0.0197485
-0.0188362
-0.0178632
-0.0168456
-0.0158012
-0.0147488
-0.013708
-0.0126988
-0.0117406
-0.0108521
-0.0100501
-0.0093491
-0.00876062
-0.00829267
-0.00794942
-0.00773098
-0.00763353
-0.00764952
-0.00776819
-0.00797622
-0.00825843
-0.00859859
-0.00898021
-0.00938715
-0.00980435
-0.0102181
-0.0106149
-0.0109826
-0.0113312
-0.011677
-0.000949871
-0.00148043
-0.00187144
-0.0021771
-0.00245053
-0.0027032
-0.00294587
-0.00319079
-0.00344862
-0.00372829
-0.00403732
-0.00438194
-0.00476726
-0.00519738
-0.00567553
-0.00620411
-0.00678474
-0.00741829
-0.00810486
-0.00884376
-0.00963351
-0.0104718
-0.0113553
-0.0122801
-0.013241
-0.0142323
-0.0152471
-0.0162779
-0.0173161
-0.0183528
-0.019378
-0.0203817
-0.0213531
-0.0222813
-0.0231553
-0.0239641
-0.0246969
-0.0253435
-0.025894
-0.0263396
-0.0266721
-0.0268846
-0.0269716
-0.0269289
-0.0267539
-0.0264459
-0.0260062
-0.0254378
-0.0247463
-0.0239393
-0.0230268
-0.0220211
-0.0209369
-0.0197908
-0.0186017
-0.0173901
-0.0161777
-0.0149871
-0.0138409
-0.0127613
-0.011769
-0.0108823
-0.010117
-0.00948463
-0.00899278
-0.00864427
-0.00843718
-0.00836504
-0.00841722
-0.00857964
-0.0088356
-0.00916672
-0.00955392
-0.00997825
-0.0104218
-0.0108682
-0.0113013
-0.0117067
-0.0120955
-0.012486
-0.00158378
-0.00211971
-0.00251539
-0.00282613
-0.00310615
-0.00336768
-0.00362206
-0.00388212
-0.00415901
-0.00446205
-0.00479907
-0.0051766
-0.00559996
-0.00607346
-0.0066005
-0.00718361
-0.00782453
-0.00852421
-0.00928278
-0.0100996
-0.010973
-0.0119007
-0.0128792
-0.0139042
-0.0149704
-0.0160714
-0.0172
-0.0183481
-0.0195065
-0.0206655
-0.0218144
-0.0229421
-0.0240371
-0.0250875
-0.026081
-0.0270058
-0.02785
-0.0286022
-0.0292513
-0.0297874
-0.0302013
-0.0304848
-0.0306313
-0.0306354
-0.0304935
-0.0302038
-0.0297664
-0.0291836
-0.0284598
-0.0276021
-0.0266198
-0.0255249
-0.024332
-0.0230581
-0.021723
-0.0203484
-0.0189579
-0.0175765
-0.01623
-0.0149441
-0.0137436
-0.0126513
-0.0116872
-0.0108676
-0.010204
-0.00970266
-0.00936442
-0.00918447
-0.00915286
-0.00925511
-0.00947315
-0.00978644
-0.0101731
-0.0106111
-0.0110793
-0.0115582
-0.0120287
-0.0124737
-0.0129054
-0.0133441
-0.00229566
-0.00283369
-0.00323199
-0.00354662
-0.00383263
-0.00410285
-0.00436924
-0.00464513
-0.0049421
-0.00526983
-0.00563647
-0.00604877
-0.00651231
-0.00703158
-0.00761014
-0.00825067
-0.00895503
-0.00972423
-0.0105585
-0.0114571
-0.0124184
-0.0134399
-0.0145181
-0.0156482
-0.0168247
-0.0180408
-0.0192887
-0.0205597
-0.0218441
-0.0231311
-0.0244096
-0.0256674
-0.026892
-0.0280704
-0.0291897
-0.0302366
-0.0311983
-0.0320622
-0.0328164
-0.0334495
-0.0339514
-0.0343129
-0.034526
-0.0345844
-0.0344834
-0.03422
-0.0337933
-0.0332043
-0.0324567
-0.0315563
-0.0305117
-0.0293344
-0.0280384
-0.026641
-0.025162
-0.0236242
-0.0220527
-0.0204747
-0.0189189
-0.0174143
-0.0159901
-0.0146737
-0.0134901
-0.0124606
-0.0116015
-0.0109236
-0.010431
-0.0101216
-0.00998681
-0.0100122
-0.0101786
-0.0104635
-0.010842
-0.0112888
-0.011779
-0.0122898
-0.0127984
-0.0132848
-0.0137621
-0.0142529
-0.00308529
-0.00362207
-0.00402088
-0.0043382
-0.00462952
-0.00490825
-0.00518687
-0.00547918
-0.00579714
-0.00615077
-0.00654846
-0.00699724
-0.00750287
-0.00807004
-0.00870246
-0.00940297
-0.0101735
-0.0110152
-0.0119283
-0.0129122
-0.013965
-0.0150841
-0.0162659
-0.0175053
-0.0187963
-0.0201319
-0.0215036
-0.0229021
-0.024317
-0.0257368
-0.0271494
-0.0285418
-0.0299006
-0.0312118
-0.0324613
-0.033635
-0.0347189
-0.0356994
-0.0365636
-0.037299
-0.0378945
-0.0383398
-0.038626
-0.0387457
-0.038693
-0.0384639
-0.0380563
-0.0374702
-0.0367081
-0.0357746
-0.0346774
-0.0334269
-0.0320366
-0.030523
-0.0289061
-0.027209
-0.0254579
-0.0236817
-0.0219115
-0.0201797
-0.0185196
-0.0169634
-0.0155414
-0.0142805
-0.0132026
-0.0123237
-0.0116526
-0.0111906
-0.0109311
-0.0108608
-0.0109599
-0.0112039
-0.011565
-0.0120144
-0.0125232
-0.0130645
-0.0136116
-0.0141409
-0.0146666
-0.0152134
-0.00395165
-0.00448375
-0.00488092
-0.00519968
-0.00549558
-0.00578256
-0.00607357
-0.00638279
-0.00672252
-0.00710306
-0.00753307
-0.00801977
-0.00856912
-0.009186
-0.00987427
-0.0106369
-0.011476
-0.0123927
-0.0133873
-0.014459
-0.0156062
-0.0168261
-0.0181145
-0.0194664
-0.0208753
-0.0223336
-0.0238325
-0.0253618
-0.0269105
-0.0284663
-0.0300162
-0.0315464
-0.0330424
-0.0344893
-0.035872
-0.0371754
-0.0383845
-0.0394848
-0.0404622
-0.0413037
-0.0419969
-0.0425306
-0.0428951
-0.043082
-0.0430843
-0.0428971
-0.0425171
-0.0419433
-0.0411767
-0.040221
-0.0390824
-0.0377702
-0.0362968
-0.0346779
-0.0329328
-0.0310846
-0.0291598
-0.0271884
-0.0252036
-0.0232408
-0.0213369
-0.0195288
-0.0178526
-0.0163409
-0.0150222
-0.0139184
-0.0130441
-0.0124049
-0.0119979
-0.0118112
-0.0118251
-0.0120138
-0.0123467
-0.0127909
-0.0133137
-0.0138834
-0.0144689
-0.0150425
-0.0156192
-0.0162262
-0.00489282
-0.00541681
-0.00581018
-0.00612908
-0.00642879
-0.00672367
-0.0070271
-0.00735358
-0.00771569
-0.00812397
-0.0085873
-0.00911309
-0.00970748
-0.0103755
-0.0111212
-0.0119476
-0.012857
-0.0138505
-0.0149286
-0.0160903
-0.0173341
-0.0186567
-0.020054
-0.0215206
-0.0230495
-0.0246327
-0.0262607
-0.0279228
-0.0296071
-0.0313006
-0.0329894
-0.0346587
-0.0362932
-0.0378769
-0.0393939
-0.0408281
-0.0421637
-0.043385
-0.0444774
-0.0454268
-0.0462201
-0.0468454
-0.047292
-0.0475507
-0.0476138
-0.0474752
-0.0471308
-0.0465783
-0.0458177
-0.0448512
-0.0436837
-0.0423231
-0.0407803
-0.0390698
-0.0372098
-0.0352226
-0.0331346
-0.0309763
-0.028782
-0.0265895
-0.0244389
-0.0223718
-0.0204294
-0.018651
-0.0170717
-0.0157206
-0.0146186
-0.0137776
-0.0131988
-0.0128732
-0.0127824
-0.0128993
-0.0131912
-0.0136213
-0.0141522
-0.0147473
-0.0153705
-0.0159895
-0.0166198
-0.017291
-0.00590605
-0.00641852
-0.00680591
-0.00712364
-0.0074263