/*--------------------------------*- C++ -*----------------------------------*\
  =========                 |
  \\      /  F ield         | OpenFOAM: The Open Source CFD Toolbox
   \\    /   O peration     | Website:  https://openfoam.org
    \\  /    A nd           | Version:  7
     \\/     M anipulation  |
\*---------------------------------------------------------------------------*/
FoamFile
{
    version     2.0;
    format      ascii;
    class       volScalarField;
    location    "4";
    object      p;
}
// * * * * * * * * * * * * * * * * * * * * * * * * * * * * * * * * * * * * * //

dimensions      [0 2 -2 0 0 0 0];

internalField   nonuniform List<scalar> 
6400
(
-6.23938e-07
1.43457e-05
4.17613e-06
-3.50646e-05
-0.000101254
-0.000191074
-0.000300821
-0.000427105
-0.000567154
-0.000718868
-0.000880722
-0.00105163
-0.00123082
-0.00141767
-0.00161165
-0.00181213
-0.00201838
-0.00222947
-0.00244419
-0.00266107
-0.00287833
-0.00309384
-0.0033052
-0.00350965
-0.0037042
-0.00388558
-0.00405034
-0.00419493
-0.00431574
-0.00440923
-0.00447201
-0.00450102
-0.0044936
-0.00444767
-0.00436186
-0.00423565
-0.00406947
-0.00386482
-0.00362437
-0.00335196
-0.00305265
-0.00273245
-0.00239882
-0.00205983
-0.00172434
-0.00140168
-0.00110137
-0.00083277
-0.000604777
-0.000425462
-0.000301743
-0.000239088
-0.000241269
-0.000310179
-0.000445732
-0.000645845
-0.000906516
-0.00122199
-0.00158511
-0.00198729
-0.00241935
-0.00287156
-0.00333413
-0.00379755
-0.0042529
-0.0046921
-0.00510807
-0.00549482
-0.00584749
-0.00616224
-0.00643615
-0.00666709
-0.00685353
-0.00699451
-0.00708967
-0.00713965
-0.00714713
-0.00711878
-0.00706761
-0.00701272
-1.63471e-05
-1.2065e-06
-1.31646e-05
-5.08937e-05
-0.000111225
-0.00019203
-0.000290808
-0.00040505
-0.000532583
-0.000671661
-0.000820938
-0.000979393
-0.00114625
-0.00132086
-0.00150264
-0.00169096
-0.00188509
-0.00208412
-0.00228695
-0.00249222
-0.00269829
-0.00290326
-0.00310491
-0.00330076
-0.00348807
-0.00366385
-0.00382495
-0.00396807
-0.00408987
-0.00418706
-0.00425646
-0.00429516
-0.00430063
-0.00427085
-0.00420444
-0.00410078
-0.00396016
-0.00378384
-0.00357417
-0.0033346
-0.00306974
-0.00278512
-0.00248747
-0.00218434
-0.00188392
-0.00159486
-0.001326
-0.00108607
-0.000883337
-0.000725319
-0.000618454
-0.00056782
-0.000576907
-0.000647443
-0.000779308
-0.00097052
-0.00121731
-0.0015143
-0.00185473
-0.00223077
-0.00263377
-0.00305478
-0.00348477
-0.00391501
-0.00433733
-0.00474436
-0.00512967
-0.00548787
-0.00581459
-0.00610648
-0.00636107
-0.00657666
-0.00675226
-0.00688748
-0.00698263
-0.0070389
-0.00705913
-0.00704859
-0.00701263
-0.00695767
-5.9006e-06
1.02776e-05
-2.40445e-06
-3.95779e-05
-9.6953e-05
-0.000172641
-0.000264626
-0.000370886
-0.000489643
-0.000619457
-0.000759194
-0.000907981
-0.00106514
-0.00123009
-0.00140232
-0.00158125
-0.00176622
-0.00195642
-0.00215087
-0.00234833
-0.00254731
-0.00274607
-0.0029426
-0.00313458
-0.00331946
-0.00349444
-0.00365653
-0.00380259
-0.00392939
-0.00403372
-0.00411245
-0.00416268
-0.00418183
-0.00416778
-0.00411902
-0.00403473
-0.00391498
-0.00376076
-0.00357411
-0.00335816
-0.00311706
-0.00285628
-0.00258199
-0.0023014
-0.00202238
-0.00175328
-0.00150265
-0.00127895
-0.00109023
-0.000943821
-0.000846001
-0.000801735
-0.000814433
-0.000885785
-0.00101567
-0.00120213
-0.00144149
-0.00172848
-0.00205649
-0.0024179
-0.00280438
-0.00320719
-0.00361769
-0.00402753
-0.00442894
-0.00481498
-0.00517969
-0.00551811
-0.00582635
-0.00610148
-0.00634149
-0.00654514
-0.00671184
-0.00684158
-0.00693486
-0.00699278
-0.0070176
-0.00701272
-0.00697682
-0.00690667
3.53686e-05
4.81593e-05
3.27565e-05
-5.64316e-06
-6.24163e-05
-0.000135645
-0.000223549
-0.000324386
-0.000436706
-0.00055936
-0.000691465
-0.000832355
-0.000981521
-0.00113854
-0.00130303
-0.00147454
-0.00165255
-0.0018364
-0.00202522
-0.00221793
-0.00241323
-0.00260952
-0.00280494
-0.00299732
-0.00318425
-0.00336303
-0.00353075
-0.0036843
-0.00382047
-0.00393599
-0.00402765
-0.0040924
-0.00412749
-0.00413057
-0.00409988
-0.00403433
-0.00393367
-0.00379861
-0.0036309
-0.00343336
-0.00320988
-0.00296566
-0.00270671
-0.00244007
-0.00217349
-0.00191524
-0.00167382
-0.00145772
-0.001275
-0.00113307
-0.00103827
-0.000995659
-0.00100871
-0.00107919
-0.00120701
-0.00139025
-0.00162524
-0.00190669
-0.00222798
-0.00258144
-0.00295874
-0.00335122
-0.00375022
-0.00414753
-0.00453556
-0.0049076
-0.00525797
-0.00558206
-0.00587638
-0.00613843
-0.00636664
-0.00656019
-0.00671887
-0.00684293
-0.00693291
-0.00698958
-0.00701441
-0.00700917
-0.00696753
-0.0068797
0.00010648
0.000110031
8.86311e-05
4.68595e-05
-1.12305e-05
-8.3781e-05
-0.000169213
-0.000266109
-0.000373345
-0.000490091
-0.00061575
-0.000749912
-0.000892298
-0.00104269
-0.0012009
-0.00136666
-0.00153963
-0.00171934
-0.00190508
-0.00209598
-0.00229088
-0.00248835
-0.00268667
-0.0028838
-0.00307739
-0.0032648
-0.00344312
-0.00360919
-0.00375968
-0.00389117
-0.00400025
-0.0040836
-0.00413818
-0.00416133
-0.00415092
-0.00410552
-0.00402455
-0.00390835
-0.00375837
-0.0035772
-0.00336846
-0.00313716
-0.00288923
-0.00263163
-0.0023721
-0.00211897
-0.00188086
-0.00166641
-0.00148388
-0.00134088
-0.00124399
-0.00119848
-0.00120804
-0.0012746
-0.0013982
-0.001577
-0.00180732
-0.00208385
-0.00239989
-0.00274764
-0.00311863
-0.00350406
-0.0038952
-0.00428376
-0.00466216
-0.00502377
-0.00536309
-0.00567577
-0.00595862
-0.00620955
-0.0064274
-0.00661175
-0.00676278
-0.00688099
-0.00696695
-0.00702118
-0.00704456
-0.00703766
-0.00699095
-0.00689064
0.000204785
0.000193983
0.000163438
0.000116174
5.49542e-05
-1.85541e-05
-0.000103021
-0.000197403
-0.000300949
-0.000413178
-0.000533822
-0.000662771
-0.00080002
-0.000945612
-0.00109959
-0.00126194
-0.00143253
-0.0016111
-0.00179719
-0.00199008
-0.0021888
-0.00239208
-0.00259831
-0.00280552
-0.00301141
-0.00321328
-0.00340813
-0.00359265
-0.00376329
-0.00391636
-0.0040481
-0.00415486
-0.00423317
-0.00427996
-0.00429268
-0.0042695
-0.00420941
-0.00411241
-0.00397965
-0.00381349
-0.00361729
-0.00339595
-0.00315532
-0.00290238
-0.00264495
-0.00239152
-0.00215092
-0.00193205
-0.0017435
-0.00159324
-0.0014882
-0.00143402
-0.00143474
-0.00149257
-0.00160782
-0.00177879
-0.00200191
-0.00227184
-0.0025818
-0.00292386
-0.00328932
-0.00366916
-0.00405443
-0.00443664
-0.00480806
-0.00516203
-0.00549305
-0.00579691
-0.00607065
-0.00631249
-0.00652161
-0.00669798
-0.00684213
-0.00695483
-0.00703677
-0.00708836
-0.0071101
-0.00710188
-0.00705249
-0.00694628
0.000326479
0.000297057
0.000254722
0.000200059
0.000134055
5.81228e-05
-2.67672e-05
-0.000120024
-0.000221329
-0.000330598
-0.000447931
-0.000573559
-0.000707795
-0.000850983
-0.00100345
-0.00116546
-0.00133714
-0.00151849
-0.00170925
-0.00190895
-0.00211677
-0.00233157
-0.00255182
-0.00277558
-0.00300047
-0.0032237
-0.00344206
-0.00365197
-0.00384955
-0.00403071
-0.00419126
-0.00432706
-0.00443416
-0.00450897
-0.00454848
-0.00455035
-0.00451317
-0.00443653
-0.00432131
-0.00416981
-0.00398455
-0.00377083
-0.00353439
-0.00328221
-0.00302224
-0.00276318
-0.00251415
-0.00228441
-0.00208297
-0.00191827
-0.00179776
-0.00172759
-0.00171229
-0.00175456
-0.00185508
-0.00201247
-0.00222337
-0.00248255
-0.00278318
-0.00311722
-0.00347575
-0.00384948
-0.00422914
-0.00460593
-0.00497186
-0.00532006
-0.00564491
-0.0059422
-0.00620908
-0.0064439
-0.00664615
-0.00681612
-0.00695464
-0.00706276
-0.00714137
-0.0071909
-0.00721173
-0.0072034
-0.00715428
-0.00704842
0.000466932
0.000415497
0.000359076
0.000295408
0.000223293
0.000143702
5.71554e-05
-3.62994e-05
-0.000136849
-0.00024486
-0.000360842
-0.000485407
-0.000619226
-0.000762981
-0.000917322
-0.00108282
-0.0012599
-0.00144883
-0.0016496
-0.00186194
-0.0020852
-0.00231833
-0.00255983
-0.0028077
-0.00305944
-0.00331202
-0.00356193
-0.00380521
-0.00403753
-0.00425429
-0.00445076
-0.00462222
-0.00476414
-0.00487237
-0.00494333
-0.00497418
-0.00496303
-0.00490905
-0.00481292
-0.00467713
-0.00450169
-0.0042941
-0.00405949
-0.00380477
-0.00353802
-0.00326814
-0.0030046
-0.00275708
-0.00253511
-0.00234771
-0.00220297
-0.00210774
-0.00206724
-0.00208481
-0.00216174
-0.00229717
-0.00248811
-0.00272961
-0.00301495
-0.00333603
-0.00368378
-0.00404862
-0.00442093
-0.00479152
-0.00515202
-0.0054952
-0.00581519
-0.00610759
-0.0063695
-0.00659934
-0.00679673
-0.00696217
-0.00709676
-0.0072018
-0.0072784
-0.00732715
-0.00734847
-0.00734182
-0.00729601
-0.00719585
0.000621049
0.000544783
0.000472447
0.00039854
0.00031925
0.00023497
0.000145652
5.06932e-05
-5.06728e-05
-0.000159318
-0.000276213
-0.000402389
-0.000538908
-0.000686823
-0.000847139
-0.00102076
-0.00120844
-0.00141072
-0.00162786
-0.00185976
-0.00210592
-0.00236533
-0.00263644
-0.00291713
-0.00320467
-0.0034957
-0.0037863
-0.004072
-0.00434792
-0.00460885
-0.00484941
-0.00506423
-0.00524813
-0.0053963
-0.00550456
-0.00556951
-0.00558872
-0.00556096
-0.00548605
-0.00536481
-0.00520238
-0.00500099
-0.00476674
-0.00450679
-0.00422935
-0.00394355
-0.00365921
-0.00338646
-0.00313544
-0.00291584
-0.00273658
-0.00260534
-0.00252824
-0.00250953
-0.00255135
-0.00265361
-0.00281396
-0.00302792
-0.00328909
-0.00358949
-0.00391998
-0.00427075
-0.00463183
-0.00499358
-0.00534716
-0.00568484
-0.00600035
-0.00628893
-0.00654745
-0.00677421
-0.00696881
-0.00713186
-0.0072646
-0.00736854
-0.00744502
-0.00749482
-0.00751848
-0.00751558
-0.00747592
-0.00738575
0.000783161
0.000679772
0.00059012
0.000505054
0.000417775
0.000327945
0.000234813
0.000137018
3.31308e-05
-7.82877e-05
-0.000198711
-0.000329628
-0.000472524
-0.000628851
-0.000799994
-0.000987221
-0.00119162
-0.00141402
-0.00165492
-0.00191439
-0.00219201
-0.00248677
-0.002797
-0.00312036
-0.00345378
-0.00379346
-0.00413497
-0.00447324
-0.00480271
-0.00511749
-0.00541146
-0.00567851
-0.00591275
-0.00610866
-0.00626138
-0.00636687
-0.00642213
-0.00642537
-0.00637597
-0.00627457
-0.00612466
-0.00592957
-0.00569491
-0.00542765
-0.00513603
-0.00482936
-0.00451776
-0.00421187
-0.00392245
-0.00366
-0.00343436
-0.00325427
-0.00312699
-0.00305791
-0.00305034
-0.00310526
-0.00322129
-0.00339473
-0.00361976
-0.00388874
-0.00419265
-0.00452155
-0.00486516
-0.00521339
-0.00555682
-0.00588715
-0.00619748
-0.00648256
-0.00673877
-0.00696413
-0.00715803
-0.00732101
-0.00745431
-0.00755954
-0.0076382
-0.00769128
-0.00771945
-0.00772246
-0.00769144
-0.00761448
0.00094703
0.000814668
0.00070667
0.000609809
0.00051394
0.000417819
0.000319854
0.000217809
0.000109515
-7.09795e-06
-0.00013405
-0.00027332
-0.000426845
-0.000596506
-0.00078409
-0.000991242
-0.00121938
-0.00146964
-0.00174272
-0.00203882
-0.00235756
-0.00269782
-0.00305776
-0.00343471
-0.00382515
-0.00422476
-0.00462847
-0.00503052
-0.00542461
-0.00580404
-0.00616191
-0.0064913
-0.00678552
-0.00703829
-0.00724398
-0.00739784
-0.00749619
-0.00753659
-0.00751784
-0.00744007
-0.00730622
-0.00711921
-0.0068844
-0.00660855
-0.00629984
-0.00596767
-0.00562244
-0.00527524
-0.00493751
-0.00462061
-0.00433544
-0.00409198
-0.00389885
-0.00376291
-0.00368895
-0.0036794
-0.00373421
-0.00385087
-0.00402447
-0.00424803
-0.0045129
-0.00480921
-0.00512648
-0.00545417
-0.00578225
-0.00610171
-0.0064049
-0.00668581
-0.00694019
-0.00716548
-0.00736064
-0.00752589
-0.00766234
-0.00777154
-0.00785502
-0.00791389
-0.00794892
-0.00796001
-0.00793975
-0.00787828
0.00110568
0.000943006
0.000815973
0.00070692
0.000602018
0.000498933
0.000395085
0.000287251
0.000172438
4.78955e-05
-8.89875e-05
-0.000240714
-0.000409701
-0.000598278
-0.000808656
-0.00104286
-0.00130265
-0.00158942
-0.00190405
-0.00224682
-0.0026173
-0.00301423
-0.00343546
-0.00387789
-0.00433748
-0.00480929
-0.0052875
-0.00576558
-0.0062364
-0.0066924
-0.00712581
-0.00752884
-0.00789392
-0.00821394
-0.00848244
-0.00869386
-0.00884373
-0.00892884
-0.00894734
-0.00889888
-0.00878519
-0.00860914
-0.00837554
-0.00809081
-0.00776294
-0.00740132
-0.00701651
-0.00662003
-0.00622393
-0.00584051
-0.00548181
-0.00515919
-0.00488288
-0.00466149
-0.00450165
-0.00440766
-0.00438125
-0.00442151
-0.00452494
-0.00468562
-0.0048956
-0.00514537
-0.00542442
-0.00572187
-0.00602708
-0.00633021
-0.00662271
-0.00689761
-0.00714974
-0.00737569
-0.00757374
-0.00774355
-0.00788581
-0.0080018
-0.00809293
-0.00816028
-0.00820462
-0.00822591
-0.00821821
-0.00817371
0.00125159
0.00105767
0.000911218
0.000789777
0.000675506
0.000564795
0.000453931
0.000338597
0.000214903
7.93597e-05
-7.12689e-05
-0.000240041
-0.000429882
-0.000643592
-0.000883811
-0.00115295
-0.00145309
-0.00178585
-0.00215225
-0.0025526
-0.00298633
-0.00345195
-0.0039469
-0.00446757
-0.00500931
-0.00556643
-0.00613232
-0.00669958
-0.00726018
-0.00780563
-0.00832722
-0.00881622
-0.00926413
-0.0096629
-0.0100052
-0.0102845
-0.0104955
-0.0106341
-0.0106976
-0.010685
-0.0105971
-0.0104361
-0.0102063
-0.00991361
-0.00956564
-0.00917164
-0.00874222
-0.00828918
-0.00782517
-0.00736334
-0.00691693
-0.0064988
-0.00612096
-0.00579405
-0.00552688
-0.00532604
-0.00519554
-0.00513661
-0.00514767
-0.0052244
-0.00536002
-0.00554577
-0.00577139
-0.00602584
-0.00629794
-0.00657697
-0.00685332
-0.00711884
-0.00736715
-0.00759372
-0.00779577
-0.00797211
-0.00812272
-0.00824835
-0.00835002
-0.00842863
-0.00848476
-0.0085183
-0.00852466
-0.00849801
0.00137659
0.00115095
0.000984971
0.000851099
0.000727183
0.000608146
0.000489007
0.000364256
0.00022904
7.90866e-05
-8.95047e-05
-0.000280377
-0.000496987
-0.000742617
-0.00102035
-0.00133296
-0.00168283
-0.00207177
-0.00250089
-0.00297043
-0.00347963
-0.00402664
-0.00460843
-0.00522079
-0.00585834
-0.00651456
-0.00718199
-0.00785226
-0.00851639
-0.00916487
-0.009788
-0.010376
-0.0109195
-0.0114093
-0.011837
-0.0121954
-0.0124779
-0.0126796
-0.0127969
-0.0128278
-0.0127722
-0.0126316
-0.0124094
-0.0121109
-0.0117433
-0.0113155
-0.0108378
-0.0103224
-0.00978213
-0.00923106
-0.00868354
-0.00815394
-0.00765616
-0.00720305
-0.00680596
-0.00647414
-0.0062144
-0.0060307
-0.00592399
-0.00589216
-0.00593025
-0.00603074
-0.00618408
-0.00637936
-0.00660498
-0.00684941
-0.00710184
-0.00735274
-0.00759421
-0.00782024
-0.00802665
-0.008211
-0.0083722
-0.00851015
-0.00862523
-0.00871784
-0.00878821
-0.00883598
-0.00885772
-0.00884936
0.00147198
0.0012146
0.00102926
0.00088303
0.0007492
0.000621058
0.000492224
0.000355917
0.000206259
3.81547e-05
-0.000152995
-0.000371443
-0.000621196
-0.000906032
-0.00122946
-0.00159462
-0.00200416
-0.00246003
-0.00296335
-0.00351422
-0.0041116
-0.0047532
-0.00543542
-0.00615333
-0.00690074
-0.00767027
-0.00845344
-0.00924092
-0.0100226
-0.0107881
-0.0115264
-0.0122268
-0.0128787
-0.0134719
-0.0139972
-0.0144459
-0.0148107
-0.0150855
-0.0152657
-0.0153484
-0.0153324
-0.0152184
-0.0150088
-0.0147082
-0.0143231
-0.0138617
-0.0133342
-0.0127525
-0.0121298
-0.0114807
-0.0108205
-0.0101651
-0.00953008
-0.00893077
-0.00838119
-0.00789364
-0.00747819
-0.0071421
-0.00688956
-0.00672143
-0.00663524
-0.00662544
-0.00668378
-0.00679994
-0.00696222
-0.00715838
-0.0073764
-0.00760513
-0.00783491
-0.00805784
-0.00826792
-0.00846102
-0.00863458
-0.00878725
-0.00891839
-0.00902767
-0.00911467
-0.00917852
-0.00921689
-0.00922704
0.00152863
0.00123999
0.0010357
0.000877262
0.000733228
0.000595089
0.000454966
0.000304731
0.000137441
-5.28605e-05
-0.000271497
-0.000523356
-0.000813005
-0.00114472
-0.00152243
-0.00194963
-0.00242915
-0.00296305
-0.00355238
-0.00419703
-0.00489556
-0.00564515
-0.00644154
-0.00727899
-0.00815041
-0.00904744
-0.00996056
-0.0108793
-0.0117925
-0.0126885
-0.0135554
-0.0143811
-0.0151539
-0.0158627
-0.0164969
-0.0170469
-0.0175042
-0.0178618
-0.0181141
-0.0182569
-0.0182883
-0.0182077
-0.0180167
-0.017719
-0.01732
-0.0168275
-0.016251
-0.0156019
-0.0148935
-0.0141406
-0.0133592
-0.0125664
-0.0117795
-0.0110162
-0.0102931
-0.0096259
-0.00902828
-0.00851138
-0.00808329
-0.00774862
-0.0075083
-0.00735961
-0.00729637
-0.00730951
-0.00738775
-0.0075184
-0.00768831
-0.00788463
-0.00809562
-0.00831112
-0.00852284
-0.00872446
-0.00891146
-0.00908077
-0.00923036
-0.00935877
-0.00946467
-0.00954652
-0.00960248
-0.00963144
0.0015372
0.00121826
0.000995647
0.000825209
0.000670629
0.000521474
0.000368283
0.000201532
1.31733e-05
-0.000203634
-0.000454958
-0.000746335
-0.0010829
-0.00146944
-0.00191027
-0.00240919
-0.0029692
-0.00359239
-0.00427964
-0.00503053
-0.00584315
-0.00671405
-0.00763816
-0.00860888
-0.00961811
-0.0106564
-0.0117131
-0.0127765
-0.0138344
-0.0148737
-0.0158814
-0.0168442
-0.0177493
-0.0185843
-0.0193376
-0.0199986
-0.0205577
-0.0210068
-0.0213394
-0.0215503
-0.0216364
-0.0215963
-0.0214306
-0.0211418
-0.0207345
-0.0202154
-0.0195932
-0.0188788
-0.018085
-0.0172264
-0.0163194
-0.0153819
-0.0144327
-0.0134912
-0.0125769
-0.0117088
-0.0109043
-0.010179
-0.00954535
-0.00901267
-0.00858619
-0.00826699
-0.00805199
-0.0079343
-0.00790375
-0.00794775
-0.00805224
-0.00820273
-0.00838516
-0.00858673
-0.00879637
-0.00900503
-0.00920564
-0.0093929
-0.0095629
-0.00971266
-0.00983959
-0.00994118
-0.010016
-0.0100641
0.00148827
0.00114049
0.00090041
0.000718206
0.00055267
0.000391348
0.000223136
3.70821e-05
-0.000175983
-0.000423801
-0.000713201
-0.00105038
-0.00144104
-0.00189044
-0.00240331
-0.00298368
-0.00363466
-0.00435827
-0.00515517
-0.00602451
-0.0069638
-0.00796884
-0.00903367
-0.0101507
-0.0113107
-0.012503
-0.0137157
-0.014936
-0.0161501
-0.0173438
-0.0185028
-0.0196127
-0.0206593
-0.0216293
-0.0225099
-0.0232895
-0.0239576
-0.0245052
-0.0249249
-0.0252105
-0.0253581
-0.0253653
-0.0252316
-0.0249586
-0.0245497
-0.0240105
-0.0233488
-0.0225744
-0.0216993
-0.0207377
-0.0197058
-0.0186216
-0.0175048
-0.0163766
-0.0152586
-0.0141728
-0.0131407
-0.012182
-0.0113146
-0.0105529
-0.00990734
-0.00938409
-0.00898429
-0.00870436
-0.0085363
-0.00846839
-0.00848623
-0.00857384
-0.00871482
-0.00889338
-0.00909517
-0.00930782
-0.00952108
-0.00972681
-0.00991866
-0.0100917
-0.0102416
-0.0103646
-0.0104596
-0.0105274
0.00137265
0.00099796
0.000741452
0.000547734
0.000370762
0.000195998
1.06592e-05
-0.000197638
-0.000439191
-0.000722649
-0.0010556
-0.00144491
-0.00189684
-0.00241713
-0.00301084
-0.00368219
-0.00443435
-0.00526916
-0.00618695
-0.00718635
-0.00826416
-0.00941531
-0.0106328
-0.011908
-0.0132303
-0.0145878
-0.0159673
-0.0173545
-0.0187343
-0.0200912
-0.0214095
-0.0226736
-0.0238683
-0.0249791
-0.0259923
-0.0268954
-0.0276773
-0.028328
-0.0288394
-0.0292047
-0.0294191
-0.0294793
-0.029384
-0.0291337
-0.0287308
-0.0281797
-0.0274869
-0.0266609
-0.0257128
-0.0246556
-0.0235047
-0.022278
-0.0209953
-0.0196785
-0.018351
-0.0170374
-0.0157626
-0.0145509
-0.0134252
-0.0124059
-0.0115096
-0.0107484
-0.010129
-0.00965269
-0.00931481
-0.00910573
-0.00901154
-0.00901529
-0.00909835
-0.00924179
-0.00942754
-0.00963924
-0.0098628
-0.0100865
-0.010301
-0.0104988
-0.0106735
-0.0108197
-0.0109362
-0.0110247
0.00118156
0.000782343
0.000510639
0.000305668
0.00011671
-7.28778e-05
-0.000277561
-0.000511142
-0.000785034
-0.00110879
-0.00149076
-0.00193845
-0.00245869
-0.00305765
-0.00374068
-0.00451214
-0.00537513
-0.00633126
-0.0073804
-0.00852053
-0.00974761
-0.0110556
-0.0124363
-0.0138797
-0.015374
-0.0169058
-0.0184604
-0.020022
-0.0215742
-0.0231
-0.0245823
-0.0260046
-0.0273505
-0.0286045
-0.0297523
-0.0307807
-0.0316778
-0.0324333
-0.0330384
-0.0334859
-0.0337704
-0.0338879
-0.0338364
-0.0336155
-0.0332264
-0.0326724
-0.0319587
-0.0310924
-0.0300829
-0.0289419
-0.0276836
-0.0263247
-0.0248845
-0.023385
-0.0218503
-0.0203069
-0.0187824
-0.0173052
-0.0159032
-0.0146027
-0.0134272
-0.0123958
-0.0115223
-0.0108138
-0.0102711
-0.00988804
-0.00965238
-0.00954713
-0.00955193
-0.00964471
-0.00980334
-0.0100069
-0.0102368
-0.0104769
-0.0107141
-0.0109376
-0.0111386
-0.0113098
-0.0114494
-0.0115601
0.000906904
0.000485991
0.00020048
-1.54753e-05
-0.000217022
-0.00042289
-0.0006492
-0.000911139
-0.00122121
-0.00158984
-0.00202614
-0.00253826
-0.00313354
-0.00381853
-0.00459885
-0.00547888
-0.00646159
-0.00754822
-0.00873805
-0.0100283
-0.0114139
-0.0128876
-0.01444
-0.0160597
-0.0177333
-0.0194458
-0.0211809
-0.0229214
-0.0246491
-0.0263459
-0.0279936
-0.0295742
-0.0310706
-0.0324667
-0.0337474
-0.034899
-0.0359095
-0.0367682
-0.0374661
-0.0379958
-0.0383514
-0.0385286
-0.0385247
-0.0383387
-0.0379709
-0.0374234
-0.0366999
-0.0358061
-0.0347497
-0.0335405
-0.0321909
-0.030716
-0.0291337
-0.0274651
-0.0257342
-0.0239681
-0.0221962
-0.0204501
-0.0187621
-0.0171645
-0.0156874
-0.0143579
-0.0131977
-0.012222
-0.0114382
-0.0108455
-0.0104353
-0.0101919
-0.010094
-0.0101168
-0.010234
-0.0104197
-0.0106499
-0.0109034
-0.0111623
-0.0114122
-0.0116409
-0.0118385
-0.012003
-0.0121379
0.000541546
0.000102154
-0.000195624
-0.000422284
-0.000637052
-0.000860687
-0.00111091
-0.00140424
-0.00175422
-0.00217214
-0.00266783
-0.00325003
-0.0039266
-0.00470441
-0.00558923
-0.00658542
-0.00769568
-0.00892075
-0.0102592
-0.0117073
-0.0132588
-0.0149052
-0.0166356
-0.0184369
-0.0202942
-0.0221907
-0.0241085
-0.0260286
-0.0279316
-0.0297979
-0.0316081
-0.0333434
-0.0349859
-0.0365189
-0.037927
-0.0391966
-0.0403152
-0.0412724
-0.0420591
-0.0426681
-0.0430933
-0.0433303
-0.0433762
-0.0432292
-0.042889
-0.0423566
-0.0416346
-0.0407269
-0.0396395
-0.0383801
-0.0369591
-0.0353891
-0.0336861
-0.0318692
-0.0299613
-0.0279889
-0.025982
-0.023974
-0.0220008
-0.0200995
-0.018307
-0.0166584
-0.0151841
-0.0139085
-0.0128479
-0.0120089
-0.0113886
-0.0109742
-0.0107451
-0.0106746
-0.0107325
-0.0108875
-0.0111097
-0.0113719
-0.0116507
-0.0119268
-0.0121841
-0.0124099
-0.0126014
-0.0127626
7.95232e-05
-0.00037478
-0.000683153
-0.000920213
-0.00114883
-0.00139171
-0.00166808
-0.00199571
-0.00238912
-0.00286044
-0.00342017
-0.00407763
-0.00484109
-0.00571771
-0.00671332
-0.00783214
-0.00907648
-0.0104464
-0.0119397
-0.0135515
-0.0152742
-0.0170978
-0.0190098
-0.0209952
-0.0230375
-0.025118
-0.0272171
-0.0293141
-0.0313883
-0.0334187
-0.0353849
-0.0372674
-0.0390478
-0.0407091
-0.0422359
-0.0436145
-0.044833
-0.045881
-0.04675
-0.0474328
-0.0479238
-0.0482184
-0.0483139
-0.0482083
-0.0479005
-0.0473908
-0.0466806
-0.0457723
-0.0446702
-0.0433798
-0.041909
-0.040268
-0.03847
-0.0365314
-0.0344729
-0.0323191
-0.0300993
-0.0278472
-0.0256006
-0.0234004
-0.0212893
-0.0193097
-0.0175015
-0.015899
-0.014529
-0.0134079
-0.0125404
-0.0119195
-0.0115272
-0.0113362
-0.0113131
-0.0114215
-0.0116249
-0.0118892
-0.0121845
-0.0124859
-0.0127726
-0.0130281
-0.0132486
-0.013439
-0.000483726
-0.000949078
-0.00126625
-0.00151337
-0.00175643
-0.00201995
-0.00232457
-0.0026892
-0.0031293
-0.00365773
-0.00428563
-0.00502285
-0.00587802
-0.00685848
-0.00797004
-0.00921664
-0.0106001
-0.0121197
-0.0137721
-0.0155512
-0.0174479
-0.0194506
-0.0215449
-0.023714
-0.0259393
-0.0282004
-0.0304759
-0.0327436
-0.0349812
-0.0371667
-0.039279
-0.0412979
-0.0432049
-0.0449828
-0.0466166
-0.0480929
-0.0494004
-0.0505292
-0.0514714
-0.0522205
-0.0527711
-0.0531191
-0.0532626
-0.0531986
-0.0529262
-0.0524448
-0.0517551
-0.0508583
-0.0497567
-0.0484541
-0.0469557
-0.045269
-0.043404
-0.0413741
-0.0391965
-0.0368931
-0.0344909
-0.0320223
-0.0295253
-0.0270428
-0.0246217
-0.0223109
-0.0201589
-0.0182107
-0.0165046
-0.0150685
-0.0139178
-0.0130537
-0.0124633
-0.012121
-0.0119915
-0.0120337
-0.0122045
-0.0124622
-0.0127694
-0.0130943
-0.0134105
-0.0136971
-0.0139489
-0.0141716
-0.00115118
-0.00162348
-0.00194755
-0.00220431
-0.00246235
-0.00274778
-0.00308255
-0.00348661
-0.00397623
-0.00456498
-0.00526456
-0.00608527
-0.00703601
-0.00812424
-0.00935562
-0.0107337
-0.0122596
-0.0139317
-0.0157454
-0.0176931
-0.0197643
-0.0219452
-0.0242195
-0.0265687
-0.0289719
-0.031407
-0.0338507
-0.0362794
-0.0386696
-0.0409983
-0.0432438
-0.0453856
-0.0474052
-0.0492857
-0.0510127
-0.0525734
-0.0539572
-0.0551551
-0.05616
-0.0569661
-0.0575691
-0.0579658
-0.0581525
-0.0581285
-0.0578922
-0.0574429
-0.0567804
-0.0559049
-0.0548173
-0.0535194
-0.0520143
-0.0503065
-0.0484029
-0.0463133
-0.0440511
-0.0416344
-0.0390865
-0.0364371
-0.0337224
-0.0309855
-0.0282752
-0.0256453
-0.0231517
-0.0208495
-0.0187889
-0.0170111
-0.0155442
-0.0144008
-0.0135761
-0.0130489
-0.0127841
-0.0127372
-0.0128585
-0.0130984
-0.0134109
-0.0137565
-0.0141019
-0.0144207
-0.0147061
-0.0149645
-0.00192407
-0.00239904
-0.00272801
-0.00299395
-0.00326736
-0.00357581
-0.00394237
-0.00438791
-0.00492943
-0.00558109
-0.00635511
-0.00726214
-0.00831129
-0.00950998
-0.0108636
-0.0123753
-0.0140451
-0.0158706
-0.0178456
-0.0199609
-0.0222041
-0.0245597
-0.0270092
-0.0295318
-0.0321049
-0.0347043
-0.0373052
-0.0398826
-0.0424118
-0.0448693
-0.0472328
-0.0494821
-0.0515987
-0.0535665
-0.0553716
-0.0570022
-0.0584486
-0.059703
-0.0607592
-0.0616123
-0.0622589
-0.0626962
-0.0629221
-0.0629352
-0.0627343
-0.0623188
-0.0616878
-0.0608409
-0.059778
-0.0584992
-0.0570056
-0.0552991
-0.0533836
-0.051265
-0.0489529
-0.0464607
-0.0438074
-0.0410184
-0.0381265
-0.0351724
-0.0322051
-0.0292806
-0.0264603
-0.023808
-0.0213855
-0.0192477
-0.0174377
-0.0159819
-0.014887
-0.0141397
-0.013708
-0.0135456
-0.0135974
-0.0138057
-0.0141152
-0.0144773
-0.0148507
-0.0152026
-0.0155238
-0.0158215
-0.00280183
-0.00327508
-0.00360687
-0.00388141
-0.00417043
-0.00450276
-0.00490244
-0.00539108
-0.00598631
-0.00670282
-0.00755321
-0.00854841
-0.00969763
-0.0110082
-0.0124851
-0.0141306
-0.0159442
-0.0179217
-0.0200557
-0.0223353
-0.0247459
-0.0272699
-0.0298869
-0.0325738
-0.035306
-0.0380576
-0.0408023
-0.0435138
-0.0461667
-0.0487368
-0.051202
-0.0535422
-0.0557394
-0.0577783
-0.059646
-0.0613318
-0.0628272
-0.0641253
-0.0652212
-0.0661111
-0.0667924
-0.0672631
-0.0675219
-0.0675678
-0.0674001
-0.067018
-0.0664207
-0.0656072
-0.0645766
-0.0633279
-0.0618605
-0.0601742
-0.0582699
-0.0561504
-0.0538208
-0.0512901
-0.0485722
-0.0456873
-0.0426631
-0.0395364
-0.0363533
-0.0331699
-0.0300503
-0.0270648
-0.0242853
-0.0217803
-0.0196085
-0.0178127
-0.0164145
-0.015412
-0.0147798
-0.0144729
-0.0144322
-0.0145923
-0.0148883
-0.0152613
-0.0156607
-0.0160461
-0.0164053
-0.0167458
-0.003782
-0.0042491
-0.00458157
-0.00486399
-0.00516868
-0.00552547
-0.0059592
-0.00649208
-0.00714224
-0.00792475
-0.00885256
-0.00993675
-0.0111865
-0.0126089
-0.0142084
-0.0159866
-0.0179416
-0.0200681
-0.0223568
-0.0247949
-0.0273658
-0.0300498
-0.0328241
-0.0356639
-0.0385425
-0.0414323
-0.0443056
-0.0471352
-0.0498951
-0.0525611
-0.055111
-0.0575251
-0.0597865
-0.0618808
-0.063796
-0.0655228
-0.0670538
-0.0683836
-0.0695081
-0.0704249
-0.0711321
-0.0716287
-0.0719141
-0.071988
-0.07185
-0.0714995
-0.0709358
-0.070158
-0.0691644
-0.0679533
-0.066523
-0.0648714
-0.0629972
-0.0609002
-0.0585817
-0.0560462
-0.0533024
-0.0503645
-0.0472545
-0.0440032
-0.0406521
-0.0372543
-0.0338739
-0.0305845
-0.0274659
-0.0245987
-0.0220572
-0.0199018
-0.0181722
-0.0168815
-0.0160152
-0.0155327
-0.0153739
-0.0154666
-0.0157362
-0.0161129
-0.0165353
-0.016954
-0.017353
-0.0177399
-0.00486025
-0.0053168
-0.00564773
-0.0059372
-0.00625739
-0.0066389
-0.0071072
-0.00768491
-0.00839054
-0.00923946
-0.0102448
-0.0114177
-0.0127673
-0.0143002
-0.0160202
-0.017928
-0.0200205
-0.0222907
-0.0247277
-0.0273165
-0.0300387
-0.0328721
-0.0357921
-0.0387715
-0.041782
-0.0447946
-0.0477804
-0.0507114
-0.0535614
-0.0563061
-0.0589239
-0.0613957
-0.0637055
-0.0658401
-0.0677889
-0.0695436
-0.0710982
-0.0724485
-0.0735917
-0.0745261
-0.0752512
-0.0757666
-0.0760725
-0.0761692
-0.0760567
-0.075735
-0.0752035
-0.0744612
-0.0735066
-0.0723374
-0.070951
-0.0693443
-0.0675142
-0.0654579
-0.0631738
-0.0606622
-0.0579266
-0.0549756
-0.0518244
-0.0484971
-0.0450288
-0.0414669
-0.0378725
-0.0343195
-0.0308922
-0.0276807
-0.0247736
-0.0222495
-0.0201676
-0.0185601
-0.0174272
-0.0167376
-0.0164329
-0.0164365
-0.0166647
-0.0170361
-0.0174774
-0.0179285
-0.0183689
-0.0188057
-0.00603045
-0.00647213
-0.00679929
-0.00709482
-0.00743008
-0.00783621
-0.00833912
-0.0089617
-0.00972267
-0.0106376
-0.0117196
-0.0129799
-0.0144273
-0.0160679
-0.0179049
-0.0199377
-0.0221619
-0.024569
-0.0271461
-0.0298764
-0.0327389
-0.0357097
-0.0387618
-0.0418664
-0.0449935
-0.0481128
-0.0511945
-0.0542102
-0.0571336
-0.0599406
-0.0626103
-0.0651245
-0.0674684
-0.0696299
-0.0715996
-0.0733707
-0.0749383
-0.0762995
-0.0774526
-0.0783969
-0.0791327
-0.0796605
-0.0799812
-0.0800956
-0.0800043
-0.0797077
-0.0792057
-0.0784974
-0.0775813
-0.0764552
-0.0751161
-0.0735603
-0.0717833
-0.0697808
-0.0675485
-0.0650832
-0.0623843
-0.0594545
-0.0563027
-0.0529455
-0.0494101
-0.0457368
-0.0419807
-0.0382126
-0.0345177
-0.0309922
-0.0277363
-0.0248458
-0.0224005
-0.020454
-0.0190258
-0.0180981
-0.0176187
-0.0175097
-0.0176794
-0.0180346
-0.0184892
-0.0189711
-0.019454
-0.019944
-0.00728478
-0.00770742
-0.00802854
-0.00832898
-0.00867861
-0.0091089
-0.00964599
-0.0103129
-0.0111283
-0.012108
-0.013265
-0.0146102
-0.0161523
-0.0178966
-0.0198456
-0.0219973
-0.0243462
-0.0268817
-0.0295893
-0.0324499
-0.0354407
-0.0385356
-0.0417056
-0.0449202
-0.0481481
-0.0513579
-0.0545192
-0.0576034
-0.0605842
-0.0634382
-0.0661452
-0.0686882
-0.0710533
-0.0732299
-0.0752099
-0.0769876
-0.0785595
-0.0799237
-0.0810795
-0.0820272
-0.0827678
-0.0833026
-0.083633
-0.0837604
-0.0836861
-0.0834107
-0.0829346
-0.0822574
-0.0813778
-0.0802938
-0.0790024
-0.0774996
-0.0757805
-0.0738394
-0.0716705
-0.0692679
-0.0666273
-0.0637466
-0.0606285
-0.0572823
-0.0537269
-0.049994
-0.0461304
-0.0422008
-0.0382875
-0.0344887
-0.0309131
-0.0276709
-0.0248618
-0.0225628
-0.020816
-0.0196219
-0.0189393
-0.0186928
-0.0187848
-0.0191114
-0.0195724
-0.0200826
-0.0206085
-0.0211546
-0.00861385
-0.00901352
-0.00932633
-0.00963035
-0.00999337
-0.010447
-0.0110173
-0.0117274
-0.0125958
-0.0136381
-0.0148674
-0.0162943
-0.0179267
-0.0197696
-0.0218242
-0.0240877
-0.0265525
-0.0292069
-0.032034
-0.035013
-0.038119
-0.0413238
-0.044597
-0.0479063
-0.0512193
-0.0545038
-0.0577291
-0.0608665
-0.0638901
-0.0667773
-0.0695088
-0.0720686
-0.0744442
-0.0766262
-0.0786076
-0.0803842
-0.0819535
-0.0833144
-0.0844674
-0.0854134
-0.086154
-0.0866913
-0.0870273
-0.0871637
-0.0871023
-0.0868443
-0.0863904
-0.0857406
-0.0848942
-0.0838495
-0.0826038
-0.0811533
-0.0794929
-0.0776166
-0.0755173
-0.0731877
-0.0706203
-0.0678095