/*--------------------------------*- C++ -*----------------------------------*\
  =========                 |
  \\      /  F ield         | OpenFOAM: The Open Source CFD Toolbox
   \\    /   O peration     | Website:  https://openfoam.org
    \\  /    A nd           | Version:  7
     \\/     M anipulation  |
\*---------------------------------------------------------------------------*/
FoamFile
{
    version     2.0;
    format      ascii;
    class       surfaceScalarField;
    location    "4";
    object      phi;
}
// * * * * * * * * * * * * * * * * * * * * * * * * * * * * * * * * * * * * * //

dimensions      [0 3 -1 0 0 0 0];

internalField   nonuniform List<scalar> 
12640
(
4.12195e-10
-4.03926e-10
1.61144e-09
-1.19933e-09
3.11743e-09
-1.50598e-09
4.54345e-09
-1.42601e-09
5.66552e-09
-1.12199e-09
6.36632e-09
-7.0081e-10
6.59496e-09
-2.28638e-10
6.33927e-09
2.55628e-10
5.60755e-09
7.31692e-10
4.4164e-09
1.19117e-09
2.78346e-09
1.63295e-09
7.23445e-10
2.05999e-09
-1.75374e-09
2.47716e-09
-4.64349e-09
2.88974e-09
-7.94589e-09
3.30242e-09
-1.16646e-08
3.71874e-09
-1.58054e-08
4.14074e-09
-2.03741e-08
4.56877e-09
-2.53756e-08
5.00145e-09
-3.08112e-08
5.43566e-09
-3.66779e-08
5.86668e-09
-4.29662e-08
6.28824e-09
-4.96589e-08
6.69273e-09
-5.67302e-08
7.07131e-09
-6.41443e-08
7.4141e-09
-7.18547e-08
7.71037e-09
-7.98035e-08
7.94879e-09
-8.79211e-08
8.11766e-09
-9.61263e-08
8.20524e-09
-1.04326e-07
8.20005e-09
-1.12418e-07
8.09123e-09
-1.20287e-07
7.86895e-09
-1.27811e-07
7.52484e-09
-1.34864e-07
7.05241e-09
-1.41311e-07
6.44745e-09
-1.4702e-07
5.70846e-09
-1.51857e-07
4.83702e-09
-1.55695e-07
3.8381e-09
-1.58415e-07
2.72034e-09
-1.59911e-07
1.49614e-09
-1.60096e-07
1.84672e-10
-1.58893e-07
-1.20299e-09
-1.5626e-07
-2.63313e-09
-1.52176e-07
-4.08365e-09
-1.46651e-07
-5.52472e-09
-1.39726e-07
-6.92505e-09
-1.31474e-07
-8.25234e-09
-1.22e-07
-9.4743e-09
-1.1144e-07
-1.05597e-08
-9.99606e-08
-1.14795e-08
-8.77523e-08
-1.22083e-08
-7.50273e-08
-1.2725e-08
-6.20129e-08
-1.30144e-08
-4.89451e-08
-1.30678e-08
-3.60619e-08
-1.28832e-08
-2.35955e-08
-1.24665e-08
-1.17651e-08
-1.18304e-08
-7.70302e-10
-1.09948e-08
9.21653e-09
-9.98684e-09
1.80514e-08
-8.83489e-09
2.56262e-08
-7.57484e-09
3.18691e-08
-6.24286e-09
3.67446e-08
-4.87545e-09
4.02525e-08
-3.5079e-09
4.24252e-08
-2.17276e-09
4.33239e-08
-8.98711e-10
4.30337e-08
2.90238e-10
4.16588e-08
1.37491e-09
3.9318e-08
2.3408e-09
3.6141e-08
3.17693e-09
3.22668e-08
3.87421e-09
2.7844e-08
4.42283e-09
2.30352e-08
4.80882e-09
1.80256e-08
5.00962e-09
1.30367e-08
4.98884e-09
8.34475e-09
4.69202e-09
4.29764e-09
4.04713e-09
1.32537e-09
2.97229e-09
-1.08605e-10
1.43399e-09
-1.08585e-10
1.21804e-09
-1.62204e-09
3.63816e-09
-3.61933e-09
6.38179e-09
-4.24956e-09
8.79818e-09
-3.84265e-09
1.0441e-08
-2.76476e-09
1.10359e-08
-1.2957e-09
1.04357e-08
3.71631e-10
8.57679e-09
2.11457e-09
5.44592e-09
3.86256e-09
1.05606e-09
5.58102e-09
-4.57017e-09
7.25917e-09
-1.14106e-08
8.90038e-09
-1.94485e-08
1.05152e-08
-2.86751e-08
1.21163e-08
-3.90878e-08
1.37152e-08
-5.0689e-08
1.53199e-08
-6.34817e-08
1.69335e-08
-7.74664e-08
1.85535e-08
-9.26365e-08
2.01714e-08
-1.08974e-07
2.17731e-08
-1.26446e-07
2.33384e-08
-1.45e-07
2.48424e-08
-1.64563e-07
2.62555e-08
-1.85035e-07
2.75441e-08
-2.06293e-07
2.86715e-08
-2.28181e-07
2.95988e-08
-2.50518e-07
3.02858e-08
-2.73092e-07
3.06918e-08
-2.95664e-07
3.07772e-08
-3.17969e-07
3.05046e-08
-3.39718e-07
2.98399e-08
-3.60602e-07
2.87538e-08
-3.80301e-07
2.72233e-08
-3.98481e-07
2.52329e-08
-4.1481e-07
2.27757e-08
-4.28956e-07
1.9855e-08
-4.40604e-07
1.64846e-08
-4.49456e-07
1.269e-08
-4.55244e-07
8.50896e-09
-4.57739e-07
3.99084e-09
-4.56756e-07
-7.97761e-10
-4.52161e-07
-5.79884e-09
-4.4388e-07
-1.0914e-08
-4.31906e-07
-1.60568e-08
-4.16303e-07
-2.11284e-08
-3.97203e-07
-2.60251e-08
-3.74813e-07
-3.06416e-08
-3.49414e-07
-3.48737e-08
-3.21352e-07
-3.86214e-08
-2.91039e-07
-4.17929e-08
-2.58939e-07
-4.43076e-08
-2.25565e-07
-4.60995e-08
-1.91459e-07
-4.71204e-08
-1.57185e-07
-4.73421e-08
-1.23309e-07
-4.67585e-08
-9.03896e-08
-4.53862e-08
-5.89551e-08
-4.32649e-08
-2.9494e-08
-4.04559e-08
-2.44047e-09
-3.70404e-08
2.18405e-08
-3.31159e-08
4.30565e-08
-2.87908e-08
6.09983e-08
-2.41846e-08
7.55403e-08
-1.94174e-08
8.66404e-08
-1.4608e-08
9.43363e-08
-9.86869e-09
9.8739e-08
-5.30143e-09
1.00025e-07
-9.95393e-10
9.84254e-08
2.97418e-09
9.42205e-08
6.5457e-09
8.77293e-08
9.66812e-09
7.93072e-08
1.22964e-08
6.93458e-08
1.43842e-08
5.82795e-08
1.58751e-08
4.65974e-08
1.66917e-08
3.48601e-08
1.67261e-08
2.37165e-08
1.58356e-08
1.39071e-08
1.38564e-08
6.23365e-09
1.06457e-08
1.44671e-09
6.2209e-09
1.33813e-09
1.53838e-09
-3.16042e-09
4.27609e-09
-6.35693e-09
7.08008e-09
-7.0534e-09
9.17034e-09
-5.93293e-09
1.00041e-08
-3.59847e-09
9.23021e-09
-5.21926e-10
6.6442e-09
2.95763e-09
2.14169e-09
6.61711e-09
-4.31683e-09
1.03211e-08
-1.27346e-08
1.39988e-08
-2.30982e-08
1.76227e-08
-3.53901e-08
2.11922e-08
-4.95954e-08
2.47204e-08
-6.57042e-08
2.82251e-08
-8.37107e-08
3.17217e-08
-1.0361e-07
3.52191e-08
-1.25393e-07
3.87163e-08
-1.49041e-07
4.22015e-08
-1.7452e-07
4.56507e-08
-2.01776e-07
4.90286e-08
-2.30726e-07
5.22884e-08
-2.61257e-07
5.53738e-08
-2.93221e-07
5.82193e-08
-3.26429e-07
6.07525e-08
-3.60654e-07
6.2896e-08
-3.95623e-07
6.45686e-08
-4.31026e-07
6.56885e-08
-4.66509e-07
6.61751e-08
-5.01684e-07
6.59515e-08
-5.36126e-07
6.49474e-08
-5.69388e-07
6.31015e-08
-6.00998e-07
6.03642e-08
-6.30475e-07
5.67002e-08
-6.57333e-07
5.20909e-08
-6.81094e-07
4.6536e-08
-7.01295e-07
4.00559e-08
-7.17502e-07
3.26922e-08
-7.29321e-07
2.45094e-08
-7.36407e-07
1.55944e-08
-7.38473e-07
6.05705e-09
-7.35298e-07
-3.97277e-09
-7.26748e-07
-1.43494e-08
-7.12763e-07
-2.48983e-08
-6.93381e-07
-3.54394e-08
-6.68729e-07
-4.57799e-08
-6.39034e-07
-5.57203e-08
-6.04616e-07
-6.50593e-08
-5.65891e-07
-7.35994e-08
-5.2336e-07
-8.11526e-08
-4.77606e-07
-8.75462e-08
-4.29285e-07
-9.26292e-08
-3.79107e-07
-9.62777e-08
-3.27827e-07
-9.84002e-08
-2.76226e-07
-9.89424e-08
-2.25095e-07
-9.78901e-08
-1.7521e-07
-9.52712e-08
-1.27319e-07
-9.11562e-08
-8.21179e-08
-8.56566e-08
-4.02368e-08
-7.89214e-08
-2.22076e-09
-7.1132e-08
3.14843e-08
-6.24959e-08
6.05365e-08
-5.32368e-08
8.47087e-08
-4.35896e-08
1.03889e-07
-3.37879e-08
1.18077e-07
-2.40569e-08
1.27382e-07
-1.46064e-08
1.32011e-07
-5.62498e-09
1.32263e-07
2.72271e-09
1.28512e-07
1.0296e-08
1.21207e-07
1.69735e-08
1.10858e-07
2.26457e-08
9.8038e-08
2.7204e-08
8.33873e-08
3.05258e-08
6.76196e-08
3.24594e-08
5.15342e-08
3.28115e-08
3.60238e-08
3.13461e-08
2.20706e-08
2.78097e-08
1.07176e-08
2.19988e-08
3.01107e-09
1.39274e-08
4.34921e-09
1.44063e-09
-4.60108e-09
3.74544e-09
-8.66196e-09
5.66794e-09
-8.97585e-09
6.37745e-09
-6.6424e-09
5.30559e-09
-2.5266e-09
2.08163e-09
2.70198e-09
-3.51985e-09
8.55909e-09
-1.16225e-08
1.47198e-08
-2.22845e-08
2.09831e-08
-3.55254e-08
2.72397e-08
-5.13451e-08
3.34424e-08
-6.97357e-08
3.95828e-08
-9.06879e-08
4.56727e-08
-1.14192e-07
5.17297e-08
-1.40238e-07
5.77676e-08
-1.68808e-07
6.37887e-08
-1.99872e-07
6.97803e-08
-2.33382e-07
7.57114e-08
-2.69263e-07
8.15322e-08
-3.0741e-07
8.71748e-08
-3.47675e-07
9.25536e-08
-3.89869e-07
9.75681e-08
-4.33755e-07
1.02105e-07
-4.79043e-07
1.0604e-07
-5.25392e-07
1.09246e-07
-5.72411e-07
1.11588e-07
-6.19658e-07
1.12935e-07
-6.66645e-07
1.13163e-07
-7.12847e-07
1.12153e-07
-7.57704e-07
1.09804e-07
-8.00633e-07
1.0603e-07
-8.41036e-07
1.00768e-07
-8.78314e-07
9.39782e-08
-9.11875e-07
8.56516e-08
-9.41147e-07
7.58082e-08
-9.65592e-07
6.45007e-08
-9.84715e-07
5.18156e-08
-9.98079e-07
3.78734e-08
-1.00531e-06
2.28283e-08
-1.00612e-06
6.86743e-09
-1.0003e-06
-9.79913e-09
-9.87722e-07
-2.69243e-08
-9.68381e-07
-4.42393e-08
-9.42362e-07
-6.14592e-08
-9.09856e-07
-7.82851e-08
-8.71167e-07
-9.44101e-08
-8.26699e-07
-1.09527e-07
-7.76961e-07
-1.23337e-07
-7.22561e-07
-1.35553e-07
-6.64193e-07
-1.45915e-07
-6.02629e-07
-1.54193e-07
-5.3871e-07
-1.60197e-07
-4.73323e-07
-1.63787e-07
-4.07391e-07
-1.64874e-07
-3.41849e-07
-1.63432e-07
-2.77627e-07
-1.59494e-07
-2.15624e-07
-1.53159e-07
-1.56693e-07
-1.44588e-07
-1.01614e-07
-1.34e-07
-5.10793e-08
-1.21667e-07
-5.67464e-09
-1.07901e-07
3.41346e-08
-9.30461e-08
6.80111e-08
-7.74661e-08
9.57531e-08
-6.15299e-08
1.17295e-07
-4.55991e-08
1.32706e-07
-3.00168e-08
1.4218e-07
-1.50991e-08
1.46032e-07
-1.12919e-09
1.44684e-07
1.16438e-08
1.38658e-07
2.29994e-08
1.28566e-07
3.27374e-08
1.15108e-07
4.06628e-08
9.90657e-08
4.65677e-08
8.13129e-08
5.02122e-08
6.28146e-08
5.13099e-08
4.46332e-08
4.95275e-08
2.79299e-08
4.45129e-08
1.39632e-08
3.59655e-08
4.10407e-09
2.37865e-08
8.45328e-09
1.05307e-09
-5.65408e-09
2.31091e-09
-9.91978e-09
2.55677e-09
-9.22166e-09
9.89663e-10
-5.07526e-09
-2.92779e-09
1.39088e-09
-9.54371e-09
9.31789e-09
-1.90721e-08
1.80875e-08
-3.16361e-08
2.72838e-08
-4.7301e-08
3.6648e-08
-6.60974e-08
4.60361e-08
-8.80374e-08
5.53824e-08
-1.13123e-07
6.46688e-08
-1.41352e-07
7.39012e-08
-1.72713e-07
8.3091e-08
-2.07187e-07
9.22419e-08
-2.4474e-07
1.01341e-07
-2.85311e-07
1.10352e-07
-3.28814e-07
1.19215e-07
-3.75123e-07
1.27841e-07
-4.24065e-07
1.36117e-07
-4.75419e-07
1.43908e-07
-5.28908e-07
1.51057e-07
-5.84194e-07
1.57391e-07
-6.40882e-07
1.62728e-07
-6.98515e-07
1.66879e-07
-7.56583e-07
1.69655e-07
-8.14521e-07
1.70873e-07
-8.71721e-07
1.70364e-07
-9.27541e-07
1.67973e-07
-9.8131e-07
1.63573e-07
-1.03234e-06
1.57063e-07
-1.07995e-06
1.48378e-07
-1.12347e-06
1.3749e-07
-1.16222e-06
1.2441e-07
-1.19561e-06
1.09196e-07
-1.22306e-06
9.1947e-08
-1.24405e-06
7.28097e-08
-1.25815e-06
5.19739e-08
-1.265e-06
2.96736e-08
-1.26431e-06
6.18378e-09
-1.25592e-06
-1.81978e-08
-1.23972e-06
-4.31158e-08
-1.21576e-06
-6.82001e-08
-1.18416e-06
-9.30583e-08
-1.14517e-06
-1.17282e-07
-1.09912e-06
-1.40455e-07
-1.04649e-06
-1.62162e-07
-9.87826e-07
-1.81998e-07
-9.23801e-07
-1.99578e-07
-8.55168e-07
-2.14547e-07
-7.82768e-07
-2.26593e-07
-7.07511e-07
-2.35454e-07
-6.30367e-07
-2.40931e-07
-5.52347e-07
-2.42895e-07
-4.74483e-07
-2.41296e-07
-3.9781e-07
-2.36167e-07
-3.23343e-07
-2.27626e-07
-2.52054e-07
-2.15876e-07
-1.84851e-07
-2.01203e-07
-1.22555e-07
-1.83964e-07
-6.58775e-08
-1.64578e-07
-1.54098e-08
-1.43514e-07
2.83968e-08
-1.21273e-07
6.52374e-08
-9.83704e-08
9.49594e-08
-7.53211e-08
1.17564e-07
-5.26216e-08
1.33203e-07
-3.07376e-08
1.42169e-07
-1.00958e-08
1.44893e-07
8.91947e-09
1.41929e-07
2.59637e-08
1.33946e-07
4.07206e-08
1.21721e-07
5.28873e-08
1.06136e-07
6.21529e-08
8.81724e-08
6.81761e-08
6.89139e-08
7.05683e-08
4.95524e-08
6.8889e-08
3.13978e-08
6.26674e-08
1.59049e-08
5.14585e-08
4.73875e-09
3.49526e-08
1.3192e-08
4.57128e-10
-6.1112e-09
1.72985e-10
-9.63564e-09
-1.9234e-09
-7.12535e-09
-6.53084e-09
-4.67866e-10
-1.41032e-08
8.9632e-09
-2.49283e-08
2.0143e-08
-3.91815e-08
3.23407e-08
-5.69666e-08
4.50688e-08
-7.83436e-08
5.8025e-08
-1.03347e-07
7.10398e-08
-1.31998e-07
8.40329e-08
-1.64305e-07
9.69762e-08
-2.0027e-07
1.09865e-07
-2.39877e-07
1.22699e-07
-2.83096e-07
1.3546e-07
-3.29864e-07
1.4811e-07
-3.8009e-07
1.60577e-07
-4.33634e-07
1.72759e-07
-4.9031e-07
1.84516e-07
-5.49871e-07
1.95679e-07
-6.12011e-07
2.06048e-07
-6.76358e-07
2.15403e-07
-7.42472e-07
2.23505e-07
-8.09848e-07
2.30105e-07
-8.77921e-07
2.34952e-07
-9.46068e-07
2.37802e-07
-1.01362e-06
2.38424e-07
-1.07987e-06
2.3661e-07
-1.14407e-06
2.3218e-07
-1.20549e-06
2.24989e-07
-1.26336e-06
2.14938e-07
-1.31696e-06
2.01972e-07
-1.36556e-06
1.86088e-07
-1.40848e-06
1.67336e-07
-1.44511e-06
1.45821e-07
-1.47486e-06
1.21703e-07
-1.49725e-06
9.51984e-08
-1.51185e-06
6.65736e-08
-1.51832e-06
3.61478e-08
-1.51643e-06
4.28994e-09
-1.50601e-06
-2.86215e-08
-1.48701e-06
-6.2117e-08
-1.45948e-06
-9.57286e-08
-1.42358e-06
-1.28959e-07
-1.37956e-06
-1.61295e-07
-1.32781e-06
-1.92211e-07
-1.26878e-06
-2.21188e-07
-1.20306e-06
-2.47715e-07
-1.13134e-06
-2.71305e-07
-1.05438e-06
-2.91507e-07
-9.73052e-07
-3.07919e-07
-8.88306e-07
-3.20201e-07
-8.01152e-07
-3.28085e-07
-7.12657e-07
-3.3139e-07
-6.23921e-07
-3.30032e-07
-5.36059e-07
-3.24028e-07
-4.5018e-07
-3.13505e-07
-3.67359e-07
-2.98697e-07
-2.8862e-07
-2.79943e-07
-2.14902e-07
-2.57682e-07
-1.47045e-07
-2.32435e-07
-8.5764e-08
-2.04794e-07
-3.16342e-08
-1.75403e-07
1.4926e-08
-1.44931e-07
5.36616e-08
-1.14057e-07
8.44868e-08
-8.34468e-08
1.07485e-07
-5.37359e-08
1.22905e-07
-2.55158e-08
1.31154e-07
6.70957e-10
1.32785e-07
2.43326e-08
1.28492e-07
4.50133e-08
1.19097e-07
6.22821e-08
1.05543e-07
7.57074e-08
8.88865e-08
8.48323e-08
7.03017e-08
8.91532e-08
5.10828e-08
8.81079e-08
3.26659e-08
8.10843e-08
1.6671e-08
6.74534e-08
4.989e-09
4.66347e-08
1.81811e-08
-2.98936e-10
-5.81223e-09
-2.52317e-09
-7.41137e-09
-7.52045e-09
-2.12809e-09
-1.58162e-08
7.82787e-09
-2.77356e-08
2.08826e-08
-4.34711e-08
3.58786e-08
-6.31355e-08
5.20051e-08
-8.67957e-08
6.8729e-08
-1.14495e-07
8.57243e-08
-1.46264e-07
1.02809e-07
-1.82127e-07
1.19895e-07
-2.22096e-07
1.36945e-07
-2.6617e-07
1.5394e-07
-3.14327e-07
1.70856e-07
-3.66516e-07
1.87649e-07
-4.22645e-07
2.04239e-07
-4.82577e-07
2.20509e-07
-5.46115e-07
2.36298e-07
-6.13004e-07
2.51405e-07
-6.82918e-07
2.65592e-07
-7.55459e-07
2.7859e-07
-8.30159e-07
2.90103e-07
-9.06477e-07
2.99823e-07
-9.83807e-07
3.07435e-07
-1.06148e-06
3.12628e-07
-1.13879e-06
3.15108e-07
-1.21497e-06
3.14603e-07
-1.28924e-06
3.10878e-07
-1.3608e-06
3.03739e-07
-1.42885e-06
2.93043e-07
-1.49261e-06
2.78702e-07
-1.55133e-06
2.60687e-07
-1.60427e-06
2.39035e-07
-1.65078e-06
2.13845e-07
-1.69024e-06
1.8528e-07
-1.72211e-06
1.53568e-07
-1.74591e-06
1.18997e-07
-1.76125e-06
8.19113e-08
-1.76781e-06
4.27148e-08
-1.7654e-06
1.88107e-09
-1.75385e-06
-4.01757e-08
-1.73313e-06
-8.28405e-08
-1.70329e-06
-1.25567e-07
-1.66449e-06
-1.6776e-07
-1.61697e-06
-2.08807e-07
-1.5611e-06
-2.48082e-07
-1.49733e-06
-2.8496e-07
-1.42622e-06
-3.18826e-07
-1.34843e-06
-3.4909e-07
-1.26474e-06
-3.752e-07
-1.176e-06
-3.96657e-07
-1.08317e-06
-4.1303e-07
-9.87287e-07
-4.23972e-07
-8.89443e-07
-4.29234e-07
-7.90793e-07
-4.28682e-07
-6.9252e-07
-4.22301e-07
-5.95815e-07
-4.10209e-07
-5.01855e-07
-3.92657e-07
-4.11773e-07
-3.70025e-07
-3.26634e-07
-3.42821e-07
-2.47405e-07
-3.11664e-07
-1.74935e-07
-2.77264e-07
-1.0993e-07
-2.40408e-07
-5.29348e-08
-2.01925e-07
-4.32094e-09
-1.62671e-07
3.57239e-08
-1.23492e-07
6.71974e-08
-8.52095e-08
9.02827e-08
-4.8601e-08
1.05341e-07
-1.43877e-08
1.12907e-07
1.67669e-08
1.13672e-07
4.42485e-08
1.08477e-07
6.74769e-08
9.83026e-08
8.58818e-08
8.42601e-08
9.88748e-08
6.75906e-08
1.05823e-07
4.96723e-08
1.06026e-07
3.20441e-08
9.87125e-08
1.64519e-08
8.30455e-08
4.93382e-09
5.81528e-08
2.31149e-08
-1.18233e-09
-4.62994e-09
-5.67862e-09
-2.91506e-09
-1.40418e-08
6.23512e-09
-2.65724e-08
2.03585e-08
-4.34222e-08
3.77323e-08
-6.46587e-08
5.7115e-08
-9.03096e-08
7.7656e-08
-1.2039e-07
9.88097e-08
-1.54916e-07
1.20251e-07
-1.93908e-07
1.41801e-07
-2.37384e-07
1.63371e-07
-2.85356e-07
1.84917e-07
-3.37816e-07
2.064e-07
-3.94728e-07
2.27768e-07
-4.56015e-07
2.48936e-07
-5.21547e-07
2.69771e-07
-5.91135e-07
2.90097e-07
-6.64521e-07
3.09684e-07
-7.41373e-07
3.28257e-07
-8.21282e-07
3.45501e-07
-9.03762e-07
3.61069e-07
-9.88249e-07
3.7459e-07
-1.07411e-06
3.85684e-07
-1.16065e-06
3.93974e-07
-1.24712e-06
3.99097e-07
-1.33273e-06
4.00717e-07
-1.41666e-06
3.98534e-07
-1.49808e-06
3.92302e-07
-1.57617e-06
3.81826e-07
-1.6501e-06
3.66978e-07
-1.7191e-06
3.47698e-07
-1.78241e-06
3.23997e-07
-1.83933e-06
2.95958e-07
-1.88923e-06
2.63739e-07
-1.93151e-06
2.27564e-07
-1.96567e-06
1.87729e-07
-1.99127e-06
1.44592e-07
-2.00793e-06
9.85723e-08
-2.01535e-06
5.01375e-08
-2.01339e-06
-7.74128e-11
-2.0018e-06
-5.17684e-08
-1.98059e-06
-1.04048e-07
-1.94979e-06
-1.56366e-07
-1.90952e-06
-2.08031e-07
-1.85999e-06
-2.58336e-07
-1.80152e-06
-3.06558e-07
-1.7345e-06
-3.51971e-07
-1.65947e-06
-3.93856e-07
-1.57705e-06
-4.31517e-07
-1.48795e-06
-4.64294e-07
-1.39303e-06
-4.91581e-07
-1.29322e-06
-5.12843e-07
-1.18955e-06
-5.27638e-07
-1.08315e-06
-5.35633e-07
-9.75214e-07
-5.3662e-07
-8.66979e-07
-5.30536e-07
-7.5972e-07
-5.17468e-07
-6.54713e-07
-4.97664e-07
-5.53207e-07
-4.71531e-07
-4.56397e-07
-4.39631e-07
-3.65392e-07
-4.02669e-07
-2.81182e-07
-3.61474e-07
-2.0462e-07
-3.1697e-07
-1.36389e-07
-2.70156e-07
-7.6993e-08
-2.22067e-07
-2.67361e-08
-1.73748e-07
1.42785e-08
-1.26224e-07
4.61521e-08
-8.04747e-08
6.91862e-08
-3.74218e-08
8.38753e-08
2.0779e-09
9.08939e-08
3.72299e-08
9.10863e-08
6.72845e-08
8.54537e-08
9.15143e-08
7.51456e-08
1.09183e-07
6.14559e-08
1.19512e-07
4.58298e-08
1.21652e-07
2.98848e-08
1.14658e-07
1.54526e-08
9.74777e-08
4.64805e-09
6.89573e-08
2.77629e-08
-2.17413e-09
-2.45584e-09
-9.21707e-09
4.12786e-09
-2.13349e-08
1.83529e-08
-3.85536e-08
3.75772e-08
-6.08154e-08
5.9994e-08
-8.80355e-08
8.43352e-08
-1.20138e-07
1.09759e-07
-1.57074e-07
1.35746e-07
-1.98822e-07
1.61999e-07
-2.45383e-07
1.88362e-07
-2.96768e-07
2.14756e-07
-3.52978e-07
2.41127e-07
-4.13996e-07
2.67417e-07
-4.79762e-07
2.93535e-07
-5.50167e-07
3.19341e-07
-6.25038e-07
3.44642e-07
-7.04129e-07
3.69187e-07
-7.87113e-07
3.92668e-07
-8.73583e-07
4.14727e-07
-9.63047e-07
4.34965e-07
-1.05493e-06
4.52954e-07
-1.14859e-06
4.68249e-07
-1.24331e-06
4.80405e-07
-1.33832e-06
4.88987e-07
-1.43282e-06
4.93591e-07
-1.52596e-06
4.93854e-07
-1.61689e-06
4.89464e-07
-1.70476e-06
4.80175e-07
-1.78874e-06
4.6581e-07
-1.86803e-06
4.46268e-07
-1.94186e-06
4.21528e-07
-2.00952e-06
3.9165e-07
-2.07033e-06
3.56769e-07
-2.12369e-06
3.17102e-07
-2.16906e-06
2.72936e-07
-2.20596e-06
2.24627e-07
-2.23397e-06
1.726e-07
-2.25273e-06
1.17337e-07
-2.26197e-06
5.9379e-08
-2.26142e-06
-6.30847e-10
-2.251e-06
-6.21897e-08
-2.23058e-06
-1.24473e-07
-2.20015e-06
-1.86795e-07
-2.15978e-06
-2.48395e-07
-2.10964e-06
-3.0848e-07
-2.04996e-06
-3.66238e-07
-1.98109e-06
-4.20844e-07
-1.90347e-06
-4.71475e-07
-1.81766e-06
-5.17325e-07
-1.72433e-06
-5.57618e-07
-1.62429e-06
-5.91629e-07
-1.51842e-06
-6.18708e-07
-1.40776e-06
-6.38297e-07
-1.29344e-06
-6.49958e-07
-1.17667e-06
-6.53388e-07
-1.05876e-06
-6.48449e-07
-9.41049e-07
-6.35174e-07
-8.24928e-07
-6.13785e-07
-7.11765e-07
-5.84693e-07
-6.02895e-07
-5.48501e-07
-4.99579e-07
-5.05986e-07
-4.02968e-07
-4.58084e-07
-3.14076e-07
-4.05862e-07
-2.33746e-07
-3.50486e-07
-1.62628e-07
-2.93185e-07
-1.01162e-07
-2.35215e-07
-4.95676e-08
-1.77818e-07
-7.84064e-09
-1.22202e-07
2.42463e-08
-6.95088e-08
4.71351e-08
-2.08109e-08
6.14713e-08
2.28937e-08
6.80899e-08
6.06659e-08
6.80025e-08
9.16017e-08
6.23856e-08
1.148e-07
5.25747e-08
1.29323e-07
4.00673e-08
1.3416e-07
2.65379e-08
1.28187e-07
1.38688e-08
1.10147e-07
4.19776e-09
7.86284e-08
3.19607e-08
-3.25848e-09
8.02652e-10
-1.30778e-08
1.39472e-08
-2.92692e-08
3.45443e-08
-5.1543e-08
5.9851e-08
-7.96002e-08
8.80512e-08
-1.13181e-07
1.17916e-07
-1.52092e-07
1.48669e-07
-1.96206e-07
1.7986e-07
-2.45459e-07
2.11251e-07
-2.99826e-07
2.42729e-07
-3.59302e-07
2.74232e-07
-4.23876e-07
3.05702e-07
-4.93511e-07
3.37052e-07
-5.6812e-07
3.68144e-07
-6.47555e-07
3.98776e-07
-7.31593e-07
4.2868e-07
-8.19928e-07
4.57522e-07
-9.12164e-07
4.84904e-07
-1.00782e-06
5.10381e-07
-1.10632e-06
5.33467e-07
-1.20702e-06
5.53656e-07
-1.3092e-06
5.70432e-07
-1.41209e-06
5.83291e-07
-1.51486e-06
5.91756e-07
-1.61666e-06
5.95394e-07
-1.71664e-06
5.93829e-07
-1.81393e-06
5.86753e-07
-1.90769e-06
5.73935e-07
-1.9971e-06
5.55227e-07
-2.0814e-06
5.30568e-07
-2.15986e-06
4.99983e-07
-2.23179e-06
4.63583e-07
-2.29658e-06
4.21559e-07
-2.35366e-06
3.74182e-07
-2.40252e-06
3.21795e-07
-2.4427e-06
2.6481e-07
-2.47381e-06
2.03704e-07
-2.49548e-06
1.39014e-07
-2.50744e-06
7.13321e-08
-2.5094e-06
1.33279e-09
-2.50122e-06
-7.03667e-08
-2.48276e-06
-1.42941e-07
-2.45393e-06
-2.15624e-07
-2.41474e-06
-2.87583e-07
-2.36527e-06
-3.57952e-07
-2.30568e-06
-4.25831e-07
-2.23622e-06
-4.90303e-07
-2.15725e-06
-5.50441e-07
-2.06925e-06
-6.05325e-07
-1.97281e-06
-6.54057e-07
-1.86866e-06
-6.95784e-07
-1.75764e-06
-7.29723e-07
-1.64076e-06
-7.55181e-07
-1.51912e-06
-7.71592e-07
-1.39398e-06
-7.78534e-07
-1.26666e-06
-7.75763e-07
-1.13861e-06
-7.6323e-07
-1.01129e-06
-7.41103e-07
-8.86208e-07
-7.09773e-07
-7.64853e-07
-6.69856e-07
-6.48652e-07
-6.22187e-07
-5.38937e-07
-5.67799e-07
-4.36904e-07
-5.07895e-07
-3.43575e-07
-4.43815e-07
-2.59773e-07
-3.76988e-07
-1.86094e-07
-3.08894e-07
-1.22894e-07
-2.41018e-07
-7.02838e-08
-1.74812e-07
-2.81241e-08
-1.11668e-07
3.96184e-09
-5.28968e-08
2.65799e-08
2.75657e-10
4.05465e-08
4.66993e-08
4.68763e-08
8.52719e-08
4.67654e-08
1.14911e-07
4.15822e-08
1.34506e-07
3.28645e-08
1.42877e-07
2.23267e-08
1.38725e-07
1.18763e-08
1.20597e-07
3.63954e-09
8.68651e-08
3.56002e-08
-4.42132e-09
5.22397e-09
-1.72057e-08
2.67315e-08
-3.77243e-08
5.50629e-08
-6.53372e-08
8.74639e-08
-9.94779e-08
1.22192e-07
-1.39694e-07
1.58132e-07
-1.85658e-07
1.94634e-07
-2.37163e-07
2.31364e-07
-2.9409e-07
2.68179e-07
-3.56386e-07
3.05025e-07
-4.24025e-07
3.41871e-07
-4.96976e-07
3.78653e-07
-5.75176e-07
4.15251e-07
-6.58505e-07
4.51473e-07
-7.46772e-07
4.87043e-07
-8.397e-07
5.21609e-07
-9.3692e-07
5.54742e-07
-1.03797e-06
5.85953e-07
-1.14229e-06
6.14705e-07
-1.24925e-06
6.40428e-07
-1.35814e-06
6.6254e-07
-1.46817e-06
6.80464e-07
-1.57853e-06
6.9365e-07
-1.68836e-06
7.01591e-07
-1.79681e-06
7.0384e-07
-1.903e-06
7.00023e-07
-2.0061e-06
6.8985e-07
-2.10529e-06
6.73119e-07
-2.19978e-06
6.49721e-07
-2.28885e-06
6.19641e-07
-2.37182e-06
5.82951e-07
-2.44805e-06
5.39816e-07
-2.51697e-06
4.90477e-07
-2.57804e-06
4.35255e-07
-2.63079e-06
3.7454e-07
-2.67477e-06
3.0879e-07
-2.70959e-06
2.38524e-07
-2.73489e-06
1.64318e-07
-2.75037e-06
8.68084e-08
-2.75572e-06
6.68724e-09
-2.75076e-06
-7.5332e-08
-2.73527e-06
-1.5843e-07
-2.70912e-06
-2.41771e-07
-2.67224e-06
-3.24466e-07
-2.62461e-06
-4.05579e-07
-2.56631e-06
-4.84137e-07
-2.49748e-06
-5.59133e-07
-2.41838e-06
-6.2954e-07
-2.32938e-06
-6.94323e-07
-2.23098e-06
-7.52458e-07
-2.12381e-06
-8.02956e-07
-2.00865e-06
-8.44884e-07
-1.88643e-06
-8.774e-07
-1.75824e-06
-8.99783e-07
-1.62531e-06
-9.11463e-07
-1.48901e-06
-9.1206e-07
-1.35083e-06
-9.01408e-07
-1.21235e-06
-8.79586e-07
-1.0752e-06
-8.46929e-07
-9.41008e-07
-8.04042e-07
-8.11404e-07
-7.51791e-07
-6.87913e-07
-6.9129e-07
-5.7194e-07
-6.23868e-07
-4.64718e-07
-5.51038e-07
-3.67267e-07
-4.74439e-07
-2.80369e-07
-3.95792e-07
-2.04542e-07
-3.16844e-07
-1.40033e-07
-2.39321e-07
-8.68117e-08
-1.6489e-07
-4.45799e-08
-9.51286e-08
-1.27847e-08
-3.15195e-08
9.36633e-09
2.45482e-08
2.28829e-08
7.17554e-08
2.89752e-08
1.08818e-07
2.90385e-08
1.34443e-07
2.46435e-08
1.47272e-07
1.75333e-08
1.45835e-07
9.62602e-09
1.28504e-07
3.02052e-09
9.34706e-08
3.86207e-08
-5.64979e-09
1.08737e-08
-2.15457e-08
4.26274e-08
-4.65811e-08
8.00983e-08
-7.97355e-08
1.20618e-07
-1.20154e-07
1.6261e-07
-1.67176e-07
2.05154e-07
-2.20334e-07
2.47793e-07
-2.7933e-07
2.9036e-07
-3.43991e-07
3.3284e-07
-4.14228e-07
3.75262e-07
-4.89989e-07
4.17631e-07
-5.71217e-07
4.59881e-07
-6.57819e-07
5.01853e-07
-7.49637e-07
5.43291e-07
-8.46432e-07
5.83839e-07
-9.47872e-07
6.23048e-07
-1.05353e-06
6.60395e-07
-1.16287e-06
6.95294e-07
-1.27528e-06
7.27116e-07
-1.39006e-06
7.55212e-07
-1.50646e-06
7.78933e-07
-1.62364e-06
7.97653e-07
-1.74078e-06
8.10789e-07
-1.85701e-06
8.17818e-07
-1.97147e-06
8.18295e-07
-2.0833e-06
8.11862e-07
-2.19171e-06
7.98257e-07
-2.29591e-06
7.77317e-07
-2.39516e-06
7.48977e-07
-2.48879e-06
7.13271e-07
-2.57616e-06
6.70321e-07
-2.65669e-06
6.20338e-07
-2.72982e-06
5.63612e-07
-2.79507e-06
5.00504e-07
-2.85197e-06
4.31444e-07
-2.90011e-06
3.56924e-07
-2.93908e-06
2.77495e-07
-2.96853e-06
1.93765e-07
-2.98811e-06
1.06397e-07
-2.99753e-06
1.61073e-08
-2.99653e-06
-7.63416e-08
-2.98484e-06
-1.70114e-07
-2.96228e-06
-2.64332e-07
-2.92869e-06
-3.58058e-07
-2.88396e-06
-4.50303e-07
-2.82807e-06
-5.40027e-07
-2.76106e-06
-6.26144e-07
-2.68307e-06
-7.07533e-07
-2.59434e-06
-7.83051e-07
-2.49526e-06
-8.51547e-07
-2.38632e-06
-9.11888e-07
-2.26822e-06
-9.62987e-07
-2.14179e-06
-1.00383e-06
-2.00805e-06
-1.03352e-06
-1.8682e-06
-1.05131e-06
-1.72361e-06
-1.05665e-06
-1.57581e-06
-1.04921e-06
-1.42644e-06
-1.02895e-06
-1.27726e-06
-9.96105e-07
-1.13008e-06
-9.51222e-07
-9.86707e-07
-8.95169e-07
-8.48883e-07
-8.29114e-07
-7.18253e-07
-7.54499e-07
-5.96288e-07
-6.73002e-07
-4.84248e-07
-5.86479e-07
-3.83134e-07
-4.96906e-07
-2.9366e-07
-4.06318e-07
-2.1624e-07
-3.16742e-07
-1.50978e-07
-2.30152e-07
-9.76736e-08
-1.48433e-07
-5.58409e-08
-7.33522e-08
-2.47241e-08
-6.56857e-09
-3.32376e-09
5.03551e-08
9.57994e-09
9.59147e-08
1.54056e-08
1.28617e-07
1.57527e-08
1.46925e-07
1.2389e-08
1.49199e-07
7.24016e-09
1.33653e-07
2.37826e-09
9.83325e-08
4.0999e-08
-6.92793e-09
1.78016e-08
-2.60396e-08
6.17392e-08
-5.57165e-08
1.09775e-07
-9.45333e-08
1.59435e-07
-1.4133e-07
2.09406e-07
-1.95229e-07
2.59053e-07
-2.55616e-07
3.0818e-07
-3.22097e-07
3.56841e-07
-3.94442e-07
4.05184e-07
-4.72521e-07
4.53342e-07
-5.56253e-07
5.01363e-07
-6.45551e-07
5.49178e-07
-7.40286e-07
5.96588e-07
-8.40258e-07
6.43264e-07
-9.45178e-07
6.88759e-07
-1.05466e-06
7.32528e-07
-1.16821e-06
7.73945e-07
-1.28524e-06
8.1233e-07
-1.40509e-06
8.46967e-07
-1.52702e-06
8.77136e-07
-1.65022e-06
9.02131e-07
-1.77385e-06
9.2129e-07
-1.89707e-06
9.3401e-07
-2.01902e-06
9.39768e-07
-2.13886e-06
9.38133e-07
-2.25577e-06
9.28775e-07
-2.36899e-06
9.11469e-07
-2.47777e-06
8.86096e-07
-2.58143e-06
8.52639e-07
-2.67934e-06
8.11179e-07
-2.7709e-06
7.61886e-07
-2.85558e-06
7.05015e-07
-2.93286e-06
6.40893e-07
-3.00228e-06
5.69921e-07
-3.06339e-06
4.92558e-07
-3.11579e-06
4.09325e-07
-3.15909e-06
3.20796e-07
-3.19293e-06
2.27602e-07
-3.21696e-06
1.30424e-07
-3.23085e-06
2.99971e-08
-3.2343e-06
-7.28903e-08
-3.22702e-06
-1.77388e-07
-3.20877e-06
-2.82588e-07
-3.1793e-06
-3.87524e-07
-3.13844e-06
-4.91166e-07
-3.08604e-06
-5.92423e-07
-3.02204e-06
-6.90144e-07
-2.94645e-06
-7.83128e-07
-2.85937e-06
-8.70131e-07
-2.76103e-06
-9.49883e-07
-2.65181e-06
-1.02111e-06
-2.53224e-06
-1.08256e-06
-2.40303e-06
-1.13304e-06
-2.26509e-06
-1.17145e-06
-2.11956e-06
-1.19685e-06
-1.96774e-06
-1.20847e-06
-1.81117e-06
-1.20578e-06
-1.65156e-06
-1.18856e-06
-1.49076e-06
-1.15691e-06
-1.33073e-06
-1.11126e-06
-1.17346e-06
-1.05244e-06
-1.02095e-06
-9.81625e-07
-8.75094e-07
-9.00353e-07
-7.37647e-07
-8.10448e-07
-6.10143e-07
-7.13983e-07
-4.93847e-07
-6.13202e-07
-3.89716e-07
-5.10449e-07
-2.98368e-07
-4.08089e-07
-2.20078e-07
-3.08443e-07
-1.54772e-07
-2.13739e-07
-1.0205e-07
-1.26073e-07
-6.12093e-08
-4.74097e-08
-3.12681e-08
2.04139e-08
-1.10018e-08
7.56485e-08
1.0294e-09
1.16586e-07
6.45448e-09
1.415e-07
7.06833e-09
1.48585e-07
4.81043e-09
1.35911e-07
1.74052e-09
1.01402e-07
4.27395e-08
-8.23843e-09
2.60401e-08
-3.06248e-08
8.41256e-08
-6.50011e-08
1.44151e-07
-1.09519e-07
2.03953e-07
-1.62703e-07
2.6259e-07
-2.23451e-07
3.19801e-07
-2.90999e-07
3.75728e-07
-3.64856e-07
4.30698e-07
-4.44729e-07
4.85058e-07
-5.30449e-07
5.39061e-07
-6.21897e-07
5.92811e-07
-7.18953e-07
6.46235e-07
-8.2145e-07
6.99085e-07
-9.29142e-07
7.50956e-07
-1.04169e-06
8.01306e-07
-1.15865e-06
8.49488e-07
-1.27948e-06
8.94777e-07
-1.40355e-06
9.36397e-07
-1.53014e-06
9.73556e-07
-1.65847e-06
1.00547e-06
-1.78773e-06
1.03139e-06
-1.91708e-06
1.05064e-06
-2.04566e-06
1.06259e-06
-2.17264e-06
1.06675e-06
-2.29721e-06
1.0627e-06
-2.41859e-06
1.05016e-06
-2.53605e-06
1.02893e-06
-2.64891e-06
9.98949e-07
-2.75651e-06
9.60246e-07
-2.85828e-06
9.12948e-07
-2.95367e-06
8.5727e-07
-3.04216e-06
7.93505e-07
-3.12328e-06
7.22018e-07
-3.1966e-06
6.43239e-07
-3.2617e-06
5.57657e-07
-3.31819e-06
4.65815e-07
-3.3657e-06
3.68308e-07
-3.40388e-06
2.65779e-07
-3.43238e-06
1.58924e-07
-3.45087e-06
4.84887e-08
-3.45903e-06
-6.47279e-08
-3.45655e-06
-1.79868e-07
-3.44313e-06
-2.96014e-07
-3.41847e-06
-4.12182e-07
-3.38231e-06
-5.27322e-07
-3.33442e-06
-6.4031e-07
-3.27462e-06
-7.49951e-07
-3.20276e-06
-8.54981e-07
-3.11882e-06
-9.54074e-07
-3.02285e-06
-1.04585e-06
-2.91505e-06
-1.12891e-06
-2.79577e-06
-1.20184e-06
-2.66556e-06
-1.26325e-06
-2.52518e-06
-1.31184e-06
-2.37561e-06
-1.34642e-06
-2.21809e-06
-1.36599e-06
-2.0541e-06
-1.36977e-06
-1.88534e-06
-1.35732e-06
-1.71375e-06
-1.3285e-06
-1.5414e-06
-1.28361e-06
-1.37048e-06
-1.22335e-06
-1.20323e-06
-1.14888e-06
-1.04183e-06
-1.06176e-06
-8.88334e-07
-9.6394e-07
-7.44611e-07
-8.57706e-07
-6.1224e-07
-7.45573e-07
-4.92471e-07
-6.30218e-07
-3.86183e-07
-5.14377e-07
-2.93863e-07
-4.00763e-07
-2.15606e-07
-2.91996e-07
-1.51128e-07
-1.9055e-07
-9.9798e-08
-9.874e-08
-6.06665e-08
-1.87176e-08
-3.25103e-08
4.74923e-08
-1.38688e-08
9.79447e-08
-3.08026e-09
1.30712e-07
1.68551e-09
1.43819e-07
2.39711e-09
1.352e-07
1.12517e-09
1.02674e-07
4.38647e-08
-9.56206e-09
3.56021e-08
-3.52337e-08
1.09797e-07
-7.42984e-08
1.83216e-07
-1.24474e-07
2.54128e-07
-1.83962e-07
3.22078e-07
-2.51436e-07
3.87275e-07
-3.25979e-07
4.50271e-07
-4.07003e-07
5.11722e-07
-4.9415e-07
5.72205e-07
-5.87207e-07
6.32118e-07
-6.86018e-07
6.91622e-07
-7.90425e-07
7.50642e-07
-9.00218e-07
8.08878e-07
-1.01511e-06
8.65844e-07
-1.1347e-06
9.209e-07
-1.25851e-06
9.73294e-07
-1.38593e-06
1.0222e-06
-1.51631e-06
1.06677e-06
-1.64888e-06
1.10613e-06
-1.78285e-06
1.13944e-06
-1.9174e-06
1.16594e-06
-2.05168e-06
1.18492e-06
-2.18486e-06
1.19577e-06
-2.31613e-06
1.19802e-06
-2.44472e-06
1.19129e-06
-2.56988e-06
1.17532e-06
-2.69092e-06
1.14997e-06
-2.80721e-06
1.11523e-06
-2.91814e-06
1.07118e-06
-3.02316e-06
1.01797e-06
-3.12177e-06
9.55876e-07
-3.21349e-06
8.85224e-07
-3.29788e-06
8.06415e-07
-3.37455e-06
7.19909e-07
-3.44312e-06
6.26222e-07
-3.50322e-06
5.25918e-07
-3.55452e-06
4.19608e-07
-3.59669e-06
3.07951e-07
-3.62942e-06
1.91647e-07
-3.65237e-06
7.14457e-08
-3.66525e-06
-5.18548e-08
-3.66771e-06
-1.77401e-07
-3.65945e-06
-3.0428e-07
-3.64012e-06
-4.31514e-07
-3.60939e-06
-5.5805e-07
-3.56694e-06
-6.82757e-07
-3.51247e-06
-8.04419e-07
-3.44572e-06
-9.21735e-07
-3.36647e-06
-1.03332e-06
-3.27462e-06
-1.13771e-06
-3.17014e-06
-1.23339e-06
-3.05319e-06
-1.31879e-06
-2.92409e-06
-1.39235e-06
-2.7834e-06
-1.45253e-06
-2.6319e-06
-1.49791e-06
-2.47069e-06
-1.5272e-06
-2.30112e-06
-1.53934e-06
-2.12486e-06
-1.53358e-06
-1.94384e-06