/*--------------------------------*- C++ -*----------------------------------*\
  =========                 |
  \\      /  F ield         | OpenFOAM: The Open Source CFD Toolbox
   \\    /   O peration     | Website:  https://openfoam.org
    \\  /    A nd           | Version:  7
     \\/     M anipulation  |
\*---------------------------------------------------------------------------*/
FoamFile
{
    version     2.0;
    format      ascii;
    class       volVectorField;
    location    "4";
    object      U;
}
// * * * * * * * * * * * * * * * * * * * * * * * * * * * * * * * * * * * * * //

dimensions      [0 1 -1 0 0 0 0];

internalField   nonuniform List<vector> 
6400
(
(1.0866e-05 -1.03062e-05 0)
(7.27907e-05 -3.82484e-05 0)
(0.000187454 -5.03717e-05 0)
(0.000310013 -4.94774e-05 0)
(0.000414867 -4.15333e-05 0)
(0.000489313 -3.03537e-05 0)
(0.000527184 -1.8098e-05 0)
(0.000526282 -5.91781e-06 0)
(0.00048669 5.66238e-06 0)
(0.000409566 1.64879e-05 0)
(0.000296381 2.66121e-05 0)
(0.000148486 3.61922e-05 0)
(-3.31124e-05 4.54281e-05 0)
(-0.000247832 5.45203e-05 0)
(-0.000495504 6.36451e-05 0)
(-0.000776302 7.29422e-05 0)
(-0.00109063 8.2507e-05 0)
(-0.00143898 9.23878e-05 0)
(-0.00182181 0.000102586 0)
(-0.0022394 0.000113055 0)
(-0.00269171 0.000123708 0)
(-0.00317827 0.000134413 0)
(-0.00369803 0.000145003 0)
(-0.00424928 0.000155276 0)
(-0.00482959 0.000164995 0)
(-0.00543566 0.000173897 0)
(-0.00606332 0.000181694 0)
(-0.00670748 0.000188076 0)
(-0.00736211 0.000192725 0)
(-0.00802021 0.000195313 0)
(-0.00867393 0.000195518 0)
(-0.00931454 0.000193029 0)
(-0.0099326 0.000187564 0)
(-0.0105181 0.000178878 0)
(-0.0110605 0.000166778 0)
(-0.0115491 0.000151136 0)
(-0.0119731 0.000131902 0)
(-0.0123223 0.000109119 0)
(-0.0125865 8.29306e-05 0)
(-0.0127568 5.35888e-05 0)
(-0.0128253 2.14726e-05 0)
(-0.0127854 -1.2859e-05 0)
(-0.0126324 -4.89175e-05 0)
(-0.0123636 -8.5967e-05 0)
(-0.0119787 -0.000123192 0)
(-0.0114796 -0.000159717 0)
(-0.0108708 -0.000194624 0)
(-0.0101595 -0.000226978 0)
(-0.00935542 -0.000255864 0)
(-0.00847067 -0.000280427 0)
(-0.0075196 -0.000299903 0)
(-0.00651841 -0.000313666 0)
(-0.00548478 -0.000321257 0)
(-0.00443734 -0.000322412 0)
(-0.00339518 -0.000317083 0)
(-0.00237723 -0.000305443 0)
(-0.00140164 -0.000287884 0)
(-0.000485239 -0.000265013 0)
(0.000356897 -0.000237646 0)
(0.00111203 -0.000206599 0)
(0.00177014 -0.000172936 0)
(0.00232395 -0.000137703 0)
(0.00276917 -0.000101927 0)
(0.00310439 -6.65759e-05 0)
(0.00333095 -3.25186e-05 0)
(0.00345266 -4.8456e-07 0)
(0.00347543 2.89531e-05 0)
(0.00340691 5.53831e-05 0)
(0.0032561 7.85424e-05 0)
(0.00303296 9.82807e-05 0)
(0.00274827 0.000114503 0)
(0.00241348 0.000127084 0)
(0.00204095 0.00013574 0)
(0.00164445 0.000139861 0)
(0.00124004 0.000138279 0)
(0.000847499 0.00012903 0)
(0.00049182 0.000109238 0)
(0.00020381 7.52506e-05 0)
(1.94478e-05 2.53782e-05 0)
(-2.10179e-05 -2.1154e-05 0)
(3.9327e-05 -7.25827e-05 0)
(0.000180849 -0.000179053 0)
(0.000400219 -0.00021823 0)
(0.000618414 -0.000204853 0)
(0.000787621 -0.00015892 0)
(0.000880995 -9.5074e-05 0)
(0.0008828 -2.28907e-05 0)
(0.000785224 5.18027e-05 0)
(0.0005857 0.000125825 0)
(0.000284597 0.000197764 0)
(-0.00011642 0.000267318 0)
(-0.000615415 0.000334822 0)
(-0.00121077 0.000400923 0)
(-0.00190146 0.000466351 0)
(-0.00268704 0.000531766 0)
(-0.00356758 0.000597659 0)
(-0.00454336 0.000664301 0)
(-0.00561459 0.000731704 0)
(-0.0067811 0.000799621 0)
(-0.008042 0.000867537 0)
(-0.00939531 0.000934691 0)
(-0.0108377 0.00100009 0)
(-0.0123642 0.00106252 0)
(-0.013968 0.00112061 0)
(-0.01564 0.0011728 0)
(-0.0173693 0.00121742 0)
(-0.0191423 0.00125273 0)
(-0.0209432 0.00127691 0)
(-0.0227541 0.00128818 0)
(-0.0245547 0.00128478 0)
(-0.0263226 0.00126509 0)
(-0.0280341 0.00122765 0)
(-0.0296638 0.00117123 0)
(-0.0311854 0.00109491 0)
(-0.0325721 0.000998134 0)
(-0.0337972 0.000880773 0)
(-0.0348348 0.000743169 0)
(-0.03566 0.000586186 0)
(-0.0362502 0.000411238 0)
(-0.0365853 0.000220289 0)
(-0.0366486 1.58954e-05 0)
(-0.0364272 -0.000198559 0)
(-0.0359126 -0.000419695 0)
(-0.0351017 -0.000643402 0)
(-0.0339966 -0.000865182 0)
(-0.032605 -0.0010803 0)
(-0.0309406 -0.00128388 0)
(-0.029023 -0.00147108 0)
(-0.0268773 -0.00163721 0)
(-0.024534 -0.00177796 0)
(-0.0220282 -0.00188952 0)
(-0.0193993 -0.00196876 0)
(-0.0166897 -0.00201342 0)
(-0.0139438 -0.00202218 0)
(-0.0112073 -0.00199476 0)
(-0.00852518 -0.00193201 0)
(-0.00594135 -0.00183581 0)
(-0.00349673 -0.00170913 0)
(-0.00122841 -0.00155586 0)
(0.00083136 -0.00138048 0)
(0.00265615 -0.00118815 0)
(0.00422586 -0.000984382 0)
(0.00552705 -0.000774676 0)
(0.00655302 -0.000564391 0)
(0.00730369 -0.000358511 0)
(0.00778511 -0.00016147 0)
(0.00800892 2.29658e-05 0)
(0.00799162 0.000191738 0)
(0.00775381 0.000342454 0)
(0.00731954 0.000473241 0)
(0.00671584 0.000582498 0)
(0.00597253 0.000668524 0)
(0.0051225 0.000729029 0)
(0.00420244 0.000760535 0)
(0.00325408 0.000757743 0)
(0.00232577 0.000713124 0)
(0.00147296 0.000617338 0)
(0.000756358 0.000461209 0)
(0.000245995 0.000244633 0)
(2.60303e-05 1.96619e-05 0)
(5.23497e-05 -0.000189827 0)
(0.000221336 -0.000399546 0)
(0.00045945 -0.000458832 0)
(0.000670035 -0.000406476 0)
(0.000795741 -0.000280368 0)
(0.000803341 -0.000110129 0)
(0.000671911 8.33226e-05 0)
(0.000389776 0.000286352 0)
(-4.82267e-05 0.000490916 0)
(-0.000643349 0.000692947 0)
(-0.00139487 0.00089102 0)
(-0.00230138 0.00108532 0)
(-0.00336148 0.00127687 0)
(-0.00457419 0.00146694 0)
(-0.00593892 0.00165671 0)
(-0.00745531 0.00184695 0)
(-0.00912291 0.00203788 0)
(-0.0109407 0.00222908 0)
(-0.0129068 0.00241945 0)
(-0.0150176 0.00260723 0)
(-0.0172679 0.00279 0)
(-0.0196498 0.00296476 0)
(-0.0221531 0.00312799 0)
(-0.0247642 0.00327572 0)
(-0.0274666 0.00340366 0)
(-0.0302403 0.00350725 0)
(-0.0330619 0.00358183 0)
(-0.0359048 0.00362273 0)
(-0.0387392 0.00362542 0)
(-0.0415326 0.00358567 0)
(-0.0442499 0.00349968 0)
(-0.0468542 0.00336425 0)
(-0.0493072 0.00317694 0)
(-0.05157 0.0029362 0)
(-0.0536039 0.00264152 0)
(-0.055371 0.00229354 0)
(-0.0568353 0.00189416 0)
(-0.0579634 0.00144659 0)
(-0.0587256 0.000955394 0)
(-0.0590963 0.000426471 0)
(-0.0590551 -0.000132969 0)
(-0.0585877 -0.000714228 0)
(-0.0576862 -0.00130784 0)
(-0.0563497 -0.00190329 0)
(-0.0545847 -0.0024893 0)
(-0.0524053 -0.00305414 0)
(-0.0498335 -0.00358592 0)
(-0.0468988 -0.0040729 0)
(-0.043638 -0.00450388 0)
(-0.0400946 -0.00486858 0)
(-0.0363185 -0.00515798 0)
(-0.0323644 -0.00536471 0)
(-0.0282913 -0.00548335 0)
(-0.024161 -0.00551074 0)
(-0.0200367 -0.00544615 0)
(-0.0159813 -0.00529136 0)
(-0.0120563 -0.00505075 0)
(-0.00831978 -0.00473111 0)
(-0.00482504 -0.00434145 0)
(-0.00161933 -0.00389265 0)
(0.00125737 -0.00339699 0)
(0.00377338 -0.00286776 0)
(0.00590594 -0.00231867 0)
(0.0076414 -0.00176325 0)
(0.00897535 -0.0012144 0)
(0.00991226 -0.000683946 0)
(0.010465 -0.000182358 0)
(0.0106538 0.000281424 0)
(0.010506 0.000699918 0)
(0.0100545 0.00106683 0)
(0.00933771 0.00137655 0)
(0.00839908 0.00162338 0)
(0.00728699 0.00180059 0)
(0.00605537 0.00189939 0)
(0.00476463 0.00190799 0)
(0.00348262 0.00181148 0)
(0.00228385 0.0015934 0)
(0.00124642 0.00124056 0)
(0.00046585 0.000756401 0)
(7.68886e-05 0.000206145 0)
(5.17366e-05 -0.000315226 0)
(0.000204017 -0.000615673 0)
(0.000391227 -0.000666836 0)
(0.000512058 -0.00053964 0)
(0.000506839 -0.000292583 0)
(0.00034067 2.86813e-05 0)
(-8.96301e-06 0.000391173 0)
(-0.000555342 0.000772821 0)
(-0.00130516 0.00116013 0)
(-0.00226106 0.00154586 0)
(-0.00342353 0.00192706 0)
(-0.00479208 0.0023034 0)
(-0.00636595 0.00267598 0)
(-0.00814442 0.00304633 0)
(-0.0101267 0.00341574 0)
(-0.0123118 0.00378483 0)
(-0.014698 0.00415325 0)
(-0.0172822 0.00451949 0)
(-0.0200597 0.00488084 0)
(-0.0230234 0.00523339 0)
(-0.0261633 0.0055721 0)
(-0.0294661 0.00589094 0)
(-0.0329147 0.00618299 0)
(-0.036488 0.00644063 0)
(-0.0401609 0.00665575 0)
(-0.0439041 0.00681996 0)
(-0.0476841 0.00692484 0)
(-0.0514637 0.00696215 0)
(-0.0552022 0.00692413 0)
(-0.0588559 0.00680379 0)
(-0.0623791 0.00659514 0)
(-0.0657243 0.00629345 0)
(-0.0688433 0.00589554 0)
(-0.0716883 0.00539999 0)
(-0.0742125 0.00480729 0)
(-0.0763712 0.00412005 0)
(-0.0781229 0.00334307 0)
(-0.0794302 0.00248343 0)
(-0.0802603 0.00155046 0)
(-0.0805868 0.000555656 0)
(-0.080389 -0.00048743 0)
(-0.0796539 -0.00156323 0)
(-0.0783762 -0.00265451 0)
(-0.0765588 -0.00374275 0)
(-0.0742127 -0.00480841 0)
(-0.0713577 -0.00583137 0)
(-0.0680223 -0.00679142 0)
(-0.0642431 -0.00766875 0)
(-0.0600649 -0.00844457 0)
(-0.0555399 -0.00910162 0)
(-0.050727 -0.00962479 0)
(-0.045691 -0.0100017 0)
(-0.0405012 -0.0102231 0)
(-0.0352305 -0.0102835 0)
(-0.0299535 -0.0101813 0)
(-0.0247452 -0.00991924 0)
(-0.0196792 -0.00950406 0)
(-0.0148259 -0.00894675 0)
(-0.010251 -0.00826206 0)
(-0.00601379 -0.00746804 0)
(-0.00216566 -0.0065854 0)
(0.00125105 -0.00563672 0)
(0.00420407 -0.00464566 0)
(0.00667178 -0.003636 0)
(0.00864347 -0.00263085 0)
(0.0101193 -0.00165186 0)
(0.01111 -0.000718734 0)
(0.011636 0.000151157 0)
(0.0117271 0.000942725 0)
(0.0114211 0.00164286 0)
(0.0107635 0.00223966 0)
(0.00980691 0.00272143 0)
(0.00861049 0.0030753 0)
(0.00724044 0.00328588 0)
(0.00577023 0.00333416 0)
(0.00428126 0.00319756 0)
(0.00286141 0.00285224 0)
(0.00160246 0.00227903 0)
(0.000624022 0.00147681 0)
(0.000111586 0.000498258 0)
(4.23804e-05 -0.000419302 0)
(0.000144041 -0.000768763 0)
(0.000222177 -0.000767916 0)
(0.000183778 -0.000521775 0)
(-2.6864e-05 -0.000110391 0)
(-0.00044281 0.000404805 0)
(-0.00108529 0.000979377 0)
(-0.00196712 0.00158339 0)
(-0.00309531 0.00219825 0)
(-0.00447331 0.00281368 0)
(-0.00610259 0.00342511 0)
(-0.00798361 0.00403149 0)
(-0.0101163 0.00463364 0)
(-0.0125002 0.00523283 0)
(-0.0151341 0.00582994 0)
(-0.0180161 0.00642475 0)
(-0.0211426 0.00701555 0)
(-0.0245078 0.0075989 0)
(-0.0281033 0.00816956 0)
(-0.0319173 0.00872052 0)
(-0.0359342 0.00924315 0)
(-0.0401342 0.00972738 0)
(-0.0444927 0.010162 0)
(-0.0489803 0.0105348 0)
(-0.0535629 0.0108333 0)
(-0.0582018 0.0110446 0)
(-0.0628539 0.0111561 0)
(-0.067472 0.0111559 0)
(-0.0720061 0.0110331 0)
(-0.0764032 0.0107782 0)
(-0.080609 0.0103836 0)
(-0.0845683 0.00984388 0)
(-0.0882264 0.009156 0)
(-0.0915297 0.0083198 0)
(-0.0944272 0.00733804 0)
(-0.0968711 0.00621657 0)
(-0.0988179 0.00496441 0)
(-0.100229 0.00359378 0)
(-0.101073 0.00212 0)
(-0.101324 0.000561274 0)
(-0.100963 -0.00106165 0)
(-0.0999792 -0.00272515 0)
(-0.0983712 -0.00440373 0)
(-0.0961448 -0.00607023 0)
(-0.0933149 -0.00769635 0)
(-0.0899051 -0.00925316 0)
(-0.0859477 -0.0107118 0)
(-0.0814838 -0.012044 0)
(-0.0765624 -0.0132231 0)
(-0.0712405 -0.0142244 0)
(-0.0655822 -0.0150265 0)
(-0.0596577 -0.0156113 0)
(-0.0535425 -0.0159654 0)
(-0.0473162 -0.0160804 0)
(-0.0410607 -0.0159532 0)
(-0.0348593 -0.0155869 0)
(-0.0287944 -0.0149903 0)
(-0.0229457 -0.014178 0)
(-0.017389 -0.0131705 0)
(-0.0121938 -0.0119929 0)
(-0.0074218 -0.0106746 0)
(-0.00312542 -0.00924796 0)
(0.000653394 -0.00774752 0)
(0.00388419 -0.00620845 0)
(0.00654861 -0.00466552 0)
(0.00864059 -0.00315198 0)
(0.0101663 -0.0016987 0)
(0.0111436 -0.000333622 0)
(0.0116018 0.000918383 0)
(0.0115803 0.0020352 0)
(0.0111281 0.00299664 0)
(0.0103034 0.00378318 0)
(0.00917245 0.00437442 0)
(0.00780982 0.00474737 0)
(0.00629816 0.00487527 0)
(0.00472876 0.00472744 0)
(0.00320007 0.00427142 0)
(0.00181615 0.00347831 0)
(0.000717917 0.00233325 0)
(0.000131043 0.000858511 0)
(2.73005e-05 -0.000482977 0)
(5.22809e-05 -0.000816091 0)
(-2.67123e-05 -0.000705629 0)
(-0.000283169 -0.000288517 0)
(-0.000763068 0.000334541 0)
(-0.00149447 0.00108755 0)
(-0.00249487 0.00191602 0)
(-0.00377476 0.00278338 0)
(-0.00534028 0.00366684 0)
(-0.00719492 0.00455364 0)
(-0.00934074 0.00543783 0)
(-0.0117789 0.00631756 0)
(-0.0145099 0.00719298 0)
(-0.0175332 0.0080646 0)
(-0.0208472 0.00893215 0)
(-0.0244482 0.00979374 0)
(-0.0283303 0.0106454 0)
(-0.0324844 0.0114807 0)
(-0.0368976 0.012291 0)
(-0.0415527 0.013065 0)
(-0.0464277 0.0137898 0)
(-0.0514954 0.0144502 0)
(-0.0567234 0.0150299 0)
(-0.0620739 0.0155119 0)
(-0.0675039 0.0158784 0)
(-0.0729658 0.0161121 0)
(-0.0784077 0.0161963 0)
(-0.0837742 0.0161158 0)
(-0.0890072 0.0158568 0)
(-0.0940472 0.0154084 0)
(-0.0988338 0.0147622 0)
(-0.103307 0.013913 0)
(-0.107409 0.0128593 0)
(-0.111082 0.0116034 0)
(-0.114276 0.0101514 0)
(-0.116942 0.00851374 0)
(-0.119036 0.00670454 0)
(-0.120523 0.00474207 0)
(-0.121371 0.0026484 0)
(-0.121558 0.00044898 0)
(-0.121067 -0.00182824 0)
(-0.11989 -0.00415097 0)
(-0.118026 -0.00648539 0)
(-0.115484 -0.00879581 0)
(-0.112281 -0.0110452 0)
(-0.108442 -0.013196 0)
(-0.104 -0.0152106 0)
(-0.0989981 -0.0170525 0)
(-0.093486 -0.0186867 0)
(-0.0875226 -0.0200812 0)
(-0.0811736 -0.0212074 0)
(-0.0745117 -0.0220416 0)
(-0.0676155 -0.0225652 0)
(-0.0605686 -0.0227661 0)
(-0.0534578 -0.0226391 0)
(-0.0463723 -0.0221866 0)
(-0.0394013 -0.0214186 0)
(-0.0326327 -0.0203529 0)
(-0.026151 -0.0190146 0)
(-0.0200349 -0.0174357 0)
(-0.0143564 -0.015654 0)
(-0.00917777 -0.0137119 0)
(-0.00455111 -0.0116552 0)
(-0.00051637 -0.00953099 0)
(0.00289932 -0.00738697 0)
(0.00568225 -0.00526926 0)
(0.00783235 -0.00322158 0)
(0.00936297 -0.00128426 0)
(0.0103005 0.000506103 0)
(0.0106835 0.00211637 0)
(0.0105621 0.00351621 0)
(0.00999705 0.00467663 0)
(0.0090591 0.00556826 0)
(0.00782828 0.00615948 0)
(0.00639387 0.00641487 0)
(0.0048548 0.00629465 0)
(0.00331835 0.00575591 0)
(0.00189948 0.0047563 0)
(0.000755736 0.00326084 0)
(0.000138566 0.00125333 0)
(8.1503e-06 -0.000491933 0)
(-6.4172e-05 -0.000722687 0)
(-0.000339988 -0.000431777 0)
(-0.000864057 0.000215971 0)
(-0.00166764 0.00110174 0)
(-0.00277081 0.00213732 0)
(-0.00418503 0.00326036 0)
(-0.00591689 0.00442945 0)
(-0.00797048 0.005619 0)
(-0.0103486 0.00681469 0)
(-0.0130535 0.00800959 0)
(-0.0160866 0.00920107 0)
(-0.0194485 0.0103883 0)
(-0.0231384 0.0115704 0)
(-0.0271537 0.0127452 0)
(-0.0314887 0.0139082 0)
(-0.0361345 0.015052 0)
(-0.0410779 0.0161664 0)
(-0.0463009 0.0172381 0)
(-0.0517804 0.0182508 0)
(-0.0574874 0.0191861 0)
(-0.0633873 0.0200233 0)
(-0.0694397 0.0207407 0)
(-0.0755985 0.0213156 0)
(-0.0818128 0.0217255 0)
(-0.0880271 0.0219487 0)
(-0.094182 0.0219648 0)
(-0.100216 0.0217559 0)
(-0.106065 0.0213068 0)
(-0.111666 0.0206055 0)
(-0.116954 0.0196444 0)
(-0.121867 0.0184198 0)
(-0.126348 0.0169327 0)
(-0.130339 0.0151891 0)
(-0.133789 0.0131994 0)
(-0.136652 0.0109791 0)
(-0.138886 0.0085484 0)
(-0.140458 0.00593178 0)
(-0.141339 0.0031582 0)
(-0.141509 0.000260411 0)
(-0.140952 -0.00272683 0)
(-0.13966 -0.00576264 0)
(-0.137635 -0.00880543 0)
(-0.134885 -0.0118114 0)
(-0.131426 -0.0147353 0)
(-0.127283 -0.0175312 0)
(-0.122487 -0.0201529 0)
(-0.117079 -0.0225557 0)
(-0.111109 -0.0246964 0)
(-0.104634 -0.0265351 0)
(-0.0977195 -0.0280359 0)
(-0.0904375 -0.0291682 0)
(-0.0828682 -0.0299076 0)
(-0.0750972 -0.0302374 0)
(-0.0672147 -0.030149 0)
(-0.0593147 -0.029643 0)
(-0.0514925 -0.0287294 0)
(-0.0438433 -0.0274279 0)
(-0.0364599 -0.0257678 0)
(-0.0294308 -0.0237868 0)
(-0.0228378 -0.021531 0)
(-0.0167541 -0.0190523 0)
(-0.0112423 -0.016408 0)
(-0.0063527 -0.013658 0)
(-0.00212224 -0.0108633 0)
(0.00142654 -0.00808432 0)
(0.00428598 -0.00537891 0)
(0.00646337 -0.00280144 0)
(0.00798059 -0.000402038 0)
(0.00887363 0.00177339 0)
(0.00919172 0.00368256 0)
(0.00899641 0.00528539 0)
(0.00836072 0.00654215 0)
(0.00736839 0.00741134 0)
(0.00611357 0.00784779 0)
(0.00470122 0.00780132 0)
(0.003246 0.00721681 0)
(0.001872 0.00603592 0)
(0.000747929 0.00420046 0)
(0.000137201 0.00165489 0)
(-1.42487e-05 -0.000434851 0)
(-0.000200637 -0.000459618 0)
(-0.000706182 9.44026e-05 0)
(-0.00153957 0.00103935 0)
(-0.00271277 0.00224214 0)
(-0.00423518 0.00360577 0)
(-0.00611024 0.00506286 0)
(-0.00833915 0.00656959 0)
(-0.010923 0.00809936 0)
(-0.0138632 0.00963742 0)
(-0.0171615 0.0111765 0)
(-0.0208193 0.0127133 0)
(-0.024837 0.0142456 0)
(-0.029213 0.0157706 0)
(-0.0339431 0.0172832 0)
(-0.039019 0.0187753 0)
(-0.0444283 0.0202353 0)
(-0.0501533 0.0216479 0)
(-0.0561703 0.0229942 0)
(-0.0624499 0.0242523 0)
(-0.0689561 0.0253975 0)
(-0.0756469 0.0264032 0)
(-0.0824744 0.027242 0)
(-0.0893852 0.0278859 0)
(-0.0963212 0.0283078 0)
(-0.103221 0.0284822 0)
(-0.110019 0.0283861 0)
(-0.11665 0.0279999 0)
(-0.123047 0.0273077 0)
(-0.129144 0.0262983 0)
(-0.134876 0.0249657 0)
(-0.140183 0.0233089 0)
(-0.145006 0.0213324 0)
(-0.14929 0.0190466 0)
(-0.152988 0.0164668 0)
(-0.156055 0.0136141 0)
(-0.158453 0.0105143 0)
(-0.160149 0.00719817 0)
(-0.161117 0.0037007 0)
(-0.161339 6.12646e-05 0)
(-0.160798 -0.00367516 0)
(-0.159486 -0.00746439 0)
(-0.157403 -0.0112571 0)
(-0.154557 -0.0150016 0)
(-0.150959 -0.0186449 0)
(-0.146632 -0.022133 0)
(-0.141603 -0.0254118 0)
(-0.13591 -0.028428 0)
(-0.129599 -0.0311302 0)
(-0.122723 -0.0334701 0)
(-0.115345 -0.0354036 0)
(-0.107536 -0.0368925 0)
(-0.099376 -0.0379054 0)
(-0.090951 -0.0384196 0)
(-0.082354 -0.0384217 0)
(-0.0736826 -0.037909 0)
(-0.0650379 -0.0368902 0)
(-0.0565225 -0.0353855 0)
(-0.0482379 -0.0334269 0)
(-0.0402824 -0.0310574 0)
(-0.0327487 -0.0283301 0)
(-0.0257215 -0.0253067 0)
(-0.0192749 -0.0220556 0)
(-0.0134708 -0.01865 0)
(-0.00835713 -0.0151651 0)
(-0.00396633 -0.0116764 0)
(-0.000314877 -0.00825736 0)
(0.00259715 -0.00497796 0)
(0.00478596 -0.00190348 0)
(0.00628354 0.000905718 0)
(0.00713689 0.00339366 0)
(0.00740698 0.00550757 0)
(0.00716785 0.0071959 0)
(0.00650562 0.00840598 0)
(0.00551813 0.00908162 0)
(0.00431513 0.00916108 0)
(0.00301723 0.00857576 0)
(0.00175561 0.00725015 0)
(0.000705021 0.00510261 0)
(0.000129542 0.00204171 0)
(-3.93783e-05 -0.000302417 0)
(-0.000353854 -2.82597e-06 0)
(-0.0011166 0.000906882 0)
(-0.00229401 0.00222143 0)
(-0.00387488 0.00379827 0)
(-0.00585554 0.00553575 0)
(-0.00822967 0.00736514 0)
(-0.0109919 0.00924303 0)
(-0.0141393 0.0111439 0)
(-0.0176715 0.0130541 0)
(-0.0215891 0.0149665 0)
(-0.0258929 0.0168774 0)
(-0.0305828 0.0187828 0)
(-0.0356558 0.0206773 0)
(-0.0411055 0.022552 0)
(-0.0469207 0.0243943 0)
(-0.053085 0.0261871 0)
(-0.0595754 0.0279092 0)
(-0.0663628 0.0295354 0)
(-0.0734109 0.0310373 0)
(-0.0806773 0.0323838 0)
(-0.088113 0.0335422 0)
(-0.0956633 0.0344795 0)
(-0.103269 0.0351629 0)
(-0.110866 0.0355615 0)
(-0.118388 0.0356471 0)
(-0.125768 0.0353948 0)
(-0.132937 0.0347847 0)
(-0.139828 0.0338016 0)
(-0.146375 0.0324361 0)
(-0.152515 0.0306849 0)
(-0.158188 0.0285505 0)
(-0.163339 0.0260417 0)
(-0.167917 0.0231734 0)
(-0.171876 0.0199662 0)
(-0.175176 0.0164464 0)
(-0.177779 0.0126453 0)
(-0.179656 0.0085992 0)
(-0.180781 0.00434871 0)
(-0.181131 -6.09279e-05 0)
(-0.180694 -0.00457823 0)
(-0.179461 -0.00915365 0)
(-0.177426 -0.0137313 0)
(-0.174591 -0.0182527 0)
(-0.170967 -0.0226578 0)
(-0.166568 -0.0268851 0)
(-0.161418 -0.0308724 0)
(-0.155548 -0.0345583 0)
(-0.148999 -0.0378825 0)
(-0.141819 -0.0407878 0)
(-0.134068 -0.0432213 0)
(-0.125813 -0.0451359 0)
(-0.117131 -0.0464919 0)
(-0.108109 -0.0472588 0)
(-0.0988409 -0.0474169 0)
(-0.0894279 -0.0469584 0)
(-0.0799765 -0.0458888 0)
(-0.0705964 -0.0442272 0)
(-0.0613983 -0.042007 0)
(-0.0524913 -0.0392749 0)
(-0.0439796 -0.0360905 0)
(-0.0359607 -0.0325247 0)
(-0.0285217 -0.028657 0)
(-0.0217374 -0.024574 0)
(-0.015668 -0.020366 0)
(-0.0103574 -0.0161248 0)
(-0.0058322 -0.0119408 0)
(-0.00210109 -0.00790085 0)
(0.000845277 -0.00408725 0)
(0.00303382 -0.000576623 0)
(0.00450827 0.00255972 0)
(0.00532811 0.00525469 0)
(0.00556745 0.00744337 0)
(0.00531398 0.0090606 0)
(0.00466833 0.010038 0)
(0.00374404 0.0103013 0)
(0.00266641 0.00976764 0)
(0.00157171 0.00834455 0)
(0.000636632 0.00592857 0)
(0.00011771 0.00239809 0)
(-6.69076e-05 -8.66691e-05 0)
(-0.000521324 0.000667762 0)
(-0.00156402 0.00203381 0)
(-0.00311375 0.00379493 0)
(-0.00513286 0.00580463 0)
(-0.00760259 0.00796163 0)
(-0.0105054 0.0102 0)
(-0.0138282 0.0124801 0)
(-0.0175636 0.0147798 0)
(-0.0217086 0.017088 0)
(-0.0262624 0.0193988 0)
(-0.0312248 0.0217078 0)
(-0.0365943 0.0240092 0)
(-0.0423663 0.0262941 0)
(-0.0485318 0.0285489 0)
(-0.0550761 0.0307556 0)
(-0.0619781 0.0328907 0)
(-0.0692099 0.0349262 0)
(-0.0767362 0.0368302 0)
(-0.0845149 0.0385673 0)
(-0.092497 0.0400999 0)
(-0.100628 0.0413895 0)
(-0.108847 0.0423979 0)
(-0.11709 0.0430885 0)
(-0.12529 0.0434274 0)
(-0.133379 0.0433848 0)
(-0.141287 0.0429355 0)
(-0.148946 0.0420602 0)
(-0.156289 0.0407457 0)
(-0.163253 0.0389853 0)
(-0.169777 0.0367792 0)
(-0.175805 0.034134 0)
(-0.181286 0.0310629 0)
(-0.186171 0.0275855 0)
(-0.190418 0.023727 0)
(-0.193988 0.0195186 0)
(-0.196846 0.0149964 0)
(-0.198963 0.0102014 0)
(-0.200314 0.00517927 0)
(-0.200874 -1.99436e-05 0)
(-0.200628 -0.00534281 0)
(-0.199564 -0.0107313 0)
(-0.197672 -0.0161245 0)
(-0.19495 -0.0214584 0)
(-0.191401 -0.0266665 0)
(-0.187034 -0.0316801 0)
(-0.181866 -0.0364297 0)
(-0.17592 -0.0408451 0)
(-0.169231 -0.0448572 0)
(-0.161841 -0.0483994 0)
(-0.153802 -0.0514088 0)
(-0.145177 -0.0538282 0)
(-0.136041 -0.0556081 0)
(-0.126477 -0.0567086 0)
(-0.116581 -0.0571016 0)
(-0.106456 -0.0567721 0)
(-0.0962129 -0.0557202 0)
(-0.0859686 -0.0539621 0)
(-0.0758433 -0.0515303 0)
(-0.065957 -0.0484742 0)
(-0.0564272 -0.0448585 0)
(-0.0473652 -0.0407624 0)
(-0.0388727 -0.0362766 0)
(-0.0310392 -0.0315013 0)
(-0.0239392 -0.0265427 0)
(-0.0176298 -0.0215098 0)
(-0.0121493 -0.0165115 0)
(-0.00751659 -0.0116535 0)
(-0.00373038 -0.00703672 0)
(-0.000769951 -0.00275595 0)
(0.00140427 0.00110034 0)
(0.00284948 0.00444895 0)
(0.00363922 0.00721014 0)
(0.00386215 0.00930484 0)
(0.00362108 0.0106514 0)
(0.00303259 0.0111622 0)
(0.00222553 0.0107404 0)
(0.00133983 0.00927702 0)
(0.000551161 0.00664976 0)
(0.000103421 0.00271326 0)
(-9.65485e-05 0.000219286 0)
(-0.000700799 0.00156882 0)
(-0.00204183 0.00349805 0)
(-0.00398615 0.00578583 0)
(-0.00646683 0.00828804 0)
(-0.00944838 0.0109094 0)
(-0.0129009 0.0135915 0)
(-0.0168028 0.016302 0)
(-0.0211416 0.0190251 0)
(-0.0259112 0.0217536 0)
(-0.0311091 0.0244835 0)
(-0.0367335 0.0272101 0)
(-0.0427812 0.0299252 0)
(-0.0492455 0.0326156 0)
(-0.056114 0.0352625 0)
(-0.0633684 0.0378412 0)
(-0.0709828 0.0403213 0)
(-0.0789239 0.0426676 0)
(-0.087151 0.0448407 0)
(-0.0956163 0.0467983 0)
(-0.104265 0.0484966 0)
(-0.113038 0.0498919 0)
(-0.121871 0.0509417 0)
(-0.130696 0.0516063 0)
(-0.139445 0.0518503 0)
(-0.148048 0.0516433 0)
(-0.156437 0.0509611 0)
(-0.164544 0.0497863 0)
(-0.172307 0.0481084 0)
(-0.179664 0.0459242 0)
(-0.186558 0.0432377 0)
(-0.192938 0.0400598 0)
(-0.198755 0.036408 0)
(-0.203965 0.0323061 0)
(-0.208526 0.0277836 0)
(-0.212403 0.0228756 0)
(-0.215562 0.0176219 0)
(-0.217973 0.0120675 0)
(-0.21961 0.00626165 0)
(-0.220447 0.000258019 0)
(-0.220466 -0.00588619 0)
(-0.219651 -0.0121086 0)
(-0.217987 -0.0183438 0)
(-0.215466 -0.0245227 0)
(-0.212085 -0.0305729 0)
(-0.207845 -0.0364194 0)
(-0.202755 -0.0419851 0)
(-0.196832 -0.0471917 0)
(-0.1901 -0.051961 0)
(-0.182593 -0.0562163 0)
(-0.174356 -0.059884 0)
(-0.165446 -0.0628957 0)
(-0.155932 -0.0651905 0)
(-0.145893 -0.0667172 0)
(-0.135423 -0.0674369 0)
(-0.124626 -0.0673252 0)
(-0.113618 -0.0663744 0)
(-0.10252 -0.0645948 0)
(-0.091462 -0.0620164 0)
(-0.080576 -0.0586885 0)
(-0.069993 -0.0546798 0)
(-0.0598398 -0.0500764 0)
(-0.0502346 -0.04498 0)
(-0.0412837 -0.0395044 0)
(-0.0330781 -0.0337725 0)
(-0.0256905 -0.0279118 0)
(-0.0191732 -0.0220513 0)
(-0.0135569 -0.0163173 0)
(-0.00885037 -0.0108318 0)
(-0.0050403 -0.00570953 0)
(-0.00209234 -0.00105835 0)
(4.76599e-05 0.00302063 0)
(0.00145216 0.0064311 0)
(0.00221029 0.00907874 0)
(0.0024266 0.0108676 0)
(0.00222017 0.0116963 0)
(0.00172271 0.0114538 0)
(0.00107684 0.0100167 0)
(0.000455681 0.00724659 0)
(8.80559e-05 0.00298062 0)
(-0.000128053 0.000621212 0)
(-0.000890088 0.00271376 0)
(-0.00254351 0.00531732 0)
(-0.00489869 0.00821356 0)
(-0.00785716 0.0112677 0)
(-0.0113654 0.0143968 0)
(-0.0153802 0.017555 0)
(-0.019871 0.0207214 0)
(-0.0248197 0.0238889 0)
(-0.0302169 0.0270562 0)
(-0.0360577 0.0302218 0)
(-0.0423386 0.0333807 0)
(-0.0490542 0.0365219 0)
(-0.056195 0.0396275 0)
(-0.0637453 0.0426724 0)
(-0.0716825 0.0456247 0)
(-0.079976 0.0484464 0)
(-0.0885875 0.0510946 0)
(-0.097471 0.0535226 0)
(-0.106574 0.0556814 0)
(-0.115837 0.0575215 0)
(-0.125197 0.0589948 0)
(-0.134588 0.0600554 0)
(-0.14394 0.060662 0)
(-0.153185 0.0607785 0)
(-0.162254 0.0603756 0)
(-0.17108 0.0594307 0)
(-0.179599 0.0579293 0)
(-0.187752 0.0558643 0)
(-0.19548 0.0532363 0)
(-0.202733 0.0500533 0)
(-0.209459 0.0463303 0)
(-0.215616 0.0420887 0)
(-0.221161 0.0373559 0)
(-0.226055 0.032165 0)
(-0.230264 0.026554 0)
(-0.233755 0.0205659 0)
(-0.236499 0.0142484 0)
(-0.238466 0.0076535 0)
(-0.239631 0.000837575 0)
(-0.239972 -0.00613927 0)
(-0.239468 -0.0132115 0)
(-0.238101 -0.0203099 0)
(-0.235857 -0.0273613 0)
(-0.232725 -0.0342884 0)
(-0.2287 -0.0410103 0)
(-0.223782 -0.0474433 0)
(-0.217978 -0.0535012 0)
(-0.211303 -0.0590967 0)
(-0.203782 -0.0641429 0)
(-0.19545 -0.068555 0)
(-0.186354 -0.0722522 0)
(-0.176555 -0.0751609 0)
(-0.166126 -0.0772165 0)
(-0.155158 -0.0783671 0)
(-0.143753 -0.0785762 0)
(-0.132026 -0.077825 0)
(-0.120106 -0.0761155 0)
(-0.108129 -0.0734717 0)
(-0.0962393 -0.0699404 0)
(-0.0845817 -0.0655918 0)
(-0.0732997 -0.0605177 0)
(-0.0625301 -0.0548293 0)
(-0.0523986 -0.0486543 0)
(-0.0430152 -0.0421325 0)
(-0.0344712 -0.0354114 0)
(-0.0268357 -0.0286419 0)
(-0.020154 -0.0219734 0)
(-0.014447 -0.0155508 0)
(-0.00971072 -0.00951187 0)
(-0.00591731 -0.00398598 0)
(-0.00301668 0.000905627 0)
(-0.000938169 0.00504821 0)
(0.000407455 0.00833067 0)
(0.00112619 0.0106418 0)
(0.00133931 0.0118659 0)
(0.00118109 0.0118784 0)
(0.000796522 0.0105425 0)
(0.000355863 0.00770704 0)
(7.26862e-05 0.00319697 0)
(-0.000161046 0.00112368 0)
(-0.00108672 0.00411265 0)
(-0.00306219 0.00750421 0)
(-0.00583855 0.0110911 0)
(-0.00928395 0.0147555 0)
(-0.0133259 0.0184335 0)
(-0.0179073 0.0220975 0)
(-0.0229882 0.025742 0)
(-0.0285447 0.0293716 0)
(-0.0345635 0.0329922 0)
(-0.0410375 0.0366059 0)
(-0.0479607 0.0402073 0)
(-0.0553252 0.0437821 0)
(-0.0631184 0.0473071 0)
(-0.0713209 0.0507503 0)
(-0.0799059 0.054072 0)
(-0.088838 0.0572263 0)
(-0.0980743 0.0601624 0)
(-0.107564 0.0628266 0)
(-0.117251 0.0651637 0)
(-0.127073 0.0671195 0)
(-0.136964 0.068642 0)
(-0.146856 0.0696836 0)
(-0.15668 0.0702022 0)
(-0.166368 0.0701624 0)
(-0.175855 0.0695366 0)
(-0.185075 0.0683052 0)
(-0.193969 0.0664568 0)
(-0.20248 0.063988 0)
(-0.210555 0.0609035 0)
(-0.218146 0.0572151 0)
(-0.225206 0.0529415 0)
(-0.231693 0.0481074 0)
(-0.23757 0.0427435 0)
(-0.242799 0.0368854 0)
(-0.247347 0.0305739 0)
(-0.251182 0.023854 0)
(-0.254274 0.0167754 0)
(-0.256595 0.00939203 0)
(-0.258117 0.00176216 0)
(-0.258816 -0.0060518 0)
(-0.258668 -0.0139823 0)
(-0.257651 -0.0219577 0)
(-0.255746 -0.0299015 0)
(-0.252935 -0.0377325 0)
(-0.249207 -0.0453652 0)
(-0.244551 -0.0527098 0)
(-0.238966 -0.0596731 0)
(-0.232455 -0.0661594 0)
(-0.225033 -0.0720718 0)
(-0.216722 -0.0773138 0)
(-0.207558 -0.081792 0)
(-0.197591 -0.0854185 0)
(-0.186886 -0.0881137 0)
(-0.175524 -0.0898104 0)
(-0.163602 -0.0904568 0)
(-0.151235 -0.0900201 0)
(-0.138554 -0.0884899 0)
(-0.1257 -0.0858806 0)
(-0.112827 -0.0822333 0)
(-0.100096 -0.0776163 0)
(-0.0876659 -0.0721246 0)
(-0.0756945 -0.0658775 0)
(-0.0643293 -0.0590156 0)
(-0.0537027 -0.0516962 0)
(-0.0439278 -0.0440877 0)
(-0.0350942 -0.0363649 0)
(-0.0272654 -0.0287027 0)
(-0.0204771 -0.0212722 0)
(-0.0147374 -0.0142368 0)
(-0.010027 -0.00775044 0)
(-0.0063011 -0.00195706 0)
(-0.0034918 0.00300792 0)
(-0.00151028 0.00701489 0)
(-0.00024933 0.00993617 0)
(0.0004145 0.0116413 0)
(0.000618126 0.0119925 0)
(0.000509233 0.010841 0)
(0.000255923 0.00802508 0)
(5.80891e-05 0.00336173 0)
(-0.000195097 0.00173002 0)
(-0.001288 0.00577205 0)
(-0.00359059 0.010066 0)
(-0.00679232 0.0144247 0)
(-0.0107267 0.0187557 0)
(-0.0153018 0.0230212 0)
(-0.020446 0.0272175 0)
(-0.02611 0.031359 0)
(-0.0322636 0.0354647 0)
(-0.03889 0.0395495 0)
(-0.0459789 0.0436194 0)
(-0.0535219 0.0476689 0)
(-0.0615081 0.0516799 0)
(-0.0699215 0.0556234 0)
(-0.078739 0.0594599 0)
(-0.0879294 0.0631416 0)
(-0.0974532 0.0666146 0)
(-0.107263 0.0698204 0)
(-0.117305 0.0726986 0)
(-0.127518 0.0751888 0)
(-0.137839 0.0772327 0)
(-0.148201 0.078776 0)
(-0.158535 0.0797699 0)
(-0.168775 0.080173 0)
(-0.178853 0.0799515 0)
(-0.188707 0.0790803 0)
(-0.198275 0.0775431 0)
(-0.207501 0.0753322 0)
(-0.216332 0.0724481 0)
(-0.224718 0.0688992 0)
(-0.232615 0.0647009 0)
(-0.239979 0.0598753 0)
(-0.246773 0.0544501 0)
(-0.252959 0.0484586 0)
(-0.258503 0.0419388 0)
(-0.263374 0.0349332 0)
(-0.26754 0.0274888 0)
(-0.270974 0.0196566 0)
(-0.273648 0.0114918 0)
(-0.275533 0.00305381 0)
(-0.276605 -0.00559358 0)
(-0.276838 -0.0143818 0)
(-0.276206 -0.0232376 0)
(-0.274688 -0.0320826 0)
(-0.27226 -0.040833 0)
(-0.268902 -0.0494 0)
(-0.264597 -0.0576892 0)
(-0.259332 -0.0656017 0)
(-0.2531 -0.0730342 0)
(-0.2459 -0.0798806 0)
(-0.237744 -0.0860333 0)
(-0.228652 -0.0913859 0)
(-0.218661 -0.0958354 0)
(-0.20782 -0.099286 0)
(-0.196201 -0.101652 0)
(-0.183891 -0.102865 0)
(-0.171 -0.102873 0)
(-0.157655 -0.10165 0)
(-0.144002 -0.0991964 0)
(-0.130202 -0.0955424 0)
(-0.116428 -0.0907507 0)
(-0.102857 -0.0849158 0)
(-0.0896682 -0.0781624 0)
(-0.0770329 -0.0706424 0)
(-0.0651095 -0.0625301 0)
(-0.0540368 -0.0540161 0)
(-0.0439291 -0.0453006 0)
(-0.0348724 -0.0365869 0)
(-0.0269215 -0.0280756 0)
(-0.0200997 -0.0199593 0)
(-0.0143991 -0.0124201 0)
(-0.00978231 -0.00562785 0)
(-0.00618546 0.000258563 0)
(-0.00352089 0.0050889 0)
(-0.00168044 0.00871752 0)
(-0.000538395 0.0109985 0)
(4.5267e-05 0.0117808 0)
(0.000221783 0.0109044 0)
(0.00015861 0.00819893 0)
(4.47529e-05 0.00347613 0)
(-0.000229706 0.00244208 0)
(-0.00149095 0.00769478 0)
(-0.0041209 0.0130047 0)
(-0.00774603 0.0182143 0)
(-0.0121645 0.0232652 0)
(-0.0172644 0.0281536 0)
(-0.02296 0.0329057 0)
(-0.029192 0.0375596 0)
(-0.0359244 0.0421517 0)
(-0.0431361 0.0467077 0)
(-0.0508137 0.0512379 0)
(-0.058946 0.0557366 0)
(-0.067519 0.0601818 0)
(-0.0765132 0.064538 0)
(-0.0859015 0.0687579 0)