/*--------------------------------*- C++ -*----------------------------------*\
  =========                 |
  \\      /  F ield         | OpenFOAM: The Open Source CFD Toolbox
   \\    /   O peration     | Website:  https://openfoam.org
    \\  /    A nd           | Version:  7
     \\/     M anipulation  |
\*---------------------------------------------------------------------------*/
FoamFile
{
    version     2.0;
    format      ascii;
    class       volScalarField;
    location    "3.5";
    object      p;
}
// * * * * * * * * * * * * * * * * * * * * * * * * * * * * * * * * * * * * * //

dimensions      [0 2 -2 0 0 0 0];

internalField   nonuniform List<scalar> 
6400
(
-1.5882e-07
1.49527e-05
4.79351e-06
-3.4386e-05
-0.000100426
-0.000189997
-0.000299418
-0.000425299
-0.000564877
-0.000716061
-0.000877337
-0.00104762
-0.00122614
-0.00141229
-0.00160552
-0.00180523
-0.00201067
-0.00222092
-0.00243477
-0.00265075
-0.00286709
-0.00308167
-0.00329208
-0.00349559
-0.00368921
-0.00386968
-0.00403358
-0.00417735
-0.00429741
-0.00439022
-0.00445243
-0.00448097
-0.00447321
-0.00442708
-0.00434122
-0.0042151
-0.00404917
-0.00384494
-0.00360504
-0.00333333
-0.00303486
-0.00271561
-0.00238301
-0.00204513
-0.00171079
-0.0013893
-0.00109012
-0.000822618
-0.000595637
-0.000417223
-0.000294269
-0.000232223
-0.000234841
-0.000304005
-0.000439623
-0.000639617
-0.000899993
-0.00121501
-0.00157753
-0.00197899
-0.00241024
-0.00286157
-0.00332323
-0.00378572
-0.00424015
-0.00467846
-0.0050936
-0.00547959
-0.00583157
-0.00614571
-0.0064191
-0.0066496
-0.00683569
-0.0069764
-0.00707137
-0.00712126
-0.00712871
-0.0071004
-0.0070493
-0.00699449
-1.55388e-05
-4.53273e-07
-1.2418e-05
-5.00604e-05
-0.000110243
-0.000190823
-0.000289304
-0.000403174
-0.000530273
-0.000668867
-0.000817611
-0.000975483
-0.00114171
-0.00131566
-0.00149675
-0.00168433
-0.00187769
-0.00207592
-0.00227792
-0.00248233
-0.00268752
-0.00289159
-0.00309233
-0.00328727
-0.00347368
-0.00364857
-0.00380881
-0.00395112
-0.00407217
-0.00416868
-0.00423749
-0.00427571
-0.00428081
-0.00425079
-0.00418427
-0.00408065
-0.00394021
-0.00376423
-0.00355504
-0.00331609
-0.00305197
-0.00276821
-0.00247152
-0.0021694
-0.00187004
-0.00158206
-0.00131427
-0.00107535
-0.000873566
-0.000716395
-0.00061025
-0.000560191
-0.000569692
-0.000640472
-0.000772406
-0.000963515
-0.00121004
-0.00150661
-0.00184649
-0.00222187
-0.00262412
-0.00304432
-0.00347347
-0.00390286
-0.00432433
-0.00473055
-0.0051151
-0.00547259
-0.00579868
-0.00609002
-0.00634412
-0.00655931
-0.00673458
-0.00686955
-0.00696452
-0.00702067
-0.00704087
-0.00703033
-0.00699443
-0.00693956
-4.978e-06
1.1083e-05
-1.61243e-06
-3.86997e-05
-9.59282e-05
-0.000171401
-0.000263104
-0.000369013
-0.000487368
-0.000616728
-0.000755962
-0.000904199
-0.00106077
-0.0012251
-0.00139666
-0.00157489
-0.00175913
-0.00194857
-0.00214221
-0.00233883
-0.00253695
-0.00273484
-0.00293047
-0.00312155
-0.00330553
-0.00347963
-0.00364086
-0.00378609
-0.00391212
-0.00401575
-0.00409386
-0.00414357
-0.00416231
-0.00414797
-0.00409905
-0.00401474
-0.00389512
-0.00374117
-0.00355495
-0.00333955
-0.00309914
-0.00283916
-0.00256577
-0.00228614
-0.00200814
-0.00174007
-0.00149046
-0.00126775
-0.00107995
-0.000934357
-0.00083724
-0.000793538
-0.000806645
-0.000878241
-0.0010082
-0.00119457
-0.00143367
-0.00172027
-0.00204776
-0.00240853
-0.0027943
-0.00319635
-0.00360605
-0.00401508
-0.00441569
-0.00480097
-0.00516496
-0.00550272
-0.00581036
-0.00608498
-0.00632454
-0.00652781
-0.00669421
-0.00682371
-0.00691682
-0.00697463
-0.00699939
-0.00699452
-0.00695869
-0.00688865
3.62831e-05
4.89468e-05
3.35223e-05
-4.80651e-06
-6.14384e-05
-0.000134454
-0.00022208
-0.000322585
-0.000434524
-0.000556745
-0.00068837
-0.000828739
-0.000977347
-0.00113377
-0.00129762
-0.00146846
-0.00164577
-0.00182887
-0.0020169
-0.0022088
-0.00240325
-0.00259867
-0.00279318
-0.00298466
-0.00317067
-0.00334855
-0.00351538
-0.00366808
-0.00380344
-0.00391822
-0.00400921
-0.00407338
-0.004108
-0.00411074
-0.00407982
-0.0040142
-0.00391361
-0.00377878
-0.00361143
-0.0034144
-0.00319157
-0.0029481
-0.00269002
-0.00242432
-0.00215873
-0.00190149
-0.00166109
-0.00144596
-0.00126417
-0.00112306
-0.00102897
-0.000986931
-0.0010004
-0.00107114
-0.00119905
-0.00138221
-0.00161696
-0.00189803
-0.00221882
-0.00257167
-0.00294828
-0.00334001
-0.00373824
-0.00413476
-0.00452202
-0.00489333
-0.00524301
-0.00556648
-0.00586024
-0.00612181
-0.0063496
-0.0065428
-0.0067012
-0.00682505
-0.00691487
-0.00697143
-0.00699621
-0.00699096
-0.0069494
-0.00686172
0.000107275
0.000110698
8.92802e-05
4.75798e-05
-1.03654e-05
-8.2701e-05
-0.000167862
-0.000264437
-0.000371307
-0.000487636
-0.000612836
-0.000746502
-0.000888351
-0.00103817
-0.00119576
-0.00136088
-0.00153316
-0.00171213
-0.0018971
-0.00208718
-0.00228123
-0.00247781
-0.00267521
-0.0028714
-0.00306405
-0.00325051
-0.00342789
-0.00359305
-0.00374267
-0.00387335
-0.00398169
-0.0040644
-0.00411844
-0.00414116
-0.00413046
-0.00408493
-0.00400396
-0.00388792
-0.00373827
-0.00355756
-0.00334943
-0.00311886
-0.00287177
-0.00261509
-0.00235655
-0.00210444
-0.00186736
-0.0016539
-0.0014723
-0.00133015
-0.001234
-0.00118909
-0.00119911
-0.00126595
-0.00138967
-0.00156842
-0.00179853
-0.00207471
-0.00239026
-0.00273742
-0.00310774
-0.00349244
-0.00388283
-0.00427063
-0.00464828
-0.00500919
-0.00534785
-0.00565994
-0.00594226
-0.00619273
-0.00641019
-0.00659422
-0.006745
-0.006863
-0.00694882
-0.00700296
-0.00702629
-0.0070194
-0.00697276
-0.0068726
0.000205357
0.000194439
0.000163888
0.000116708
5.56437e-05
-1.76502e-05
-0.000101851
-0.000195915
-0.000299099
-0.000410923
-0.000531126
-0.000659595
-0.000796323
-0.000941358
-0.00109474
-0.00125645
-0.00142635
-0.00160419
-0.00178948
-0.00198154
-0.00217938
-0.00238174
-0.00258701
-0.00279324
-0.00299811
-0.00319896
-0.0033928
-0.00357632
-0.00374601
-0.00389817
-0.00402909
-0.00413511
-0.00421279
-0.00425907
-0.00427142
-0.00424802
-0.00418787
-0.00409098
-0.00395848
-0.00379275
-0.00359712
-0.0033765
-0.0031367
-0.00288468
-0.00262825
-0.00237586
-0.00213631
-0.00191847
-0.0017309
-0.00158153
-0.00147728
-0.00142376
-0.00142498
-0.00148316
-0.00159858
-0.00176955
-0.0019925
-0.00226212
-0.00257163
-0.00291313
-0.00327795
-0.00365709
-0.00404163
-0.00442309
-0.0047938
-0.00514708
-0.00547747
-0.00578076
-0.006054
-0.00629541
-0.00650417
-0.00668025
-0.00682417
-0.00693668
-0.00701849
-0.00707
-0.00709171
-0.00708349
-0.00703417
-0.00692812
0.00032671
0.000297203
0.000254894
0.000200339
0.0001345
5.8785e-05
-2.58354e-05
-0.000118772
-0.000219717
-0.000328589
-0.000445488
-0.000570643
-0.000704366
-0.000847004
-0.000998877
-0.00116023
-0.00133122
-0.0015118
-0.00170175
-0.00190057
-0.00210746
-0.00232128
-0.0025405
-0.00276319
-0.00298698
-0.00320909
-0.00342632
-0.00363513
-0.00383163
-0.00401177
-0.00417138
-0.00430633
-0.00441268
-0.00448689
-0.00452592
-0.0045275
-0.00449018
-0.00441358
-0.00429857
-0.00414746
-0.00396274
-0.00374973
-0.00351412
-0.00326287
-0.00300393
-0.00274594
-0.00249801
-0.00226935
-0.00206896
-0.00190523
-0.00178558
-0.00171615
-0.00170144
-0.00174414
-0.00184491
-0.00200238
-0.00221318
-0.00247211
-0.00277236
-0.00310589
-0.00346382
-0.00383689
-0.00421585
-0.00459193
-0.00495717
-0.00530471
-0.00562895
-0.0059257
-0.0061921
-0.00642651
-0.00662843
-0.00679813
-0.00693644
-0.0070444
-0.00712289
-0.00717235
-0.00719314
-0.00718482
-0.00713577
-0.00703005
0.000466725
0.000415258
0.000358898
0.000295358
0.000223425
0.000144065
5.77988e-05
-3.53331e-05
-0.000135522
-0.000243133
-0.000358678
-0.000482767
-0.000616071
-0.000759266
-0.000912992
-0.00107781
-0.00125416
-0.00144228
-0.00164218
-0.00185358
-0.00207583
-0.00230788
-0.00254824
-0.00279492
-0.00304542
-0.00329675
-0.0035454
-0.00378743
-0.00401853
-0.00423413
-0.00442951
-0.00459998
-0.00474103
-0.00484853
-0.00491892
-0.00494937
-0.00493801
-0.004884
-0.00478802
-0.00465258
-0.00447767
-0.00427076
-0.00403699
-0.00378323
-0.00351753
-0.00324878
-0.0029864
-0.00274004
-0.00251921
-0.00233287
-0.00218912
-0.00209474
-0.00205494
-0.00207306
-0.00215035
-0.00228597
-0.00247694
-0.00271828
-0.00300332
-0.00332397
-0.00367119
-0.00403543
-0.00440709
-0.00477702
-0.00513686
-0.00547941
-0.00579882
-0.00609071
-0.00635216
-0.00658162
-0.00677869
-0.00694389
-0.00707828
-0.00718317
-0.00725967
-0.00730836
-0.00732964
-0.00732299
-0.00727724
-0.0071772
0.000620319
0.000544089
0.000471851
0.000398096
0.000319009
0.00023498
0.000145956
5.13291e-05
-4.9666e-05
-0.000157901
-0.000274346
-0.000400033
-0.000536016
-0.000683339
-0.000842999
-0.0010159
-0.00120278
-0.00140418
-0.00162036
-0.00185122
-0.00209624
-0.00235444
-0.00262427
-0.00290362
-0.00318976
-0.00347937
-0.00376852
-0.0040528
-0.00432733
-0.00458692
-0.00482623
-0.00503991
-0.00522279
-0.0053701
-0.00547767
-0.00554211
-0.00556102
-0.00553315
-0.00545835
-0.00533744
-0.00517548
-0.00497476
-0.00474136
-0.00448239
-0.00420605
-0.00392145
-0.00363835
-0.00336687
-0.00311709
-0.00289869
-0.00272055
-0.00259031
-0.00251407
-0.00249607
-0.00253841
-0.00264102
-0.00280153
-0.00301548
-0.00327648
-0.00357656
-0.00390662
-0.00425688
-0.00461738
-0.00497853
-0.00533149
-0.00566859
-0.00598355
-0.00627165
-0.00652974
-0.00675613
-0.00695044
-0.00711325
-0.00724581
-0.00734962
-0.007426
-0.00747574
-0.00749936
-0.00749646
-0.00745683
-0.00736675
0.000781835
0.000678554
0.000589048
0.000504167
0.000417117
0.000327558
0.000234736
0.000137287
3.3791e-05
-7.71962e-05
-0.000197148
-0.000327545
-0.00046986
-0.000625541
-0.000795965
-0.000982392
-0.0011859
-0.00140731
-0.00164712
-0.00190541
-0.00218175
-0.00247512
-0.00278389
-0.00310571
-0.00343753
-0.00377558
-0.00411544
-0.00445208
-0.00477996
-0.0050932
-0.00538573
-0.00565147
-0.00588453
-0.00607944
-0.00623134
-0.0063362
-0.00639105
-0.00639411
-0.00634475
-0.00624356
-0.00609416
-0.00589975
-0.00566595
-0.00539971
-0.00510924
-0.00480383
-0.00449358
-0.00418906
-0.00390102
-0.00363993
-0.00341558
-0.00323668
-0.00311045
-0.00304228
-0.00303544
-0.00309091
-0.0032073
-0.00338091
-0.00360594
-0.00387476
-0.00417838
-0.00450688
-0.00485002
-0.00519773
-0.00554062
-0.00587042
-0.00618025
-0.00646487
-0.00672068
-0.0069457
-0.00713932
-0.00730207
-0.00743519
-0.00754029
-0.00761886
-0.00767187
-0.0077
-0.007703
-0.00767199
-0.00759509
0.000945052
0.000812882
0.000705087
0.000608446
0.00051283
0.000417
0.000319366
0.000217694
0.000109816
-6.33537e-06
-0.000132775
-0.00027147
-0.000424349
-0.000593286
-0.000780059
-0.000986301
-0.00121343
-0.00146255
-0.00173438
-0.00202912
-0.00234637
-0.00268504
-0.00304329
-0.00341846
-0.00380706
-0.00420481
-0.00460663
-0.00500682
-0.00539908
-0.00577677
-0.00613299
-0.00646088
-0.00675374
-0.00700534
-0.00721008
-0.00736319
-0.00746103
-0.00750115
-0.00748237
-0.00740482
-0.0072714
-0.00708505
-0.00685111
-0.00657632
-0.00626882
-0.005938
-0.00559421
-0.00524853
-0.00491234
-0.00459697
-0.00431329
-0.00407123
-0.00387939
-0.0037446
-0.00367161
-0.00366286
-0.00371828
-0.00383535
-0.00400917
-0.00423278
-0.00449754
-0.00479362
-0.00511055
-0.00543783
-0.00576547
-0.00608447
-0.00638722
-0.00666772
-0.00692173
-0.00714669
-0.00734158
-0.00750661
-0.00764289
-0.00775196
-0.00783534
-0.00789414
-0.00792912
-0.00794017
-0.0079199
-0.00785846
0.00110302
0.000940632
0.000813857
0.000705059
0.000600436
0.000497667
0.000394177
0.000286745
0.000172385
4.83499e-05
-8.79587e-05
-0.000239034
-0.000407286
-0.000595034
-0.000804476
-0.00103763
-0.00129624
-0.00158168
-0.00189486
-0.00223604
-0.0026048
-0.00299989
-0.00341916
-0.00385955
-0.00431704
-0.0047867
-0.00526276
-0.00573872
-0.00620746
-0.00666148
-0.00709303
-0.00749434
-0.00785789
-0.00817658
-0.00844397
-0.00865452
-0.00880376
-0.00888851
-0.00890691
-0.00885861
-0.00874532
-0.00856992
-0.0083372
-0.00805356
-0.00772697
-0.00736677
-0.00698353
-0.00658869
-0.00619431
-0.00581261
-0.00545562
-0.00513465
-0.00485989
-0.00463993
-0.00448137
-0.00438847
-0.00436296
-0.00440392
-0.00450784
-0.00466882
-0.00487893
-0.00512867
-0.00540757
-0.00570477
-0.00600965
-0.00631243
-0.00660456
-0.00687911
-0.0071309
-0.00735655
-0.00755435
-0.00772394
-0.00786603
-0.00798189
-0.0080729
-0.00814017
-0.00818444
-0.00820568
-0.00819794
-0.00815342
0.00124825
0.00105471
0.000908568
0.000787416
0.000673455
0.000563088
0.000452612
0.000337717
0.000214524
7.95555e-05
-7.04159e-05
-0.00023844
-0.00042743
-0.000640173
-0.000879296
-0.0011472
-0.00144595
-0.00177717
-0.00214187
-0.00254036
-0.0029721
-0.00343557
-0.00392827
-0.00444661
-0.00498594
-0.00554062
-0.00610408
-0.00666894
-0.0072272
-0.00777042
-0.00828992
-0.008777
-0.00922319
-0.00962046
-0.00996147
-0.0102398
-0.01045
-0.0105882
-0.0106515
-0.0106391
-0.0105515
-0.0103912
-0.0101622
-0.00987066
-0.00952402
-0.00913153
-0.00870378
-0.00825253
-0.0077904
-0.0073305
-0.00688603
-0.00646982
-0.00609382
-0.00576864
-0.00550307
-0.00530366
-0.0051744
-0.00511651
-0.00512839
-0.00520573
-0.00534177
-0.00552775
-0.00575345
-0.00600785
-0.00627978
-0.00655859
-0.00683467
-0.00709991
-0.00734794
-0.00757423
-0.00777605
-0.00795218
-0.00810261
-0.00822809
-0.00832964
-0.00840814
-0.00846418
-0.00849765
-0.00850395
-0.00847724
0.0013726
0.00114743
0.000981811
0.000848264
0.000724688
0.000606025
0.000487309
0.000363047
0.0002284
7.91055e-05
-8.87272e-05
-0.00027873
-0.000494343
-0.000738836
-0.00101527
-0.00132643
-0.00167467
-0.00206181
-0.00248894
-0.00295632
-0.00346321
-0.00400776
-0.00458697
-0.00519666
-0.00583148
-0.00648495
-0.00714964
-0.00781723
-0.00847875
-0.00912476
-0.00974557
-0.0103315
-0.010873
-0.0113611
-0.0117875
-0.0121447
-0.0124264
-0.0126276
-0.0127446
-0.0127756
-0.0127203
-0.0125803
-0.012359
-0.0120617
-0.0116955
-0.0112692
-0.0107933
-0.0102798
-0.00974159
-0.00919265
-0.0086473
-0.00811988
-0.00762423
-0.00717319
-0.00677804
-0.00644803
-0.00618991
-0.00600762
-0.00590211
-0.00587126
-0.00591011
-0.00601114
-0.00616483
-0.0063603
-0.00658597
-0.00683034
-0.00708264
-0.00733334
-0.0075746
-0.0078004
-0.0080066
-0.00819074
-0.00835176
-0.00848955
-0.00860448
-0.00869697
-0.00876723
-0.0088149
-0.00883655
-0.0088281
0.00146738
0.00121057
0.00102565
0.000879773
0.000746314
0.000618578
0.000490215
0.000354461
0.000205454
3.81095e-05
-0.000152158
-0.000369588
-0.000618168
-0.000901664
-0.00122357
-0.00158703
-0.00199465
-0.00244841
-0.00294943
-0.0034978
-0.00409252
-0.00473131
-0.0054106
-0.00612549
-0.00686984
-0.00763629
-0.00841643
-0.00920093
-0.00997979
-0.0107425
-0.0114783
-0.0121764
-0.0128262
-0.0134176
-0.0139413
-0.0143888
-0.0147526
-0.0150268
-0.0152068
-0.0152895
-0.0152738
-0.0151604
-0.0149517
-0.0146523
-0.0142685
-0.0138088
-0.0132832
-0.0127035
-0.012083
-0.0114362
-0.0107784
-0.0101254
-0.0094928
-0.00889588
-0.0083486
-0.00786324
-0.0074498
-0.00711555
-0.00686463
-0.00669787
-0.00661283
-0.00660394
-0.00666297
-0.00677961
-0.00694219
-0.0071385
-0.00735654
-0.00758522
-0.00781487
-0.00803762
-0.00824752
-0.00844043
-0.00861381
-0.00876629
-0.00889727
-0.0090064
-0.00909326
-0.009157
-0.00919523
-0.00920528
0.00152352
0.00123554
0.00103171
0.000873665
0.000730032
0.000592341
0.000452746
0.000303141
0.000136598
-5.2825e-05
-0.000270433
-0.000521096
-0.000809367
-0.00113951
-0.00151544
-0.00194063
-0.00241793
-0.00294939
-0.00353606
-0.00417785
-0.00487335
-0.00561977
-0.00641285
-0.00724693
-0.00811496
-0.00900858
-0.00991836
-0.0108339
-0.011744
-0.012637
-0.0135012
-0.0143244
-0.015095
-0.0158018
-0.0164344
-0.016983
-0.0174394
-0.0177963
-0.0180482
-0.0181911
-0.0182227
-0.0181427
-0.0179526
-0.0176561
-0.0172586
-0.0167678
-0.0161931
-0.0155462
-0.0148401
-0.0140896
-0.0133108
-0.0125206
-0.0117364
-0.0109757
-0.0102553
-0.00959068
-0.00899549
-0.00848084
-0.00805481
-0.00772197
-0.00748323
-0.00733586
-0.00727369
-0.00728766
-0.00736649
-0.00749755
-0.00766769
-0.00786411
-0.00807509
-0.00829049
-0.00850207
-0.00870352
-0.00889033
-0.00905945
-0.00920885
-0.00933708
-0.00944281
-0.00952451
-0.00958033
-0.00960915
0.00153169
0.0012135
0.000991405
0.000821386
0.000667243
0.000518585
0.000365987
0.000199951
1.24496e-05
-0.000203338
-0.000453461
-0.000743441
-0.0010784
-0.00146309
-0.00190186
-0.00239845
-0.00295591
-0.00357628
-0.0042605
-0.00500815
-0.00581736
-0.00668469
-0.00760514
-0.00857214
-0.00957763
-0.0106122
-0.0116653
-0.0127252
-0.0137797
-0.0148159
-0.0158207
-0.0167809
-0.0176837
-0.0185167
-0.0192683
-0.0199279
-0.020486
-0.0209345
-0.0212666
-0.0214775
-0.0215639
-0.0215245
-0.0213596
-0.021072
-0.0206662
-0.0201488
-0.0195285
-0.0188163
-0.0180248
-0.0171688
-0.0162645
-0.0153298
-0.0143834
-0.0134448
-0.0125335
-0.0116683
-0.0108666
-0.010144
-0.00951285
-0.00898246
-0.00855802
-0.0082406
-0.0080271
-0.00791063
-0.00788103
-0.00792572
-0.0080307
-0.00818147
-0.00836404
-0.00856562
-0.00877518
-0.00898369
-0.00918412
-0.00937119
-0.00954098
-0.00969053
-0.00981727
-0.00991868
-0.00999331
-0.0100412
0.00148254
0.00113558
0.000896057
0.000714305
0.000549247
0.000388476
0.000220929
3.56874e-05
-0.000176392
-0.00042303
-0.000711038
-0.00104659
-0.00143538
-0.00188266
-0.00239314
-0.00297084
-0.0036189
-0.00433932
-0.0051328
-0.0059985
-0.00693399
-0.00793508
-0.00899589
-0.0101088
-0.0112648
-0.0124531
-0.013662
-0.0148785
-0.0160891
-0.0172796
-0.0184356
-0.0195427
-0.020587
-0.0215549
-0.0224338
-0.0232121
-0.0238792
-0.0244262
-0.0248455
-0.0251311
-0.025279
-0.0252868
-0.025154
-0.0248822
-0.0244747
-0.0239372
-0.0232775
-0.0225052
-0.0216325
-0.0206735
-0.0196443
-0.018563
-0.0174493
-0.0163242
-0.0152094
-0.0141268
-0.0130978
-0.0121422
-0.0112777
-0.0105187
-0.00987566
-0.00935465
-0.00895681
-0.00867854
-0.00851181
-0.00844495
-0.00846356
-0.0085517
-0.00869299
-0.00887169
-0.00907349
-0.00928604
-0.00949915
-0.00970467
-0.0098963
-0.0100691
-0.0102188
-0.0103416
-0.0104364
-0.010504
0.00136689
0.000993075
0.00073717
0.000543937
0.000367482
0.000193326
8.73529e-06
-0.000198637
-0.00043906
-0.000721161
-0.00105251
-0.00143995
-0.00188974
-0.00240759
-0.00299857
-0.00366689
-0.00441574
-0.00524697
-0.00616094
-0.00715631
-0.00822994
-0.00937678
-0.0105899
-0.0118607
-0.0131787
-0.014532
-0.0159074
-0.0172908
-0.0186669
-0.0200205
-0.0213358
-0.0225971
-0.0237895
-0.0248982
-0.0259098
-0.0268117
-0.0275926
-0.0282427
-0.0287538
-0.0291192
-0.0293339
-0.0293947
-0.0293004
-0.0290512
-0.0286498
-0.0281003
-0.0274094
-0.0265856
-0.0256399
-0.0245852
-0.0234371
-0.0222133
-0.0209336
-0.01962
-0.0182959
-0.0169857
-0.0157142
-0.0145059
-0.0133835
-0.0123674
-0.011474
-0.0107155
-0.0100986
-0.00962435
-0.00928825
-0.0090806
-0.00898752
-0.00899207
-0.00907566
-0.00921941
-0.00940527
-0.00961695
-0.00984039
-0.0100639
-0.0102782
-0.0104757
-0.0106501
-0.0107962
-0.0109124
-0.0110008
0.00117598
0.000777703
0.000506636
0.000302179
0.00011378
-7.51354e-05
-0.000278977
-0.000511509
-0.000784114
-0.00110632
-0.00148646
-0.00193202
-0.00244982
-0.00304601
-0.00372596
-0.00449402
-0.00535331
-0.00630547
-0.0073504
-0.00848612
-0.00970865
-0.0110119
-0.012388
-0.0138267
-0.0153165
-0.0168439
-0.0183943
-0.019952
-0.0215004
-0.0230228
-0.0245022
-0.0259218
-0.0272654
-0.0285176
-0.0296639
-0.0306911
-0.0315873
-0.0323424
-0.0329473
-0.033395
-0.0336799
-0.0337981
-0.0337475
-0.0335278
-0.0331401
-0.0325878
-0.0318759
-0.0310117
-0.0300045
-0.0288659
-0.0276103
-0.0262542
-0.0248171
-0.0233207
-0.0217895
-0.0202495
-0.0187286
-0.0172549
-0.0158565
-0.0145595
-0.0133874
-0.0123592
-0.0114885
-0.0107826
-0.0102422
-0.00986092
-0.00962674
-0.00952262
-0.00952821
-0.0096215
-0.00978038
-0.00998404
-0.0102138
-0.0104538
-0.0106907
-0.010914
-0.0111148
-0.0112856
-0.011425
-0.0115355
0.000901766
0.000481831
0.000196983
-1.84292e-05
-0.000219369
-0.000424492
-0.000649859
-0.000910615
-0.00121923
-0.00158611
-0.00202034
-0.00253005
-0.00312258
-0.00380448
-0.00458135
-0.00545761
-0.00643624
-0.0075185
-0.00870375
-0.00998921
-0.0113699
-0.0128387
-0.0143862
-0.016001
-0.0176698
-0.0193778
-0.0211087
-0.0228451
-0.0245692
-0.0262628
-0.0279075
-0.0294856
-0.0309799
-0.0323742
-0.0336536
-0.0348043
-0.0358142
-0.0366726
-0.0373704
-0.0379004
-0.0382565
-0.0384344
-0.0384316
-0.0382468
-0.0378804
-0.0373345
-0.0366128
-0.0357209
-0.0346666
-0.0334598
-0.0321127
-0.0306405
-0.0290612
-0.0273957
-0.0256681
-0.0239054
-0.0221371
-0.0203946
-0.0187104
-0.0171165
-0.0156431
-0.0143172
-0.0131603
-0.0121876
-0.0114064
-0.0108161
-0.0104078
-0.0101659
-0.0100691
-0.0100926
-0.0102102
-0.0103961
-0.0106263
-0.0108796
-0.0111384
-0.0113879
-0.0116164
-0.0118137
-0.011978
-0.0121126
0.000537114
9.87253e-05
-0.000198368
-0.000424454
-0.000638565
-0.000861377
-0.00111055
-0.00140255
-0.0017509
-0.00216685
-0.00266021
-0.00323973
-0.00391324
-0.00468762
-0.00556863
-0.00656068
-0.00766649
-0.00888683
-0.0102203
-0.0116633
-0.0132097
-0.0148509
-0.0165761
-0.0183724
-0.0202249
-0.0221168
-0.0240303
-0.0259465
-0.027846
-0.0297091
-0.0315166
-0.0332496
-0.0348902
-0.0364217
-0.0378288
-0.0390976
-0.0402158
-0.0411729
-0.0419598
-0.0425692
-0.0429951
-0.043233
-0.0432799
-0.0431341
-0.0427953
-0.0422645
-0.0415442
-0.0406383
-0.0395529
-0.0382957
-0.036877
-0.0353095
-0.0336092
-0.0317953
-0.0298905
-0.0279214
-0.025918
-0.0239137
-0.0219442
-0.0200468
-0.0182582
-0.0166134
-0.0151427
-0.0138706
-0.0128131
-0.0119769
-0.0113588
-0.0109463
-0.0107187
-0.0106492
-0.0107077
-0.0108631
-0.0110854
-0.0113475
-0.0116261
-0.0119019
-0.012159
-0.0123845
-0.0125756
-0.0127366
7.60762e-05
-0.00037721
-0.000684881
-0.000921336
-0.00114925
-0.00139122
-0.00166642
-0.00199258
-0.00238418
-0.00285331
-0.00341046
-0.00406495
-0.00482503
-0.00569788
-0.00668934
-0.00780367
-0.0090432
-0.0104081
-0.0118961
-0.0135025
-0.0152198
-0.017038
-0.0189447
-0.0209251
-0.0229624
-0.0250384
-0.0271333
-0.0292266
-0.0312974
-0.0333249
-0.0352886
-0.0371691
-0.0389479
-0.040608
-0.0421341
-0.0435123
-0.0447306
-0.0457788
-0.0466481
-0.0473316
-0.0478234
-0.0481189
-0.0482156
-0.0481112
-0.0478048
-0.0472966
-0.046588
-0.0456815
-0.0445812
-0.0432928
-0.0418241
-0.0401854
-0.0383898
-0.0364539
-0.0343982
-0.0322475
-0.030031
-0.0277824
-0.0255395
-0.0233432
-0.021236
-0.0192604
-0.0174561
-0.0158574
-0.0144909
-0.0133729
-0.0125082
-0.0118896
-0.0114991
-0.0113094
-0.0112872
-0.0113962
-0.0115997
-0.0118641
-0.0121592
-0.0124603
-0.0127467
-0.0130019
-0.0132221
-0.0134123
-0.000485898
-0.000950231
-0.00126669
-0.00151317
-0.00175548
-0.00201801
-0.00232134
-0.00268435
-0.00312244
-0.00364846
-0.00427354
-0.0050075
-0.00585899
-0.00683536
-0.00794244
-0.00918422
-0.0105625
-0.0120768
-0.0137237
-0.0154971
-0.0173883
-0.0193854
-0.0214743
-0.0236383
-0.0258588
-0.0281155
-0.030387
-0.0326511
-0.0348856
-0.0370686
-0.0391787
-0.041196
-0.0431016
-0.0448788
-0.0465121
-0.0479883
-0.0492959
-0.0504252
-0.051368
-0.0521179
-0.0526695
-0.0530182
-0.0531633
-0.0531007
-0.0528296
-0.0523498
-0.0516616
-0.0507664
-0.0496665
-0.0483656
-0.0468691
-0.0451844
-0.0433216
-0.041294
-0.039119
-0.0368184
-0.0344191
-0.0319538
-0.0294603
-0.0269815
-0.0245643
-0.0222575
-0.0201095
-0.0181654
-0.016463
-0.0150304
-0.0138829
-0.0130215
-0.0124333
-0.0120926
-0.0119643
-0.0120073
-0.0121784
-0.0124362
-0.0127433
-0.0130679
-0.0133839
-0.0136701
-0.0139216
-0.014144
-0.00115178
-0.00162308
-0.00194643
-0.00220254
-0.00245976
-0.00274412
-0.00307749
-0.00347976
-0.00396719
-0.00455331
-0.00524981
-0.00606699
-0.00701377
-0.0080976
-0.0093242
-0.0106972
-0.0122176
-0.0138841
-0.0156921
-0.0176341
-0.0196994
-0.0218748
-0.0241438
-0.0264879
-0.0288864
-0.0313173
-0.0337572
-0.0361826
-0.0385701
-0.0408965
-0.0431402
-0.0452808
-0.0472995
-0.0491796
-0.0509065
-0.0524674
-0.0538517
-0.0550503
-0.0560561
-0.0568632
-0.0574674
-0.0578657
-0.0580534
-0.0580307
-0.0577958
-0.057348
-0.0566869
-0.0558129
-0.0547268
-0.0534306
-0.0519271
-0.0502211
-0.0483194
-0.0462318
-0.0439718
-0.0415574
-0.0390121
-0.0363656
-0.0336542
-0.0309206
-0.0282141
-0.0255881
-0.0230985
-0.0208004
-0.0187438
-0.0169698
-0.0155064
-0.0143661
-0.0135439
-0.0130187
-0.0127555
-0.0127095
-0.0128314
-0.0130715
-0.013384
-0.0137294
-0.0140744
-0.0143929
-0.014678
-0.014936
-0.00192284
-0.00239683
-0.00272509
-0.00299034
-0.00326287
-0.00357016
-0.00393521
-0.00437881
-0.00491795
-0.00556677
-0.00633748
-0.00724072
-0.00828563
-0.00947965
-0.0108282
-0.0123345
-0.0139987
-0.0158183
-0.0177874
-0.0198969
-0.0221343
-0.0244843
-0.0269285
-0.0294462
-0.0320148
-0.0346103
-0.0372077
-0.0397821
-0.042309
-0.0447646
-0.0471269
-0.0493753
-0.0514914
-0.0534592
-0.0552645
-0.0568957
-0.0583429
-0.0595983
-0.0606556
-0.0615099
-0.0621578
-0.0625966
-0.0628239
-0.0628383
-0.0626389
-0.0622248
-0.0615952
-0.0607497
-0.0596882
-0.0584109
-0.0569187
-0.0552137
-0.0532998
-0.0511829
-0.0488726
-0.0463824
-0.0437314
-0.0409449
-0.0380558
-0.0351048
-0.0321409
-0.02922
-0.0264036
-0.0237553
-0.0213369
-0.0192031
-0.0173969
-0.0159445
-0.0148525
-0.0141076
-0.0136777
-0.0135166
-0.0135692
-0.0137778
-0.0140873
-0.0144493
-0.0148224
-0.0151739
-0.0154948
-0.0157921
-0.00279849
-0.0032708
-0.00360189
-0.00387571
-0.00416381
-0.00449489
-0.00489293
-0.00537949
-0.00597217
-0.00668563
-0.00753249
-0.00852367
-0.0096684
-0.010974
-0.0124456
-0.0140856
-0.0158933
-0.0178648
-0.0199929
-0.0222665
-0.0246714
-0.0271899
-0.0298017
-0.0324839
-0.0352119
-0.0379599
-0.0407015
-0.0434104
-0.0460613
-0.0486301
-0.0510944
-0.0534341
-0.0556313
-0.0576706
-0.0595389
-0.0612256
-0.062722
-0.0640214
-0.0651187
-0.06601
-0.0666927
-0.0671649
-0.0674252
-0.0674726
-0.0673064
-0.0669256
-0.0663297
-0.0655175
-0.0644882
-0.0632409
-0.0617747
-0.0600897
-0.0581868
-0.0560686
-0.0537406
-0.0512116
-0.0484955
-0.0456126
-0.0425908
-0.0394667
-0.0362867
-0.0331065
-0.0299906
-0.0270089
-0.0242334
-0.0217325
-0.0195646
-0.0177724
-0.0163775
-0.0153777
-0.0147477
-0.0144423
-0.0144027
-0.0145633
-0.0148594
-0.0152323
-0.0156315
-0.0160165
-0.0163753
-0.0167154
-0.00377631
-0.00424253
-0.0045743
-0.00485599
-0.0051597
-0.00551516
-0.00594715
-0.00647781
-0.00712525
-0.00790454
-0.00882861
-0.00990856
-0.0111536
-0.0125709
-0.0141649
-0.0159373
-0.0178863
-0.0200067
-0.0222894
-0.0247215
-0.0272868
-0.0299654
-0.0327349
-0.0355702
-0.0384449
-0.0413314
-0.044202
-0.0470296
-0.049788
-0.052453
-0.0550024
-0.0574166
-0.0596783
-0.0617733
-0.0636895
-0.0654175
-0.0669499
-0.0682811
-0.0694072
-0.0703255
-0.0710343
-0.0715325
-0.0718195
-0.0718949
-0.0717583
-0.0714093
-0.070847
-0.0700703
-0.069078
-0.0678682
-0.0664389
-0.0647885
-0.0629155
-0.0608196
-0.0585023
-0.0559682
-0.0532258
-0.0502896
-0.0471814
-0.0439323
-0.0405838
-0.0371889
-0.0338116
-0.0305258
-0.0274111
-0.0245478
-0.0220103
-0.0198588
-0.0181326
-0.0168449
-0.0159811
-0.0155005
-0.0153429
-0.0154363
-0.0157062
-0.0160829
-0.0165051
-0.0169234
-0.0173221
-0.0177085
-0.004852
-0.00530773
-0.00563799
-0.00592671
-0.00624588
-0.00662598
-0.00709242
-0.00766779
-0.00837055
-0.00921607
-0.0102175
-0.011386
-0.0127306
-0.0142582
-0.0159726
-0.0178745
-0.0199609
-0.022225
-0.024656
-0.027239
-0.0299556
-0.0327839
-0.0356992
-0.0386745
-0.0416815
-0.0446912
-0.0476747
-0.0506041
-0.0534531
-0.0561973
-0.058815
-0.0612872
-0.0635979
-0.0657335
-0.0676836
-0.0694397
-0.0709959
-0.0723479
-0.0734928
-0.074429
-0.0751557
-0.0756728
-0.0759803
-0.0760785
-0.0759675
-0.0756472
-0.075117
-0.074376
-0.0734225
-0.0722544
-0.0708691
-0.0692634
-0.0674343
-0.065379
-0.0630958
-0.0605852
-0.0578508
-0.0549011
-0.0517514
-0.0484258
-0.0449595
-0.0414
-0.0378084
-0.0342586
-0.0308348
-0.0276271
-0.0247239
-0.0222037
-0.0201254
-0.0185212
-0.0173911
-0.0167036
-0.0164003
-0.0164049
-0.0166336
-0.017005
-0.0174461
-0.0178969
-0.018337
-0.0187733
-0.00601946
-0.0064604
-0.00678691
-0.00708168
-0.00741587
-0.00782053
-0.00832149
-0.00894161
-0.00969957
-0.0106109
-0.0116889
-0.0129446
-0.0143869
-0.0160221
-0.0178533
-0.0198801
-0.0220983
-0.0244993
-0.0270705
-0.029795
-0.0326522
-0.0356181
-0.0386658
-0.0417667
-0.0448907
-0.0480075
-0.0510874
-0.0541019
-0.0570247
-0.0598316
-0.0625017
-0.0650167
-0.0673617
-0.0695246
-0.0714958
-0.0732686
-0.0748381
-0.0762011
-0.077356
-0.0783022
-0.0790397
-0.0795692
-0.0798916
-0.0800075
-0.0799177
-0.0796226
-0.0791218
-0.0784147
-0.0774998
-0.0763748
-0.0750366
-0.0734817
-0.0717056
-0.0697039
-0.0674723
-0.0650079
-0.0623099
-0.0593811
-0.0562304
-0.0528745
-0.0493407
-0.0456693
-0.0419156
-0.0381501
-0.0344584
-0.0309362
-0.0276841
-0.0247974
-0.0223558
-0.0204127
-0.0189875
-0.0180622
-0.0175846
-0.0174768
-0.017647
-0.0180025
-0.018457
-0.0189386
-0.0194211
-0.0199106
-0.00727091
-0.0076929
-0.00801341
-0.00831307
-0.00866159
-0.00909035
-0.00962541
-0.0102897
-0.0111021
-0.012078
-0.0132308
-0.0145714
-0.0161082
-0.0178471
-0.0197902
-0.0219359
-0.0242787
-0.0268082
-0.02951
-0.032365
-0.0353507
-0.038441
-0.041607
-0.0448183
-0.0480434
-0.0512512
-0.0544111
-0.0574946
-0.0604752
-0.0633295
-0.0660373
-0.0685814
-0.070948
-0.0731262
-0.075108
-0.0768876
-0.0784615
-0.0798277
-0.0809854
-0.081935
-0.0826774
-0.0832139
-0.083546
-0.083675
-0.0836022
-0.0833282
-0.0828534
-0.0821774
-0.0812989
-0.0802159
-0.0789254
-0.0774234
-0.0757051
-0.0737648
-0.0715965
-0.0691946
-0.0665546
-0.0636747
-0.0605574
-0.0572121
-0.053658
-0.0499264
-0.0460647
-0.0421373
-0.0382267
-0.034431
-0.0308588
-0.0276201
-0.0248148
-0.0225193
-0.0207756
-0.0195841
-0.0189036
-0.0186584
-0.0187512
-0.0190781
-0.0195391
-0.020049
-0.0205745
-0.0211201
-0.00859702
-0.00899612
-0.00930835
-0.0096116
-0.00997348
-0.0104255
-0.0109937
-0.0117011
-0.0125663
-0.0136049
-0.0148299
-0.0162519
-0.0178791
-0.0197164
-0.0217652
-0.0240226
-0.0264815
-0.0291299
-0.0319514
-0.0349251
-0.0380262
-0.0412267
-0.0444962
-0.0478026
-0.0511133
-0.0543962
-0.0576206
-0.0607576
-0.0637815
-0.0666695
-0.069402
-0.0719633
-0.0743406
-0.0765244
-0.0785078
-0.0802865
-0.0818578
-0.0832208
-0.0843758
-0.0853237
-0.0860663
-0.0866054
-0.086943
-0.087081
-0.0870211
-0.0867644
-0.0863118
-0.0856632
-0.0848179
-0.0837741
-0.0825293
-0.0810796
-0.0794199
-0.0775443
-0.0754456
-0.0731165
-0.0705497
-0.0677394