/*--------------------------------*- C++ -*----------------------------------*\
  =========                 |
  \\      /  F ield         | OpenFOAM: The Open Source CFD Toolbox
   \\    /   O peration     | Website:  https://openfoam.org
    \\  /    A nd           | Version:  7
     \\/     M anipulation  |
\*---------------------------------------------------------------------------*/
FoamFile
{
    version     2.0;
    format      ascii;
    class       volScalarField;
    location    "0.8";
    object      p;
}
// * * * * * * * * * * * * * * * * * * * * * * * * * * * * * * * * * * * * * //

dimensions      [0 2 -2 0 0 0 0];

internalField   nonuniform List<scalar> 
6400
(
-2.62348e-08
-3.80471e-06
-6.67171e-05
-0.00018575
-0.000346312
-0.00053538
-0.000741653
-0.000955569
-0.00116931
-0.00137666
-0.00157271
-0.00175368
-0.00191665
-0.00205942
-0.00218037
-0.00227831
-0.0023524
-0.00240206
-0.00242687
-0.0024266
-0.00240106
-0.00235018
-0.00227391
-0.00217229
-0.00204535
-0.00189321
-0.00171604
-0.00151406
-0.00128763
-0.00103718
-0.000763295
-0.000466706
-0.000148328
0.000190743
0.000549196
0.000925487
0.00131785
0.00172426
0.00214247
0.00256997
0.00300402
0.00344167
0.00387978
0.00431503
0.00474396
0.00516301
0.00556857
0.005957
0.00632473
0.00666828
0.00698433
0.00726978
0.00752179
0.0077379
0.00791599
0.0080544
0.00815195
0.00820801
0.00822248
0.00819585
0.00812923
0.00802429
0.00788335
0.00770928
0.00750555
0.00727618
0.00702573
0.00675924
0.00648224
0.0062007
0.00592102
0.00565
0.00539479
0.00516286
0.00496189
0.0047995
0.00468256
0.00461627
0.00460283
0.00463016
3.62835e-06
-1.28499e-07
-5.55202e-05
-0.000156251
-0.000290525
-0.000449048
-0.000623221
-0.000805336
-0.000988762
-0.00116799
-0.00133853
-0.00149678
-0.00163989
-0.00176562
-0.00187227
-0.00195853
-0.00202344
-0.00206626
-0.00208649
-0.00208375
-0.00205778
-0.00200842
-0.00193557
-0.0018392
-0.00171933
-0.00157604
-0.0014095
-0.00121992
-0.00100765
-0.000773117
-0.000516896
-0.0002397
5.75905e-05
0.000373918
0.000708033
0.00105847
0.00142356
0.00180142
0.00218993
0.00258675
0.00298934
0.00339498
0.00380076
0.00420362
0.00460039
0.00498781
0.00536255
0.00572133
0.00606088
0.00637804
0.00666982
0.0069334
0.00716627
0.00736619
0.00753131
0.00766016
0.00775174
0.00780554
0.00782154
0.00780029
0.00774285
0.00765086
0.00752647
0.00737239
0.00719187
0.00698863
0.00676686
0.0065312
0.00628668
0.0060387
0.00579301
0.00555559
0.00533265
0.00513051
0.00495545
0.00481339
0.00470923
0.00464653
0.00462989
0.00465741
6.66502e-05
5.50809e-05
-7.03925e-07
-9.37771e-05
-0.000214423
-0.00035533
-0.000509647
-0.000671015
-0.000833827
-0.000993292
-0.0011454
-0.00128685
-0.00141499
-0.00152766
-0.00162321
-0.00170032
-0.00175797
-0.00179539
-0.00181203
-0.00180743
-0.00178129
-0.00173339
-0.0016636
-0.00157184
-0.00145811
-0.00132245
-0.00116502
-0.000986002
-0.000785719
-0.000564585
-0.000323143
-6.20734e-05
0.000217791
0.000515444
0.000829698
0.00115917
0.00150229
0.00185727
0.00222212
0.00259465
0.00297248
0.00335304
0.00373362
0.00411136
0.00448329
0.00484637
0.00519753
0.00553367
0.00585177
0.00614891
0.00642229
0.00666934
0.00688772
0.00707539
0.00723064
0.00735217
0.00743906
0.0074909
0.00750774
0.00749011
0.00743906
0.00735617
0.0072435
0.00710362
0.00693958
0.00675487
0.00655342
0.00633951
0.00611779
0.00589322
0.00567099
0.0054565
0.0052552
0.00507264
0.00491417
0.00478482
0.00468865
0.00462896
0.00461286
0.00464448
0.000186841
0.000156152
9.13475e-05
-2.63339e-06
-0.000118972
-0.0002516
-0.000394835
-0.000543415
-0.000692633
-0.0008384
-0.000977234
-0.00110622
-0.00122296
-0.0013255
-0.0014123
-0.00148211
-0.00153396
-0.0015671
-0.00158093
-0.00157501
-0.00154901
-0.00150269
-0.00143587
-0.00134846
-0.00124041
-0.00111176
-0.000962593
-0.0007931
-0.00060355
-0.000394324
-0.000165921
8.10289e-05
0.000345743
0.000627282
0.00092453
0.00123619
0.00156077
0.0018966
0.00224179
0.00259428
0.00295181
0.00331196
0.00367217
0.00402973
0.00438183
0.0047256
0.00505811
0.00537646
0.00567777
0.00595928
0.00621837
0.00645258
0.00665971
0.00683785
0.0069854
0.00710113
0.00718421
0.00723427
0.00725138
0.00723608
0.00718939
0.00711282
0.00700837
0.00687848
0.00672606
0.0065544
0.0063672
0.00616848
0.00596256
0.00575404
0.00554767
0.00534835
0.00516105
0.00499066
0.00484198
0.00471954
0.00462705
0.0045679
0.00455017
0.00457991
0.000350677
0.000291998
0.000211533
0.000110913
-6.75665e-06
-0.000136523
-0.000273686
-0.000413994
-0.000553604
-0.000689118
-0.0008176
-0.000936563
-0.00104394
-0.00113802
-0.00121742
-0.00128103
-0.00132795
-0.00135749
-0.00136908
-0.00136229
-0.00133678
-0.0012923
-0.00122865
-0.00114571
-0.0010434
-0.000921731
-0.000780749
-0.000620599
-0.000441507
-0.000243806
-2.79373e-05
0.000205528
0.000455872
0.000722227
0.00100356
0.00129866
0.00160613
0.0019244
0.00225169
0.00258605
0.00292534
0.00326729
0.00360943
0.00394921
0.00428394
0.00461088
0.00492724
0.00523025
0.00551716
0.00578532
0.00603222
0.00625553
0.00645312
0.00662317
0.00676415
0.00687488
0.0069546
0.00700295
0.00702
0.00700629
0.00696281
0.00689101
0.00679281
0.00667056
0.00652701
0.00636529
0.00618892
0.00600165
0.00580756
0.00561087
0.00541599
0.0052274
0.00504961
0.00488703
0.00474399
0.00462455
0.00453221
0.0044703
0.00444634
0.0044661
0.000546025
0.000453865
0.000352892
0.000241098
0.000117523
-1.38528e-05
-0.000149169
-0.000285112
-0.000418641
-0.000547025
-0.000667878
-0.000779162
-0.000879167
-0.000966457
-0.00103987
-0.00109844
-0.0011414
-0.00116813
-0.00117813
-0.00117099
-0.00114639
-0.00110406
-0.00104382
-0.000965499
-0.000869013
-0.00075431
-0.000621409
-0.000470405
-0.000301471
-0.000114878
8.89958e-05
0.000309648
0.000546435
0.000798572
0.00106511
0.00134493
0.00163674
0.00193906
0.0022502
0.00256835
0.00289146
0.00321736
0.00354372
0.00386807
0.00418785
0.00450041
0.00480308
0.00509317
0.00536802
0.00562507
0.00586188
0.00607619
0.00626593
0.00642934
0.00656491
0.00667151
0.00674839
0.00679518
0.00681196
0.00679924
0.00675796
0.00668955
0.00659583
0.00647905
0.00634186
0.00618724
0.00601852
0.00583927
0.0056533
0.00546456
0.00527716
0.0050952
0.00492282
0.00476402
0.00462272
0.0045026
0.00440691
0.00433882
0.00430435
0.00430776
0.000762202
0.00063343
0.000508669
0.000382228
0.000249085
0.000112411
-2.46454e-05
-0.000159611
-0.000290194
-0.000414292
-0.000530058
-0.000635902
-0.000730478
-0.000812658
-0.000881512
-0.000936271
-0.000976303
-0.00100109
-0.00101021
-0.00100331
-0.000980093
-0.000940303
-0.000883738
-0.000810229
-0.000719646
-0.000611907
-0.000486984
-0.000344916
-0.000185814
-9.88382e-06
0.000182567
0.000391115
0.000615199
0.000854123
0.00110703
0.00137289
0.00165051
0.00193851
0.0022353
0.00253916
0.00284816
0.0031602
0.00347306
0.00378435
0.0040916
0.00439224
0.00468366
0.00496324
0.00522838
0.00547657
0.00570542
0.00591267
0.00609632
0.00625457
0.00638598
0.00648938
0.00656402
0.00660953
0.00662595
0.00661376
0.00657386
0.00650761
0.00641677
0.00630351
0.00617037
0.00602021
0.0058562
0.00568175
0.00550046
0.00531605
0.00513236
0.00495322
0.00478241
0.00462364
0.00448043
0.00435615
0.00425383
0.00417641
0.00412787
0.00411049
0.000989816
0.00082291
0.000672262
0.000528692
0.000383247
0.000238422
9.67726e-05
-3.99782e-05
-0.000170226
-0.000292462
-0.000405352
-0.000507747
-0.000598669
-0.000677307
-0.000742975
-0.00079511
-0.000833242
-0.000856977
-0.000865979
-0.000859954
-0.000838643
-0.000801815
-0.000749262
-0.000680797
-0.000596264
-0.000495537
-0.00037854
-0.000245252
-9.5718e-05
6.99315e-05
0.000251468
0.000448551
0.000660709
0.000887339
0.00112768
0.0013808
0.0016456
0.00192078
0.00220488
0.00249625
0.00279305
0.00309327
0.00339476
0.00369521
0.0039922
0.00428322
0.0045657
0.00483706
0.00509473
0.00533622
0.00555913
0.00576123
0.00594047
0.00609509
0.00622359
0.0063248
0.00639792
0.00644253
0.00645866
0.00644673
0.00640759
0.00634254
0.00625327
0.00614187
0.00601079
0.00586279
0.00570092
0.00552844
0.00534878
0.0051655
0.00498218
0.00480244
0.00462981
0.00446769
0.00431933
0.00418778
0.0040759
0.00398641
0.00392104
0.00387989
0.00122075
0.0010152
0.000837456
0.000675081
0.000515361
0.000360242
0.000211788
7.10451e-05
-6.1011e-05
-0.000183421
-0.000295337
-0.000396034
-0.000484903
-0.000561436
-0.00062521
-0.000675871
-0.000713119
-0.000736691
-0.000746352
-0.000741874
-0.000723045
-0.000689655
-0.000641498
-0.00057837
-0.000500085
-0.000406478
-0.000297418
-0.000172817
-3.26463e-05
0.000123039
0.000294093
0.00048027
0.000681196
0.000896364
0.00112511
0.00136659
0.00161982
0.00188359
0.00215653
0.00243707
0.00272346
0.00301376
0.00330587
0.00359755
0.00388641
0.00416999
0.00444573
0.00471106
0.00496341
0.00520027
0.00541924
0.00561804
0.00579461
0.00594712
0.00607404
0.00617412
0.00624654
0.00629081
0.00630689
0.00629515
0.00625638
0.00619181
0.00610307
0.00599217
0.00586149
0.0057137
0.00555173
0.00537875
0.00519806
0.00501305
0.00482716
0.00464381
0.0044663
0.00429785
0.00414145
0.00399989
0.0038759
0.00377203
0.00368772
0.00362092
0.00144797
0.00120389
0.000998491
0.00081624
0.000640876
0.000473894
0.000316947
0.000170468
3.48619e-05
-8.94195e-05
-0.000201985
-0.000302519
-0.000390766
-0.000466515
-0.000529604
-0.00057989
-0.000617249
-0.000641553
-0.000652662
-0.000650432
-0.000634698
-0.000605268
-0.000561937
-0.000504491
-0.000432714
-0.000346394
-0.000245336
-0.000129388
1.55141e-06
0.000147514
0.00030845
0.000484209
0.000674514
0.000878958
0.00109698
0.00132785
0.00157065
0.0018243
0.0020875
0.00235876
0.00263641
0.00291856
0.00320318
0.00348806
0.00377083
0.00404905
0.00432016
0.00458157
0.0048307
0.00506499
0.00528199
0.00547938
0.00565502
0.00580702
0.00593375
0.00603391
0.00610658
0.00615122
0.00616768
0.00615628
0.00611772
0.00605317
0.00596419
0.00585272
0.00572106
0.00557182
0.00540785
0.00523223
0.00504816
0.00485892
0.00466783
0.00447816
0.00429307
0.00411561
0.0039486
0.00379461
0.00365631
0.00353614
0.00343131
0.00333769
0.00166529
0.0013832
0.00115001
0.000947285
0.000755381
0.000575428
0.000408728
0.000255161
0.000114614
-1.29358e-05
-0.000127528
-0.000229231
-0.000318122
-0.000394288
-0.000457819
-0.00050878
-0.000547213
-0.000573127
-0.000586495
-0.000587239
-0.000575239
-0.000550329
-0.00051231
-0.000460948
-0.000395993
-0.000317182
-0.000224263
-0.000117011
4.76157e-06
0.000141174
0.000292275
0.000458013
0.000638218
0.000832589
0.00104067
0.00126183
0.00149526
0.00173996
0.00199473
0.00225816
0.00252862
0.00280431
0.00308321
0.00336315
0.00364179
0.00391665
0.00418518
0.00444475
0.00469272
0.00492649
0.00514353
0.00534142
0.00551794
0.00567109
0.00579915
0.00590073
0.00597478
0.00602066
0.00603815
0.00602744
0.00598918
0.00592445
0.00583472
0.00572189
0.00558817
0.00543612
0.00526854
0.00508843
0.00489893
0.00470326
0.00450464
0.00430624
0.00411115
0.0039223
0.00374238
0.00357383
0.0034193
0.00328122
0.00315466
0.0030335
0.0018672
0.00154784
0.00128705
0.00106359
0.000854618
0.000660948
0.000483591
0.000321919
0.000175335
4.33762e-05
-7.43937e-05
-0.000178408
-0.000269068
-0.000346743
-0.000411755
-0.000464378
-0.000504821
-0.000533223
-0.000549654
-0.000554113
-0.000546522
-0.000526739
-0.000494561
-0.000449737
-0.00039198
-0.000320973
-0.000236399
-0.000137954
-2.5366e-05
0.000101581
0.000243039
0.000399064
0.000569595
0.00075444
0.00095325
0.0011655
0.0013905
0.00162732
0.00187486
0.00213177
0.00239651
0.00266729
0.00294217
0.00321896
0.00349533
0.00376879
0.00403674
0.00429651
0.0045454
0.0047807
0.0049998
0.00520016
0.00537946
0.00553555
0.00566661
0.00577108
0.00584781
0.00589603
0.0059154
0.005906
0.00586837
0.00580351
0.00571281
0.00559809
0.00546152
0.00530559
0.00513307
0.00494692
0.00475023
0.00454618
0.00433795
0.0041287
0.00392144
0.00371905
0.00352416
0.00333913
0.0031667
0.00300932
0.00286005
0.0027109
0.00204868
0.00169295
0.00140494
0.00116077
0.000934485
0.000726651
0.000538015
0.000367486
0.000214019
7.67388e-05
-4.51728e-05
-0.000152483
-0.0002459
-0.000326063
-0.000393526
-0.000448749
-0.0004921
-0.000523847
-0.000544157
-0.000553091
-0.000550614
-0.000536599
-0.000510844
-0.000473073
-0.000422953
-0.000360113
-0.000284165
-0.000194726
-9.14279e-05
2.60467e-05
0.000157958
0.000304475
0.000465648
0.000641401
0.000831499
0.00103553
0.00125291
0.00148281
0.00172419
0.0019758
0.00223615
0.00250351
0.00277594
0.00305129
0.0033272
0.00360115
0.0038705
0.00413251
0.00438438
0.00462331
0.00484655
0.00505146
0.00523553
0.00539649
0.00553234
0.00564139
0.0057223
0.00577417
0.00579651
0.00578927
0.00575288
0.00568821
0.00559659
0.00547975
0.00533981
0.00517922
0.00500071
0.00480721
0.00460183
0.00438772
0.00416808
0.00394605
0.00372467
0.00350681
0.00329509
0.00309185
0.00289999
0.00272209
0.00254926
0.00237172
0.00220515
0.00181402
0.00149934
0.00123464
0.000991024
0.000768806
0.000568505
0.000388593
0.000227596
8.42649e-05
-4.25761e-05
-0.000154023
-0.000251077
-0.00033462
-0.000405424
-0.000464133
-0.000511266
-0.000547209
-0.000572213
-0.000586398
-0.000589768
-0.00058221
-0.000563512
-0.000533365
-0.000491391
-0.000437159
-0.000370205
-0.00029006
-0.000196254
-8.83602e-05
3.39927e-05
0.00017109
0.000323103
0.000490077
0.000671901
0.000868281
0.00107872
0.00130251
0.0015387
0.00178611
0.0020433
0.0023086
0.0025801
0.00285562
0.00313281
0.00340911
0.00368181
0.0039481
0.00420505
0.00444975
0.0046793
0.0048909
0.00508189
0.0052498
0.00539244
0.00550792
0.00559475
0.00565182
0.00567848
0.00567453
0.00564025
0.0055764
0.00548419
0.00536529
0.00522174
0.00505597
0.00487069
0.00466883
0.00445349
0.00422788
0.00399522
0.00375871
0.00352144
0.00328634
0.00305607
0.00283304
0.00262034
0.00242076
0.00222355
0.00201721
0.0023323
0.00190682
0.00156611
0.00128123
0.00102042
0.000783787
0.00057161
0.000381963
0.000212973
6.30181e-05
-6.94124e-05
-0.000185724
-0.000287185
-0.000374916
-0.000449894
-0.000512938
-0.000564702
-0.000605678
-0.000636195
-0.000656432
-0.00066642
-0.000666053
-0.000655098
-0.000633213
-0.00059997
-0.000554872
-0.000497375
-0.000426909
-0.000342901
-0.00024481
-0.00013215
-4.51011e-06
0.000138411
0.000296789
0.000470639
0.000659785
0.000863846
0.00108221
0.00131403
0.00155821
0.00181336
0.00207786
0.00234982
0.00262707
0.00290722
0.00318769
0.00346568
0.00373828
0.00400244
0.00425512
0.00449325
0.00471383
0.00491401
0.00509111
0.00524273
0.00536676
0.00546148
0.00552557
0.00555819
0.00555894
0.00552795
0.00546583
0.00537367
0.00525305
0.00510597
0.00493479
0.00474222
0.00453121
0.00430491
0.00406657
0.00381951
0.003567
0.00331223
0.00305826
0.00280785
0.00256352
0.00232863
0.00210623
0.00188378
0.0016481
0.00242609
0.00196735
0.00160135
0.00129674
0.00101901
0.000768054
0.000543944
0.000344357
0.000167037
1.00112e-05
-0.000128553
-0.000250352
-0.000356907
-0.00044957
-0.000529509
-0.0005977
-0.000654921
-0.000701763
-0.00073863
-0.000765745
-0.000783159
-0.000790762
-0.000788299
-0.000775388
-0.000751548
-0.000716203
-0.00066872
-0.000608427
-0.000534641
-0.000446706
-0.000344006
-0.000225996
-9.22378e-05
5.75793e-05
0.000223601
0.00040578
0.000603859
0.000817341
0.00104548
0.00128725
0.00154135
0.0018062
0.00207992
0.00236036
0.00264511
0.00293152
0.00321672
0.00349768
0.00377124
0.00403417
0.00428322
0.00451521
0.00472703
0.00491577
0.00507878
0.00521371
0.00531856
0.00539179
0.0054323
0.00543949
0.00541329
0.00535413
0.005263
0.00514133
0.00499107
0.00481455
0.00461446
0.00439378
0.00415574
0.00390367
0.00364099
0.00337112
0.0030974
0.00282304
0.00255096
0.00228388
0.00202547
0.00177909
0.00153046
0.00126473
0.00248267
0.00199181
0.00160133
0.00127753
0.000983251
0.000718179
0.00048219
0.000272571
8.66924e-05
-7.7751e-05
-0.000222901
-0.000350727
-0.000463002
-0.00056129
-0.000646934
-0.000721055
-0.00078455
-0.0008381
-0.00088217
-0.000917018
-0.000942708
-0.000959116
-0.000965964
-0.000962822
-0.000949143
-0.000924268
-0.000887466
-0.000837963
-0.000774957
-0.000697666
-0.000605335
-0.00049728
-0.000372916
-0.000231791
-7.36183e-05
0.000101695
0.000294025
0.000502997
0.00072797
0.000968016
0.00122191
0.00148811
0.00176479
0.0020498
0.0023407
0.00263478
0.00292909
0.00322049
0.00350566
0.0037812
0.00404367
0.00428962
0.00451571
0.00471876
0.00489582
0.00504426
0.00516179
0.00524658
0.00529726
0.00531297
0.0052934
0.00523881
0.00515
0.0050283
0.00487555
0.00469404
0.00448648
0.0042559
0.00400557
0.00373897
0.00345966
0.00317123
0.0028772
0.00258103
0.00228584
0.00199457
0.00171127
0.0014397
0.00116381
0.000867084
0.0024984
0.00197659
0.00156247
0.00122009
0.00090972
0.000630835
0.000383108
0.00016345
-3.11278e-05
-0.000203253
-0.000355366
-0.000489703
-0.000608273
-0.000712834
-0.000804897
-0.000885718
-0.000956305
-0.00101741
-0.00106956
-0.00111304
-0.0011479
-0.00117401
-0.00119107
-0.00119857
-0.00119591
-0.00118233
-0.001157
-0.00111904
-0.00106751
-0.0010015
-0.000920111
-0.000822503
-0.000707943
-0.000575823
-0.000425703
-0.000257338
-7.071e-05
0.00013394
0.000356092
0.000594922
0.00084929
0.00111773
0.00139843
0.00168927
0.00198779
0.00229122
0.00259652
0.00290043
0.00319949
0.00349008
0.00376855
0.00403118
0.00427437
0.00449462
0.00468866
0.00485353
0.00498661
0.00508573
0.0051492
0.00517588
0.00516519
0.00511713
0.00503233
0.00491196
0.00475777
0.00457198
0.00435731
0.00411684
0.00385394
0.00357223
0.00327544
0.00296738
0.00265183
0.00233249
0.00201276
0.00169586
0.00138627
0.0010882
0.00078382
0.000454899
0.00246975
0.00191821
0.00148136
0.00112107
0.000795135
0.000502803
0.000243546
1.39132e-05
-0.000189437
-0.00036945
-0.000528852
-0.000670139
-0.000795535
-0.000906989
-0.00100617
-0.00109446
-0.00117296
-0.0012425
-0.00130363
-0.00135666
-0.00140166
-0.00143845
-0.00146669
-0.00148581
-0.00149513
-0.00149379
-0.00148086
-0.00145533
-0.00141613
-0.00136221
-0.0012925
-0.00120602
-0.00110186
-0.00097926
-0.000837599
-0.000676474
-0.000495709
-0.000295397
-7.59246e-05
0.000162006
0.000417353
0.000688728
0.000974382
0.0012722
0.0015797
0.00189408
0.00221223
0.00253073
0.00284597
0.00315414
0.00345132
0.00373353
0.00399684
0.00423743
0.00445166
0.00463619
0.00478803
0.00490462
0.00498392
0.00502443
0.00502526
0.00498613
0.00490744
0.00479017
0.00463594
0.00444694
0.00422585
0.00397581
0.00370031
0.00340313
0.00308821
0.00275961
0.00242141
0.00207761
0.00173195
0.00138794
0.0010506
0.000724599
0.000390299
2.76995e-05
0.00239335
0.00181337
0.00135475
0.000977275
0.000636335
0.000330975
6.04567e-05
-0.000179035
-0.000391185
-0.000579248
-0.000746227
-0.000894865
-0.0010276
-0.00114655
-0.00125354
-0.00135006
-0.00143732
-0.00151618
-0.00158724
-0.00165082
-0.00170696
-0.00175548
-0.00179596
-0.00182778
-0.00185015
-0.00186213
-0.00186267
-0.00185061
-0.00182477
-0.00178392
-0.00172683
-0.00165236
-0.00155942
-0.00144706
-0.00131449
-0.00116112
-0.000986611
-0.000790884
-0.000574173
-0.000337042
-8.04131e-05
0.000194417
0.000485764
0.000791547
0.00110929
0.00143615
0.00176892
0.00210409
0.00243785
0.00276617
0.00308489
0.00338973
0.0036764
0.00394071
0.00417863
0.00438639
0.00456058
0.0046982
0.00479678
0.00485443
0.00486988
0.00484253
0.00477249
0.00466054
0.00450812
0.00431735
0.00409088
0.00383192
0.00354408
0.00323131
0.0028978
0.00254791
0.00218604
0.00181655
0.00144355
0.00107094
0.000704283
0.000348795
-1.70554e-05
-0.000415121
0.00226599
0.0016589
0.00117952
0.000785619
0.000430295
0.000112372
-0.000169102
-0.000418297
-0.000639239
-0.000835481
-0.0010103
-0.00116667
-0.00130723
-0.00143428
-0.00154977
-0.00165532
-0.00175218
-0.00184129
-0.00192327
-0.00199843
-0.00206682
-0.00212819
-0.00218207
-0.00222777
-0.0022644
-0.00229092
-0.00230614
-0.00230878
-0.00229749
-0.00227088
-0.00222756
-0.0021662
-0.00208552
-0.00198436
-0.00186176
-0.00171692
-0.00154931
-0.00135866
-0.00114504
-0.000908853
-0.000650878
-0.000372297
-7.47069e-05
0.000239861
0.00056895
0.000909687
0.0012588
0.00161265
0.00196726
0.00231839
0.00266158
0.00299224
0.00330571
0.0035974
0.00386283
0.00409775
0.00429826
0.00446089
0.00458267
0.00466125
0.00469492
0.0046827
0.00462437
0.00452042
0.00437213
0.00418147
0.00395108
0.00368421
0.00338458
0.00305637
0.00270403
0.00233225
0.00194579
0.00154944
0.00114771
0.000744955
0.000347329
-3.93505e-05
-0.000438602
-0.000874229
0.00208458
0.00145178
0.000952701
0.000543183
0.000174132
-0.000155854
-0.000447945
-0.000706663
-0.000936363
-0.00114089
-0.00132379
-0.00148826
-0.00163714
-0.00177289
-0.0018976
-0.00201296
-0.00212032
-0.00222064
-0.00231458
-0.00240244
-0.00248423
-0.00255967
-0.00262821
-0.00268909
-0.00274131
-0.00278373
-0.00281501
-0.00283373
-0.00283839
-0.00282741
-0.00279923
-0.0027523
-0.00268516
-0.00259644
-0.00248495
-0.00234968
-0.00218988
-0.0020051
-0.00179518
-0.00156035
-0.00130123
-0.00101885
-0.000714704
-0.000390744
-4.93891e-05
0.000306481
0.000673536
0.00104802
0.0014258
0.0018024
0.00217308
0.00253291
0.00287683
0.00319981
0.00349686
0.00376323
0.00399448
0.00418655
0.00433595
0.00443977
0.00449581
0.00450263
0.00445959
0.00436689
0.00422554
0.00403736
0.00380495
0.00353157
0.00322108
0.00287787
0.0025067
0.0021126
0.00170077
0.00127644
0.000844606
0.000410098
-2.02539e-05
-0.000439979
-0.000874708
-0.00135031
0.0018462
0.00118916
0.000671488
0.000247201
-0.000134886
-0.000476407
-0.000778753
-0.00104679
-0.0012852
-0.00149812
-0.00168933
-0.00186227
-0.00201997
-0.00216503
-0.00229967
-0.00242567
-0.00254445
-0.002657
-0.00276399
-0.00286572
-0.00296215
-0.00305296
-0.00313753
-0.00321501
-0.0032843
-0.00334412
-0.00339301
-0.0034294
-0.00345158
-0.00345784
-0.00344639
-0.00341548
-0.00336342
-0.00328863
-0.00318968
-0.00306532
-0.00291457
-0.00273673
-0.00253144
-0.00229869
-0.00203892
-0.00175298
-0.00144224
-0.00110853
-0.000754204
-0.000382135
4.31245e-06
0.000401288
0.000804495
0.00120924
0.00161049
0.00200295
0.00238116
0.00273957
0.00307269
0.00337518
0.00364199
0.00386844
0.00405039
0.00418433
0.00426746
0.00429782
0.00427429
0.00419665
0.00406564
0.00388286
0.00365081
0.00337278
0.00305275
0.00269533
0.00230558
0.00188894
0.00145108
0.000997739
0.000534436
6.65261e-05
-0.000398411
-0.000853192
-0.0013257
-0.00184402
0.00154807
0.000868332
0.000333241
-0.000104931
-0.000499333
-0.000851837
-0.00116406
-0.0014412
-0.00168825
-0.00190964
-0.00210941
-0.0022912
-0.00245821
-0.00261322
-0.00275853
-0.00289603
-0.00302718
-0.00315303
-0.00327422
-0.00339104
-0.00350344
-0.00361102
-0.0037131
-0.00380873
-0.00389669
-0.00397559
-0.00404381
-0.00409961
-0.00414114
-0.00416645
-0.00417356
-0.00416051
-0.00412537
-0.0040663
-0.00398162
-0.00386983
-0.00372968
-0.00356021
-0.00336079
-0.00313119
-0.00287159
-0.00258267
-0.00226559
-0.00192206
-0.00155433
-0.00116523
-0.00075813
-0.00033696
9.38437e-05
0.000529369
0.000964289
0.00139294
0.00180941
0.00220765
0.00258159
0.00292524
0.00323287
0.00349912
0.00371912
0.00388865
0.00400425
0.0040633
0.00406412
0.00400604
0.00388939
0.00371553
0.00348681
0.00320649
0.00287868
0.00250819
0.00210044
0.00166129
0.00119692
0.000713618
0.000217492
-0.000285509
-0.00078699
-0.00127899
-0.00179182
-0.00235593
0.0011876
0.000486788
-6.45066e-05
-0.00051564
-0.000921609
-0.00128452
-0.00160621
-0.00189222
-0.00214786
-0.00237782
-0.00258638
-0.0027774
-0.00295425
-0.00311984
-0.0032766
-0.00342648
-0.00357101
-0.00371124
-0.00384784
-0.00398108
-0.00411084
-0.00423669
-0.00435786
-0.0044733
-0.00458169
-0.00468148
-0.00477092
-0.0048481
-0.00491098
-0.0049574
-0.00498518
-0.00499209
-0.00497597
-0.00493472
-0.00486637
-0.00476914
-0.0046415
-0.00448217
-0.00429025
-0.00406522
-0.00380701
-0.00351602
-0.00319322
-0.00284014
-0.00245888
-0.0020522
-0.00162343
-0.00117656
-0.000716143
-0.000247294
0.000224373
0.000692818
0.00115167
0.00159433
0.0020141
0.00240432
0.00275849
0.00307048
0.00333459
0.00354582
0.00369991
0.00379351
0.00382428
0.00379095
0.0036934
0.00353265
0.00331084
0.00303118
0.00269785
0.00231589
0.00189108
0.00142972
0.000938535
0.000424448
-0.000105806
-0.000645616
-0.0011857
-0.00171724
-0.00227315
-0.00288648
0.000762395
4.21984e-05
-0.000524028
-0.000987166
-0.00140392
-0.00177665
-0.0021074
-0.00240205
-0.00266621
-0.00290482
-0.00312242
-0.00332306
-0.00351027
-0.00368711
-0.00385611
-0.0040193
-0.00417823
-0.00433401
-0.00448728
-0.00463829
-0.0047869
-0.0049326
-0.00507455
-0.00521159
-0.00534229
-0.00546495
-0.00557769
-0.0056784
-0.00576484
-0.00583467
-0.00588544
-0.00591471
-0.00592002
-0.00589899
-0.00584937
-0.00576905
-0.00565617
-0.00550916
-0.00532675
-0.00510813
-0.0048529
-0.00456119
-0.00423369
-0.00387169
-0.00347715
-0.00305266
-0.00260152
-0.0021277
-0.00163586
-0.00113128
-0.000619871
-0.000108031
0.000397391
0.000889228
0.00136011
0.00180263
0.00220949
0.00257365
0.00288855
0.00314823
0.00334756
0.00348232
0.00354938
0.00354679
0.00347386
0.00333116
0.00312055
0.00284514
0.00250915
0.00211782
0.00167729
0.00119434
0.000676296
0.000130742
-0.000434877
-0.00101323
-0.00159404
-0.00216759
-0.0027696
-0.00343587
0.000270247
-0.000467557
-0.00104739
-0.00152154
-0.00194829
-0.00233021
-0.00266961
-0.00297265
-0.00324526
-0.00349263
-0.00371952
-0.00393017
-0.0041283
-0.00431707
-0.00449912
-0.00467654
-0.00485095
-0.00502345
-0.00519471
-0.00536493
-0.00553394
-0.00570117
-0.00586568
-0.00602622
-0.00618123
-0.0063289
-0.00646716
-0.00659373
-0.00670618
-0.00680193
-0.0068783
-0.00693258
-0.00696202
-0.00696396
-0.00693579
-0.00687509
-0.00677963
-0.00664748
-0.00647703
-0.00626707
-0.00601687
-0.0057262
-0.00539545
-0.00502564
-0.00461846
-0.00417635
-0.00370248
-0.00320079
-0.00267598
-0.0021335
-0.00157949
-0.00102072
-0.00046452
8.13538e-05
0.000608836
0.00110971
0.00157579
0.00199908
0.002372
0.00268757
0.00293963
0.00312296
0.00323351
0.0032685
0.00322653
0.00310765
0.00291334
0.00264649
0.00231134
0.00191332
0.00145889
0.000955367
0.000410688
-0.000166823
-0.000768949
-0.00138756
-0.00201133
-0.00262949
-0.00328083
-0.00400412
-0.000290809
-0.00104437
-0.00163645
-0.00212058
-0.00255649
-0.00294698
-0.00329459
-0.0036058
-0.00388678
-0.00414301
-0.00437944
-0.00460051
-0.0048101
-0.0050115
-0.00520742
-0.00540005
-0.00559102
-0.00578147
-0.00597206
-0.00616298
-0.006354
-0.00654448
-0.00673342
-0.00691947
-0.00710094
-0.00727587
-0.00744203
-0.00759698
-0.00773807
-0.00786248
-0.00796729
-0.0080495
-0.00810608
-0.00813402
-0.00813039
-0.00809238
-0.00801739
-0.00790309
-0.00774746
-0.00754888
-0.00730621
-0.00701884
-0.00668678
-0.0063107
-0.00589202
-0.00543291
-0.00493639
-0.0044063
-0.00384734
-0.00326505
-0.00266581
-0.00205673
-0.0014456
-0.000840789
-0.000251083
0.000314448
0.000846653
0.00133649
0.00177527
0.00215484
0.00246787
0.002708
0.00287011
0.00295043
0.00294672
0.00285834
0.00268627
0.00243313
0.00210307
0.00170167
0.00123574
0.00071309
0.000142348
-0.000467374
-0.00110702
-0.00176759
-0.00243656
-0.00310207
-0.00380618
-0.0045909
-0.000922495
-0.0016899
-0.0022928
-0.00278586
-0.00323009
-0.00362852
-0.00398391
-0.00430302
-0.00459231
-0.00485748
-0.00510371
-0.00533562
-0.00555722
-0.00577193
-0.00598256
-0.00619136
-0.0064
-0.00660965
-0.00682095
-0.00703407
-0.00724876
-0.0074643
-0.00767961
-0.00789325
-0.0081034
-0.00830798
-0.00850458
-0.00869057
-0.0088631
-0.00901912
-0.00915544
-0.00926877
-0.00935577
-0.00941307
-0.00943739
-0.00942552
-0.00937444
-0.00928139
-0.00914388
-0.00895986
-0.00872772
-0.00844641
-0.00811549
-0.00773524
-0.0073067
-0.00683175
-0.00631315
-0.00575459
-0.00516071
-0.0045371
-0.00389031
-0.00322776
-0.0025577
-0.00188909
-0.00123147
-0.000594797
1.07461e-05
0.000574986
0.00108799
0.00154033
0.00192334
0.00222937
0.00245203
0.00258641
0.00262923
0.00257901
0.0024361
0.00220272
0.00188284
0.00148214
0.00100771
0.000467927
-0.000127899
-0.000769798
-0.0014478
-0.00215195
-0.00286841
-0.00358411
-0.00434466
-0.00519553
-0.00162626
-0.00240553
-0.0030178
-0.00351872
-0.00397041
-0.00437613
-0.00473884
-0.00506561
-0.00536312
-0.00563734
-0.00589362
-0.00613676
-0.00637091
-0.00659962
-0.00682579
-0.00705172
-0.00727913
-0.00750922
-0.00774262
-0.00797949
-0.00821952
-0.00846195
-0.00870563
-0.008949
-0.00919015
-0.00942684
-0.00965653
-0.00987637
-0.0100833
-0.0102741
-0.0104452
-0.010593
-0.010714
-0.0108043
-0.0108603
-0.0108784
-0.0108551
-0.0107871
-0.0106715
-0.0105057
-0.0102875
-0.0100156
-0.00968879
-0.00930701
-0.00887083
-0.00838175
-0.00784221
-0.00725565
-0.00662659
-0.00596061
-0.00526436
-0.00454552
-0.00381277
-0.00307564
-0.00234445
-0.00163007
-0.000943752
-0.000296903
0.000299205
0.000833714
0.00129648
0.00167836
0.00197151
0.00216967
0.00226836
0.00226504
0.00215927
0.00195269
0.00164903
0.00125392
0.000774769
0.000220435
-0.000399013
-0.00107271
-0.00178968
-0.00253891
-0.00330516
-0.00407398
-0.00489482
-0.00581688
-0.00240329
-0.00319239
-0.00381254
-0.00432023
-0.00477851
-0.00519085
-0.00556044
-0.00589459
-0.00620025
-0.00648358
-0.00675014
-0.00700489
-0.00725213
-0.0074955
-0.00773801
-0.00798201
-0.00822929
-0.00848105
-0.00873792
-0.00900006
-0.00926712
-0.00953829
-0.00981234
-0.0100876
-0.0103621
-0.0106335
-0.010899
-0.0111556
-0.0114001
-0.0116288
-0.0118382
-0.0120242
-0.0121829
-0.0123102
-0.0124019
-0.0124541
-0.0124626
-0.0124239
-0.0123344
-0.012191
-0.0119909
-0.0117321
-0.011413
-0.0110329
-0.0105919
-0.0100911
-0.00953234
-0.00891888
-0.00825498
-0.00754612
-0.006799
-0.0060215
-0.00522265
-0.00441256
-0.00360228
-0.00280363
-0.00202898
-0.00129105
-0.000602539
2.41116e-05
0.00057711
0.00104564
0.0014202
0.00169294
0.00185793
0.00191139
0.00185186
0.00168026
0.00139986
0.00101621
0.000536911
-2.86723e-05
-0.00066972
-0.0013744
-0.00213068
-0.00292635
-0.00374462
-0.00456955
-0.00545473
-0.00645335
-0.00325445
-0.00405132
-0.00467784
-0.00519119
-0.00565517
-0.00607347
-0.00644948
-0.00679074
-0.00710445
-0.00739695
-0.00767399
-0.0079407
-0.0082015
-0.00846017
-0.00871977
-0.00898276
-0.00925095
-0.00952556
-0.00980725
-0.0100961
-0.0103919
-0.0106936
-0.0110001
-0.0113095
-0.0116197
-0.0119283
-0.0122324
-0.0125287
-0.0128139
-0.0130841
-0.0133353
-0.0135633
-0.0137637
-0.0139321
-0.0140638
-0.0141545
-0.0141995
-0.0141947
-0.0141358
-0.0140193
-0.0138418
-0.0136005
-0.0132933
-0.0129188
-0.0124765
-0.0119668
-0.0113913
-0.0107527
-0.010055
-0.00930341
-0.00850463
-0.00766664