/*--------------------------------*- C++ -*----------------------------------*\
  =========                 |
  \\      /  F ield         | OpenFOAM: The Open Source CFD Toolbox
   \\    /   O peration     | Website:  https://openfoam.org
    \\  /    A nd           | Version:  7
     \\/     M anipulation  |
\*---------------------------------------------------------------------------*/
FoamFile
{
    version     2.0;
    format      ascii;
    class       volScalarField;
    location    "0.9";
    object      p;
}
// * * * * * * * * * * * * * * * * * * * * * * * * * * * * * * * * * * * * * //

dimensions      [0 2 -2 0 0 0 0];

internalField   nonuniform List<scalar> 
6400
(
-1.72052e-07
-3.85874e-06
-6.73731e-05
-0.000187779
-0.000350423
-0.000542128
-0.000751461
-0.000968724
-0.001186
-0.00139699
-0.00159674
-0.0017814
-0.001948
-0.00209432
-0.00221872
-0.00231999
-0.00239728
-0.00244999
-0.00247771
-0.00248017
-0.0024572
-0.00240872
-0.00233466
-0.00223503
-0.00210988
-0.00195931
-0.00178347
-0.0015826
-0.00135701
-0.00110716
-0.000833608
-0.0005371
-0.000218542
0.000120961
0.000480087
0.000857284
0.00125076
0.00165848
0.00207815
0.00250726
0.00294302
0.00338245
0.00382236
0.00425938
0.00469002
0.00511066
0.00551766
0.00590733
0.00627606
0.00662032
0.00693676
0.00722224
0.00747391
0.00768926
0.00786617
0.00800299
0.00809853
0.00815216
0.00816381
0.00813399
0.00806383
0.00795506
0.00781002
0.00763166
0.0074235
0.00718962
0.00693464
0.00666369
0.00638237
0.00609672
0.00581323
0.00553875
0.00528052
0.00504608
0.00484318
0.00467947
0.00456183
0.00449543
0.00448239
0.00451033
3.16595e-06
-4.26341e-07
-5.63635e-05
-0.000158339
-0.000294409
-0.000455222
-0.000632071
-0.000817141
-0.00100372
-0.00118623
-0.00136012
-0.00152175
-0.00166822
-0.00179727
-0.00190717
-0.0019966
-0.00206457
-0.00211035
-0.0021334
-0.00213336
-0.00210996
-0.002063
-0.0019924
-0.00189809
-0.00178009
-0.00163848
-0.00147341
-0.0012851
-0.00107386
-0.000840132
-0.000584486
-0.000307636
-1.04577e-05
0.00030599
0.000640447
0.00099144
0.00135728
0.00173605
0.00212563
0.00252365
0.00292754
0.00333455
0.00374171
0.00414595
0.00454403
0.00493267
0.0053085
0.00566819
0.00600844
0.00632606
0.006618
0.00688143
0.00711381
0.00731288
0.00747677
0.00760403
0.00769365
0.00774512
0.00775846
0.00773421
0.00767348
0.00757793
0.00744977
0.00729176
0.00710718
0.00689982
0.00667393
0.00643422
0.00618579
0.00593411
0.00568498
0.00544445
0.0052188
0.00501441
0.00483758
0.00469426
0.00458938
0.00452644
0.00451004
0.00453817
6.66759e-05
5.53018e-05
-1.04739e-06
-9.52989e-05
-0.000217608
-0.000360599
-0.000517344
-0.000681405
-0.000847106
-0.0010096
-0.00116481
-0.00130942
-0.00144071
-0.00155653
-0.00165518
-0.00173532
-0.00179593
-0.00183624
-0.00185565
-0.00185373
-0.00183015
-0.00178468
-0.00171717
-0.00162754
-0.00151577
-0.00138191
-0.00122608
-0.00104847
-0.000849396
-0.000629259
-0.000388602
-0.000128106
0.000151396
0.000448902
0.000763218
0.00109295
0.00143651
0.0017921
0.0021577
0.0025311
0.0029099
0.0032915
0.00367314
0.00405194
0.00442489
0.00478891
0.00514088
0.00547769
0.00579627
0.00609366
0.00636704
0.0066138
0.00683159
0.00701833
0.00717233
0.00729226
0.00737724
0.00742683
0.0074411
0.00742062
0.00736645
0.00728021
0.007164
0.00702043
0.0068526
0.00666406
0.00645878
0.00624112
0.00601579
0.0057878
0.0055624
0.00534504
0.00514124
0.00495659
0.0047965
0.00466594
0.00456905
0.00450909
0.00449324
0.00452561
0.00018823
0.000157565
9.2129e-05
-3.04507e-06
-0.000121019
-0.000255635
-0.000401154
-0.000552265
-0.0007042
-0.000852813
-0.000994576
-0.00112654
-0.00124628
-0.00135183
-0.00144161
-0.00151435
-0.00156909
-0.00160505
-0.00162163
-0.00161838
-0.00159496
-0.0015511
-0.00148662
-0.0014014
-0.00129541
-0.00116866
-0.00102124
-0.000853307
-0.000665132
-0.000457088
-0.000229672
1.64865e-05
0.000280613
0.000561767
0.000858827
0.00117049
0.00149524
0.0018314
0.00217707
0.00253016
0.00288839
0.00324931
0.00361033
0.00396869
0.00432157
0.00466605
0.00499917
0.00531799
0.00561961
0.00590123
0.00616018
0.006394
0.00660046
0.00677762
0.00692389
0.00703803
0.00711922
0.00716709
0.00718171
0.00716365
0.00711396
0.00703419
0.00692637
0.00679298
0.00663696
0.00646168
0.00627087
0.00606861
0.00585929
0.00564754
0.00543819
0.00523619
0.00504652
0.00487415
0.00472387
0.00460032
0.00450714
0.00444774
0.00443029
0.00446094
0.000354161
0.0002952
0.000213932
0.000112037
-7.289e-06
-0.000139014
-0.000278389
-0.000421123
-0.000563324
-0.000701542
-0.00083281
-0.000954615
-0.00106486
-0.00116183
-0.00124411
-0.00131057
-0.00136033
-0.00139265
-0.00140698
-0.00140286
-0.00137995
-0.00133797
-0.00127673
-0.00119607
-0.00109593
-0.000976291
-0.000837192
-0.000678762
-0.000501222
-0.000304895
-9.02222e-05
0.000142232
0.000391758
0.000657492
0.000938393
0.00123324
0.00154063
0.00185898
0.00218649
0.00252119
0.00286094
0.00320341
0.00354612
0.00388648
0.00422178
0.00454923
0.00486602
0.00516934
0.00545641
0.00572455
0.00597122
0.00619404
0.0063909
0.00655993
0.00669961
0.00680877
0.00688662
0.00693281
0.00694744
0.00693106
0.00688468
0.00680981
0.00670837
0.00658276
0.00643577
0.0062706
0.00609078
0.00590015
0.00570282
0.00550307
0.00530535
0.00511421
0.00493416
0.00476969
0.00462512
0.00450459
0.00441156
0.00434939
0.00432574
0.00434645
0.000552234
0.000459367
0.000357322
0.000244114
0.000118817
-1.45425e-05
-0.000152058
-0.000290368
-0.000426399
-0.000557386
-0.000680921
-0.000794945
-0.00089772
-0.000987807
-0.00106402
-0.00112538
-0.00117113
-0.00120063
-0.00121336
-0.00120891
-0.00118695
-0.00114719
-0.00108943
-0.0010135
-0.000919301
-0.000806766
-0.000675904
-0.000526792
-0.000359593
-0.000174573
2.78927e-05
0.000247311
0.000483051
0.000734332
0.0010002
0.00127953
0.00157101
0.00187316
0.00218429
0.00250254
0.00282588
0.00315208
0.0034788
0.00380354
0.0041237
0.00443661
0.00473955
0.00502981
0.0053047
0.00556163
0.00579812
0.00601188
0.00620085
0.00636321
0.00649748
0.0066025
0.00667753
0.00672221
0.00673662
0.00672129
0.00667722
0.00660582
0.00650897
0.00638895
0.00624845
0.0060905
0.00591847
0.00573599
0.0055469
0.00535523
0.0051651
0.00498067
0.00480611
0.00464547
0.00450269
0.00438146
0.00428508
0.00421671
0.0041825
0.00418683
0.000771615
0.000641649
0.000515494
0.000387443
0.000252453
0.000113722
-2.55576e-05
-0.000162876
-0.000295916
-0.000422555
-0.000540931
-0.000649442
-0.000746717
-0.000831624
-0.000903223
-0.000960737
-0.00100353
-0.00103109
-0.00104297
-0.00103879
-0.00101826
-0.00098112
-0.000927136
-0.000856132
-0.000767969
-0.00066255
-0.000539831
-0.000399835
-0.000242666
-6.85208e-05
0.000122305
0.000329396
0.000552206
0.00079004
0.00104204
0.00130717
0.00158423
0.00187183
0.00216838
0.00247214
0.00278115
0.0030933
0.00340634
0.00371785
0.00402532
0.00432616
0.00461773
0.00489737
0.00516246
0.00541045
0.00563891
0.00584558
0.00602842
0.00618562
0.00631572
0.00641756
0.00649038
0.00653382
0.00654792
0.00653318
0.00649055
0.00642139
0.00632751
0.0062111
0.00607474
0.00592135
0.00575413
0.00557654
0.00539223
0.00520497
0.00501862
0.00483706
0.00466412
0.00450352
0.00435884
0.00423343
0.00413038
0.00405263
0.00400426
0.00398769
0.00100278
0.000834158
0.00068176
0.000536338
0.00038887
0.000241879
9.79537e-05
-4.11684e-05
-0.000173865
-0.000298615
-0.000414076
-0.000519089
-0.000612665
-0.000693984
-0.000762369
-0.000817249
-0.000858147
-0.000884665
-0.000896455
-0.000893213
-0.000874669
-0.000840579
-0.000790722
-0.000724898
-0.000642934
-0.00054469
-0.000430077
-0.000299058
-0.000151666
1.19798e-05
0.000191666
0.000387064
0.000597716
0.000823023
0.00106222
0.00131438
0.0015784
0.00185297
0.00213662
0.00242768
0.00272431
0.00302447
0.00332597
0.00362649
0.00392357
0.00421467
0.0044972
0.00476854
0.0050261
0.00526733
0.00548982
0.00569131
0.00586974
0.00602331
0.00615052
0.00625018
0.00632151
0.00636409
0.00637795
0.00636353
0.00632172
0.00625382
0.00616157
0.0060471
0.00591288
0.00576172
0.00559671
0.00542116
0.00523854
0.00505245
0.00486652
0.0046844
0.00450963
0.00434568
0.00419582
0.0040631
0.00395041
0.0038605
0.00379519
0.00375468
0.0012375
0.00102968
0.000849803
0.000685306
0.000523363
0.000365942
0.000215126
7.19632e-05
-6.2564e-05
-0.000187489
-0.000301961
-0.000405251
-0.000496749
-0.000575953
-0.000642439
-0.000695852
-0.000735889
-0.000762284
-0.000774787
-0.000773167
-0.0007572
-0.000726664
-0.000681336
-0.000621
-0.000545451
-0.00045451
-0.000348029
-0.000225907
-8.81027e-05
6.53495e-05
0.000234323
0.000418581
0.000617764
0.000831372
0.00105874
0.00129905
0.00155127
0.00181422
0.00208652
0.00236657
0.00265261
0.00294269
0.00323468
0.00352629
0.00381514
0.00409871
0.00437442
0.00463967
0.00489186
0.00512844
0.00534698
0.00554517
0.00572093
0.00587241
0.00599806
0.00609665
0.00616732
0.0062096
0.00622347
0.0062093
0.00616791
0.00610055
0.00600889
0.00589498
0.00576121
0.00561031
0.00544526
0.00526926
0.00508564
0.00489785
0.00470935
0.00452361
0.00434396
0.00417364
0.00401568
0.00387288
0.00374799
0.00364358
0.00355918
0.00349279
0.00146863
0.0012217
0.00101377
0.000829114
0.000651311
0.000481868
0.000322448
0.000173474
3.53517e-05
-9.14654e-05
-0.000206594
-0.000309723
-0.0004006
-0.000479029
-0.00054485
-0.00059792
-0.000638112
-0.000665297
-0.00067933
-0.000680055
-0.000667298
-0.000640858
-0.000600511
-0.000546027
-0.00047717
-0.000393714
-0.000295454
-0.000182215
-5.38753e-05
8.96176e-05
0.000248231
0.000421826
0.000610145
0.000812793
0.00102921
0.00125867
0.00150026
0.00175289
0.00201525
0.00228585
0.002563
0.00284479
0.00312916
0.00341387
0.00369655
0.00397469
0.00424572
0.00450702
0.00475596
0.00498997
0.00520655
0.00540334
0.00557821
0.00572921
0.00585473
0.00595345
0.00602443
0.00606714
0.00608145
0.00606768
0.00602656
0.00595929
0.00586744
0.005753
0.00561831
0.005466
0.00529899
0.00512036
0.00493338
0.00474136
0.00454765
0.00435556
0.0041683
0.00398892
0.00382026
0.00366493
0.00352561
0.00340477
0.00329967
0.00320621
0.00168988
0.00140435
0.00116822
0.000962803
0.000768235
0.000585641
0.000416336
0.000260187
0.000117062
-1.30656e-05
-0.000130248
-0.000234569
-0.00032612
-0.000405001
-0.000471303
-0.000525098
-0.000566433
-0.000595315
-0.000611706
-0.000615525
-0.000606644
-0.000584884
-0.000550023
-0.000501812
-0.000439982
-0.00036426
-0.000274373
-0.000170071
-5.11481e-05
8.25425e-05
0.000231066
0.000394388
0.000572359
0.00076469
0.000970932
0.00119046
0.00142247
0.00166595
0.0019197
0.0021823
0.00245212
0.00272732
0.00300587
0.00328556
0.00356402
0.00383877
0.00410719
0.00436663
0.00461443
0.00484793
0.00506457
0.00526192
0.00543771
0.00558994
0.00571686
0.00581707
0.00588951
0.00593355
0.00594896
0.00593596
0.00589521
0.00582781
0.00573528
0.00561952
0.00548282
0.00532774
0.00515713
0.00497403
0.00478162
0.00458314
0.00438187
0.00418102
0.00398369
0.00379284
0.00361117
0.00344116
0.00328548
0.00314656
0.00301953
0.00289827
0.00189564
0.00157226
0.00130811
0.00108167
0.000869799
0.000673307
0.000493201
0.00032884
0.000179604
4.50127e-05
-7.53989e-05
-0.00018208
-0.000275448
-0.000355889
-0.000423739
-0.000479273
-0.000522708
-0.000554185
-0.000573767
-0.000581447
-0.00057714
-0.000560687
-0.000531865
-0.000490405
-0.000436002
-0.000368327
-0.000287039
-0.000191806
-8.23318e-05
4.16271e-05
0.000180241
0.000333586
0.000501623
0.000684178
0.000880911
0.00109131
0.00131467
0.00155008
0.00179642
0.00205235
0.00231631
0.00258649
0.00286092
0.00313739
0.00341354
0.00368685
0.00395469
0.00421435
0.00446308
0.00469817
0.00491693
0.00511682
0.00529548
0.00545074
0.00558075
0.00568395
0.00575918
0.00580566
0.00582304
0.00581144
0.00577141
0.00570395
0.00561051
0.00549292
0.00535341
0.00519448
0.00501895
0.00482981
0.00463019
0.00442331
0.0042124
0.00400063
0.00379105
0.00358656
0.0033898
0.00320318
0.00302943
0.00287105
0.00272108
0.00257155
0.0020808
0.00172048
0.00142871
0.00118125
0.000951827
0.000740981
0.000549454
0.000376127
0.000219918
7.9929e-05
-4.46885e-05
-0.000154731
-0.000250926
-0.000333931
-0.000404315
-0.000462549
-0.000509008
-0.000543964
-0.000567577
-0.000579904
-0.000580899
-0.00057042
-0.000548242
-0.000514072
-0.000467561
-0.000408319
-0.000335932
-0.000249983
-0.000150081
-3.58773e-05
9.29086e-05
0.000236468
0.000394878
0.000568084
0.000755861
0.000957809
0.00117333
0.00140162
0.00164164
0.00189212
0.00215156
0.00241822
0.00269012
0.00296509
0.00324075
0.00351455
0.0037838
0.00404573
0.00429751
0.00453629
0.00475928
0.00496382
0.00514736
0.00530761
0.00544254
0.00555045
0.00562999
0.00568024
0.00570072
0.00569139
0.00565269
0.00558552
0.00549124
0.0053716
0.00522876
0.00506521
0.0048837
0.00468721
0.00447888
0.00426191
0.00403953
0.00381491
0.00359111
0.00337103
0.00315731
0.00295233
0.00275899
0.00257988
0.00240612
0.0022279
0.00224067
0.00184442
0.00152557
0.00125729
0.0010103
0.000784881
0.000581541
0.000398712
0.000234878
8.87501e-05
-4.08817e-05
-0.000155144
-0.000255058
-0.000341538
-0.000415371
-0.000477215
-0.000527598
-0.000566907
-0.000595392
-0.000613169
-0.000620226
-0.000616435
-0.000601561
-0.000575281
-0.000537197
-0.000486853
-0.000423756
-0.000347399
-0.000257289
-0.000152969
-3.40405e-05
9.98088e-05
0.00024878
0.00041294
0.000592189
0.000786242
0.000994614
0.0012166
0.00145125
0.00169738
0.00195355
0.00221805
0.00248895
0.00276406
0.00304099
0.00331714
0.00358978
0.00385604
0.00411298
0.00435763
0.00458706
0.00479842
0.00498901
0.00515636
0.00529824
0.00541275
0.00549836
0.00555398
0.00557893
0.00557303
0.00553657
0.00547033
0.00537555
0.00525393
0.00510755
0.00493885
0.00475059
0.00454574
0.00432744
0.00409893
0.00386347
0.00362428
0.00338449
0.00314704
0.00291463
0.00268969
0.00247532
0.00227433
0.00207594
0.00186862
0.00237087
0.00193974
0.00159449
0.00130575
0.00104133
0.000801312
0.000585951
0.000393263
0.000221326
6.84771e-05
-6.68379e-05
-0.000186059
-0.000290483
-0.000381266
-0.000459404
-0.000525728
-0.000580906
-0.000625433
-0.000659639
-0.00068369
-0.000697607
-0.000701264
-0.000694411
-0.000676689
-0.000647642
-0.000606744
-0.00055342
-0.000487064
-0.000407077
-0.000312884
-0.000203963
-7.98743e-05
5.97127e-05
0.000214995
0.000386003
0.000572575
0.000774344
0.00099071
0.00122082
0.00146357
0.00171758
0.0019812
0.0022525
0.00252931
0.00280921
0.00308956
0.00336754
0.00364019
0.00390445
0.00415721
0.00439535
0.00461586
0.00481583
0.00499256
0.00514361
0.00526686
0.00536056
0.00542339
0.00545448
0.00545345
0.00542044
0.00535607
0.00526147
0.00513824
0.00498839
0.00481434
0.00461882
0.00440483
0.00417555
0.00393428
0.00368434
0.00342906
0.00317166
0.0029152
0.00266249
0.00241608
0.00217933
0.00195531
0.00173144
0.00149446
0.00246727
0.00200238
0.00163148
0.00132275
0.00104119
0.00078667
0.000559227
0.000356474
0.000176094
1.60701e-05
-0.000125482
-0.000250298
-0.000359938
-0.000455787
-0.000539035
-0.000610674
-0.000671501
-0.000722108
-0.000762893
-0.00079407
-0.000815681
-0.000827598
-0.000829545
-0.000821119
-0.000801803
-0.000770996
-0.000728029
-0.000672195
-0.000602778
-0.000519082
-0.000420453
-0.000306316
-0.000176205
-2.97809e-05
0.000133121
0.000312473
0.000508029
0.000719306
0.000945556
0.00118576
0.0014386
0.00170248
0.0019755
0.00225549
0.00253999
0.00282633
0.00311159
0.00339272
0.0036665
0.00392967
0.00417893
0.00441103
0.00462285
0.00481145
0.00497413
0.00510851
0.00521258
0.00528477
0.00532398
0.00532961
0.00530158
0.00524035
0.00514692
0.00502276
0.00486984
0.00469051
0.00448752
0.00426389
0.00402286
0.00376781
0.0035022
0.00322946
0.00295299
0.002676
0.00240147
0.00213212
0.00187164
0.00162343
0.00137312
0.00110578
0.00252596
0.00202847
0.00163274
0.00130457
0.00100627
0.00073746
0.000497992
0.00028508
9.60292e-05
-7.15211e-05
-0.000219771
-0.000350738
-0.000466233
-0.000567857
-0.000656981
-0.000734745
-0.000802061
-0.000859611
-0.000907854
-0.000947042
-0.000977226
-0.000998269
-0.00100986
-0.00101155
-0.00100275
-0.00098278
-0.000950868
-0.000906197
-0.000847931
-0.00077524
-0.000687335
-0.000583498
-0.000463112
-0.000325694
-0.000170932
1.28716e-06
0.000190854
0.000397406
0.000620308
0.000858635
0.00111115
0.00137632
0.00165225
0.0019368
0.00222747
0.00252154
0.00281602
0.00310771
0.00339327
0.00366924
0.00393212
0.00417842
0.00440477
0.00460794
0.00478495
0.00493312
0.00505015
0.00513418
0.00518381
0.00519821
0.00517705
0.0051206
0.00502968
0.00490564
0.00475035
0.00456615
0.00435576
0.00412224
0.00386893
0.00359932
0.00331701
0.00302563
0.00272874
0.0024298
0.00213199
0.00183826
0.00155269
0.00127906
0.00100124
0.000702583
0.00254318
0.00201433
0.00159464
0.00124766
0.000933073
0.000650291
0.000398947
0.000175875
-2.19882e-05
-0.000197337
-0.000352672
-0.000490284
-0.000612222
-0.00072029
-0.000816026
-0.000900707
-0.00097535
-0.00104072
-0.00109732
-0.00114544
-0.00118513
-0.00121623
-0.00123839
-0.0012511
-0.0012537
-0.00124542
-0.00122538
-0.00119265
-0.00114625
-0.00108523
-0.00100865
-0.000915623
-0.000805392
-0.00067731
-0.000530908
-0.000365921
-0.000182313
1.96929e-05
0.000239583
0.000476539
0.000729417
0.000996731
0.00127666
0.00156703
0.00186536
0.00216886
0.00247445
0.00277881
0.00307844
0.00336968
0.0036488
0.00391207
0.0041558
0.00437648
0.00457079
0.00473572
0.00486862
0.0049673
0.00503005
0.00505571
0.0050437
0.00499405
0.00490736
0.00478485
0.00462827
0.00443992
0.00422251
0.00397916
0.00371329
0.00342855
0.00312872
0.00281763
0.0024991
0.00217685
0.00185434
0.00153478
0.00122272
0.000922365
0.000615784
0.000284619
0.00251537
0.0019564
0.0015137
0.0011486
0.000818263
0.000521885
0.000258886
2.57226e-05
-0.000181029
-0.000364384
-0.000527139
-0.000671844
-0.000800775
-0.000915924
-0.00101899
-0.00111137
-0.00119419
-0.00126827
-0.00133417
-0.00139218
-0.00144235
-0.0014845
-0.00151823
-0.00154297
-0.00155796
-0.00156235
-0.00155513
-0.00153526
-0.00150162
-0.0014531
-0.0013886
-0.0013071
-0.00120764
-0.00108943
-0.000951813
-0.000794367
-0.000616894
-0.000419465
-0.000202454
3.344e-05
0.000287175
0.000557346
0.000842177
0.00113953
0.0014469
0.00176145
0.00208001
0.00239914
0.00271517
0.00302423
0.00332234
0.00360549
0.00386969
0.00411107
0.00432593
0.0045109
0.00466294
0.00477946
0.0048584
0.00489825
0.00489809
0.00485766
0.00477735
0.00465818
0.00450178
0.00431037
0.00408666
0.00383382
0.0035554
0.00325518
0.00293718
0.00260549
0.0022642
0.00191736
0.00156874
0.0012219
0.000881867
0.000553357
0.000216593
-0.000148567
0.00243908
0.00185131
0.0013866
0.00100412
0.000658627
0.000349089
7.47084e-05
-0.000168425
-0.00038409
-0.000575618
-0.000746087
-0.000898298
-0.00103474
-0.00115759
-0.0012687
-0.00136957
-0.00146142
-0.00154514
-0.0016213
-0.00169022
-0.00175193
-0.0018062
-0.00185259
-0.00189045
-0.00191895
-0.00193711
-0.00194381
-0.00193787
-0.00191803
-0.00188302
-0.00183158
-0.0017625
-0.00167466
-0.00156706
-0.00143889
-0.00128952
-0.00111859
-0.000925998
-0.000711962
-0.000477041
-0.000222156
5.13823e-05
0.000341867
0.000647193
0.000964862
0.00129199
0.00162533
0.00196131
0.00229609
0.00262559
0.00294557
0.00325169
0.00353963
0.00380513
0.0040441
0.00425273
0.00442755
0.00456553
0.00466418
0.00472156
0.00473641
0.00470812
0.00463679
0.00452322
0.00436888
0.0041759
0.00394697
0.00368533
0.00339462
0.00307885
0.00274224
0.00238919
0.00202413
0.00165148
0.00127537
0.000899737
0.000530179
0.000171955
-0.000196622
-0.000597562
0.00231103
0.00169585
0.00121016
0.000811103
0.000451092
0.000128874
-0.00015657
-0.000409515
-0.000634083
-0.000833916
-0.00101237
-0.00117248
-0.00131694
-0.00144811
-0.00156796
-0.00167813
-0.0017799
-0.0018742
-0.00196164
-0.00204254
-0.00211689
-0.00218445
-0.00224469
-0.00229689
-0.00234012
-0.00237329
-0.00239516
-0.00240439
-0.00239958
-0.00237929
-0.00234208
-0.00228655
-0.00221139
-0.0021154
-0.00199757
-0.00185707
-0.00169335
-0.00150611
-0.00129539
-0.0010616
-0.000805509
-0.000528314
-0.000231632
8.2488e-05
0.000411562
0.000752679
0.00110252
0.0014574
0.0018133
0.0021659
0.0025107
0.00284304
0.00315821
0.00345153
0.00371848
0.00395475
0.00415639
0.00431987
0.00444219
0.00452097
0.00455449
0.00454174
0.0044825
0.00437728
0.00422736
0.00403474
0.00380209
0.00353268
0.0032303
0.00289913
0.0025437
0.00216871
0.00177899
0.00137935
0.000974363
0.0005684
0.000167668
-0.000221971
-0.000624208
-0.00106302
0.00212809
0.00148695
0.000981382
0.000566577
0.000192729
-0.000141651
-0.000437808
-0.000700374
-0.000933811
-0.00114206
-0.00132874
-0.00149713
-0.00165012
-0.00179022
-0.00191955
-0.00203983
-0.00215242
-0.0022583
-0.00235809
-0.00245209
-0.00254028
-0.00262236
-0.00269774
-0.00276561
-0.00282494
-0.00287451
-0.00291295
-0.00293878
-0.00295042
-0.00294626
-0.00292467
-0.00288405
-0.00282287
-0.00273975
-0.00263342
-0.00250287
-0.00234729
-0.0021662
-0.00195944
-0.00172721
-0.00147012
-0.00118924
-0.000886047
-0.000562529
-0.000221127
0.000135241
0.000503201
0.000878951
0.0012583
0.00163671
0.00200939
0.00237132
0.0027174
0.0030425
0.0033416
0.00360986
0.00384278
0.00403626
0.00418674
0.0042913
0.00434769
0.00435446
0.00431095
0.00421737
0.00407475
0.00388492
0.00365049
0.00337477
0.00306166
0.00271558
0.00234133
0.00194401
0.00152885
0.00110113
0.0006659
0.000228011
-0.000205644
-0.000628548
-0.00106652
-0.00154563
0.00188728
0.00122171
0.000697415
0.00026774
-0.000119233
-0.000465228
-0.000771722
-0.0010437
-0.00128595
-0.00150271
-0.00169786
-0.0018749
-0.00203692
-0.00218659
-0.00232613
-0.00245738
-0.00258173
-0.00270022
-0.00281347
-0.00292177
-0.00302507
-0.003123
-0.00321492
-0.00329991
-0.00337683
-0.00344434
-0.00350094
-0.00354496
-0.00357468
-0.00358828
-0.00358393
-0.00355982
-0.00351422
-0.00344548
-0.00335212
-0.00323286
-0.00308669
-0.00291286
-0.00271098
-0.00248105
-0.00222349
-0.00193916
-0.00162943
-0.00129616
-0.000941732
-0.000569044
-0.000181507
0.000216978
0.000622059
0.00102898
0.00143263
0.00182766
0.00220853
0.00256962
0.00290535
0.00321033
0.00347941
0.00370788
0.00389153
0.0040268
0.00411087
0.00414172
0.00411822
0.00404018
0.00390831
0.00372424
0.00349048
0.00321035
0.00288787
0.00252769
0.00213493
0.00171509
0.00127385
0.000817037
0.0003502
-0.000121253
-0.000589684
-0.00104786
-0.00152387
-0.00204602
0.0015858
0.000897389
0.000355583
-8.80447e-05
-0.000487396
-0.000844434
-0.00116087
-0.00144203
-0.00169303
-0.0019184
-0.00212226
-0.00230833
-0.0024799
-0.00263976
-0.00279028
-0.00293336
-0.00307047
-0.00320264
-0.00333052
-0.00345439
-0.00357414
-0.00368936
-0.00379931
-0.00390298
-0.00399914
-0.00408629
-0.00416278
-0.0042268
-0.00427642
-0.00430963
-0.0043244
-0.00431868
-0.0042905
-0.00423796
-0.00415932
-0.00405306
-0.00391786
-0.00375273
-0.00355702
-0.00333048
-0.00307328
-0.00278609
-0.0024701
-0.00212701
-0.00175913
-0.00136928
-0.000960906
-0.000537971
-0.000104976
0.000333103
0.000770869
0.00120258
0.00162226
0.00202376
0.00240093
0.00274772
0.0030583
0.00332724
0.00354962
0.00372115
0.00383832
0.00389849
0.00389994
0.00384198
0.00372496
0.00355023
0.00332016
0.00303803
0.002708
0.00233492
0.00192427
0.00148195
0.00101418
0.000527341
2.75713e-05
-0.000479123
-0.000984282
-0.00147989
-0.00199647
-0.00256473
0.00122102
0.000511457
-4.66035e-05
-0.000503227
-0.00091418
-0.00128167
-0.00160763
-0.00189773
-0.00215741
-0.00239147
-0.00260429
-0.00279979
-0.00298143
-0.00315216
-0.00331444
-0.00347025
-0.00362111
-0.0037681
-0.00391184
-0.0040526
-0.00419023
-0.00432425
-0.00445384
-0.0045779
-0.00469506
-0.00480371
-0.00490202
-0.00498801
-0.00505957
-0.00511448
-0.00515048
-0.00516529
-0.00515667
-0.00512246
-0.00506064
-0.00496937
-0.00484708
-0.00469246
-0.00450456
-0.00428285
-0.00402724
-0.00373815
-0.00341652
-0.0030639
-0.00268244
-0.00227489
-0.00184466
-0.00139576
-0.000932825
-0.000461025
1.39497e-05
0.000485981
0.000948615
0.00139517
0.00181885
0.0022129
0.00257075
0.00288617
0.00315341
0.00336738
0.00352377
0.00361917
0.00365122
0.00361863
0.00352127
0.00336014
0.0031374
0.00285629
0.00252103
0.0021367
0.00170912
0.00124466
0.000750103
0.000232431
-0.000301557
-0.000845196
-0.00138913
-0.00192448
-0.0024844
-0.00310219
0.000790527
6.15678e-05
-0.000511432
-0.000980059
-0.00140181
-0.00177913
-0.00211419
-0.00241299
-0.00268129
-0.00292413
-0.00314615
-0.00335148
-0.00354373
-0.00372599
-0.00390084
-0.00407031
-0.00423599
-0.00439895
-0.00455984
-0.00471888
-0.00487589
-0.00503032
-0.00518127
-0.00532753
-0.0054676
-0.00559973
-0.00572196
-0.0058321
-0.00592785
-0.00600678
-0.00606639
-0.00610413
-0.00611751
-0.00610406
-0.00606147
-0.00598759
-0.00588049
-0.00573856
-0.00556052
-0.00534551
-0.00509311
-0.00480345
-0.00447723
-0.00411574
-0.00372095
-0.00329549
-0.00284269
-0.00236659
-0.00187189
-0.00136396
-0.000848759
-0.000332786
0.000177027
0.000673417
0.00114892
0.00159604
0.00200736
0.00237576
0.0026946
0.00295784
0.00316026
0.0032976
0.00336668
0.00336552
0.0032934
0.00315088
0.00293985
0.00266341
0.00232582
0.00193239
0.00148928
0.00100335
0.00048198
-6.71716e-05
-0.000636594
-0.00121889
-0.00180373
-0.00238128
-0.00298755
-0.0036586
0.000292112
-0.000454404
-0.00104098
-0.00152058
-0.00195229
-0.00233881
-0.00268254
-0.0029898
-0.00326663
-0.00351836
-0.00374984
-0.00396539
-0.00416881
-0.0043633
-0.00455152
-0.00473562
-0.00491718
-0.00509733
-0.0052767
-0.00545547
-0.00563343
-0.00580995
-0.00598406
-0.00615444
-0.00631946
-0.00647724
-0.00662563
-0.00676228
-0.00688468
-0.00699018
-0.00707601
-0.00713937
-0.00717747
-0.00718755
-0.00716695
-0.00711318
-0.00702397
-0.00689732
-0.00673159
-0.00652555
-0.00627843
-0.00599001
-0.00566066
-0.0052914
-0.00488396
-0.00444077
-0.00396507
-0.00346084
-0.00293284
-0.00238658
-0.00182829
-0.00126483
-0.000703607
-0.000152483
0.000380373
0.000886639
0.00135802
0.00178642
0.00216416
0.00248417
0.00274019
0.00292695
0.00304034
0.00307752
0.00303708
0.00291903
0.00272486
0.00245748
0.00212114
0.00172133
0.00126457
0.000758227
0.000210312
-0.000370777
-0.000976752
-0.00159942
-0.00222734
-0.00284969
-0.00350552
-0.00423391
-0.000276194
-0.00103835
-0.00163707
-0.0021266
-0.00256743
-0.0029625
-0.00331445
-0.00362991
-0.00391521
-0.00417592
-0.00441711
-0.0046433
-0.00485844
-0.00506585
-0.0052683
-0.00546798
-0.00566654
-0.00586511
-0.00606431
-0.00626432
-0.00646485
-0.00666523
-0.00686439
-0.0070609
-0.00725302
-0.00743872
-0.00761568
-0.00778138
-0.00793309
-0.0080679
-0.00818282
-0.00827476
-0.0083406
-0.00837727
-0.00838177
-0.00835121
-0.00828295
-0.00817459
-0.00802407
-0.00782974
-0.00759043
-0.00730551
-0.00697499
-0.00659955
-0.00618059
-0.00572033
-0.00522181
-0.00468893
-0.00412645
-0.00353998
-0.00293596
-0.00232161
-0.00170481
-0.00109403
-0.000498166
7.35936e-05
0.000611983
0.00110785
0.00155239
0.00193735
0.00225529
0.00249978
0.00266562
0.00274898
0.00274758
0.00266076
0.00248948
0.00223637
0.00190561
0.00150282
0.00103485
0.000509593
-6.42508e-05
-0.000677495
-0.001321
-0.0019857
-0.00265896
-0.00332882
-0.00403766
-0.00482778
-0.000916102
-0.00169192
-0.00230133
-0.00279968
-0.00324876
-0.00365172
-0.00401145
-0.00433486
-0.00462854
-0.00489832
-0.00514948
-0.00538672
-0.00561413
-0.00583516
-0.00605268
-0.00626893
-0.0064856
-0.00670384
-0.00692427
-0.00714703
-0.00737181
-0.00759786
-0.00782401
-0.00804876
-0.00827024
-0.00848625
-0.00869434
-0.00889176
-0.0090756
-0.0092427
-0.00938979
-0.0095135
-0.00961039
-0.00967704
-0.00971006
-0.00970619
-0.00966235
-0.00957569
-0.00944371
-0.00926429
-0.00903581
-0.00875718
-0.00842797
-0.00804843
-0.00761964
-0.00714347
-0.00662272
-0.00606114
-0.00546341
-0.00483522
-0.00418316
-0.00351477
-0.00283838
-0.00216306
-0.00149848
-0.000854722
-0.000242075
0.000329156
0.000848915
0.00130765
0.00169659
0.00200798
0.00223534
0.00237369
0.0024197
0.00237184
0.00223046
0.00199775
0.00167773
0.00127609
0.000799993
0.000257872
-0.000340874
-0.0009862
-0.00166805
-0.00237636
-0.00309722
-0.00381743
-0.00458292
-0.00543949
-0.00162905
-0.00241647
-0.00303507
-0.00354115
-0.00399759
-0.00440778
-0.00477482
-0.0051059
-0.00540789
-0.00568683
-0.0059482
-0.00619689
-0.00643712
-0.00667247
-0.00690587
-0.00713966
-0.00737556
-0.00761472
-0.00785778
-0.00810484
-0.00835555
-0.0086091
-0.00886426
-0.00911941
-0.00937256
-0.00962138
-0.00986324
-0.0100952
-0.0103142
-0.0105167
-0.0106992
-0.0108582
-0.0109897
-0.01109
-0.0111553
-0.0111819
-0.0111663
-0.0111052
-0.0109955
-0.0108347
-0.0106206
-0.0103515
-0.0100266
-0.00964569
-0.00920929
-0.00871895
-0.00817713
-0.00758734
-0.00695414
-0.00628318
-0.00558118
-0.00485593
-0.00411619
-0.00337163
-0.00263266
-0.0019103
-0.00121593
-0.000561097
4.28035e-05
0.000584774
0.00105454
0.00144284
0.00174175
0.00194489
0.00204772
0.00204766
0.00194422
0.00173905
0.00143587
0.00104036
0.000559966
3.62913e-06
-0.000618508
-0.00129549
-0.00201624
-0.00276965
-0.00354037
-0.00431383
-0.00513983
-0.00606789
-0.00241617
-0.00321312
-0.00383937
-0.00435205
-0.00481495
-0.00523169
-0.00560557
-0.00594406
-0.00625424
-0.00654241
-0.00681423
-0.00707475
-0.00732832
-0.00757865
-0.00782876
-0.00808103
-0.00833724
-0.00859856
-0.00886562
-0.00913851
-0.00941685
-0.00969976
-0.00998594
-0.0102737
-0.0105609
-0.010845
-0.0111234
-0.0113929
-0.01165
-0.0118913
-0.0121128
-0.0123105
-0.0124804
-0.0126183
-0.0127199
-0.0127812
-0.0127981
-0.0127667
-0.0126836
-0.0125455
-0.0123498
-0.0120942
-0.0117772
-0.0113981
-0.0109569
-0.0104548
-0.00989365
-0.00927677
-0.00860845
-0.00789424
-0.00714091
-0.00635644
-0.00554997
-0.00473171
-0.00391285
-0.00310533
-0.00232167
-0.00157472
-0.00087735
-0.000242133
0.000318993
0.000795076
0.0011765
0.0014553
0.00162548
0.00168317
0.00162687
0.00145748
0.00117827
0.000794828
0.000314789
-0.000252404
-0.000895851
-0.00160362
-0.00236357
-0.00316341
-0.00398619
-0.00481589
-0.00570641
-0.0067113
-0.00327831
-0.00408267
-0.00471501
-0.00523316
-0.00570161
-0.0061242
-0.00650444
-0.00685004
-0.00716832
-0.00746576
-0.00774823
-0.00802091
-0.00828832
-0.00855425
-0.00882182
-0.00909349
-0.00937105
-0.00965571
-0.00994811
-0.0102483
-0.010556
-0.0108701
-0.0111893
-0.0115118
-0.0118354
-0.0121575
-0.0124752
-0.0127851
-0.0130836
-0.013367
-0.013631
-0.0138714
-0.0140837
-0.0142633
-0.0144056
-0.0145059
-0.0145598
-0.0145628
-0.0145109
-0.0144001
-0.0142273
-0.0139895
-0.0136846
-0.0133112
-0.0128688
-0.0123578
-0.0117799
-0.0111377
-0.0104353