/*--------------------------------*- C++ -*----------------------------------*\
  =========                 |
  \\      /  F ield         | OpenFOAM: The Open Source CFD Toolbox
   \\    /   O peration     | Website:  https://openfoam.org
    \\  /    A nd           | Version:  7
     \\/     M anipulation  |
\*---------------------------------------------------------------------------*/
FoamFile
{
    version     2.0;
    format      ascii;
    class       surfaceScalarField;
    location    "0.9";
    object      phi;
}
// * * * * * * * * * * * * * * * * * * * * * * * * * * * * * * * * * * * * * //

dimensions      [0 3 -1 0 0 0 0];

internalField   nonuniform List<scalar> 
12640
(
2.2169e-10
-2.20985e-10
6.08529e-10
-3.86778e-10
9.19009e-10
-3.10554e-10
1.02244e-09
-1.03338e-10
8.60568e-10
1.61883e-10
4.14718e-10
4.45852e-10
-3.1203e-10
7.26719e-10
-1.30465e-09
9.92598e-10
-2.54189e-09
1.23725e-09
-3.99962e-09
1.45775e-09
-5.65277e-09
1.65315e-09
-7.47648e-09
1.82369e-09
-9.44676e-09
1.97028e-09
-1.15409e-08
2.09419e-09
-1.37379e-08
2.19691e-09
-1.60178e-08
2.27992e-09
-1.83624e-08
2.34466e-09
-2.07549e-08
2.39247e-09
-2.31794e-08
2.42455e-09
-2.56213e-08
2.4419e-09
-2.80667e-08
2.44534e-09
-3.05022e-08
2.43551e-09
-3.29151e-08
2.41287e-09
-3.52928e-08
2.37776e-09
-3.76232e-08
2.33033e-09
-3.98938e-08
2.27065e-09
-4.20925e-08
2.19869e-09
-4.42068e-08
2.11437e-09
-4.62245e-08
2.01761e-09
-4.81327e-08
1.90827e-09
-4.9919e-08
1.78629e-09
-5.15707e-08
1.65165e-09
-5.30751e-08
1.5044e-09
-5.44198e-08
1.34472e-09
-5.55927e-08
1.17289e-09
-5.65821e-08
9.89386e-10
-5.73769e-08
7.94826e-10
-5.79669e-08
5.9002e-10
-5.83429e-08
3.75966e-10
-5.84967e-08
1.53858e-10
-5.84218e-08
-7.49055e-11
-5.81131e-08
-3.08728e-10
-5.75673e-08
-5.45814e-10
-5.67831e-08
-7.84192e-10
-5.57613e-08
-1.02172e-09
-5.45052e-08
-1.25613e-09
-5.30202e-08
-1.48503e-09
-5.13143e-08
-1.70592e-09
-4.9398e-08
-1.91631e-09
-4.72843e-08
-2.11364e-09
-4.49889e-08
-2.29542e-09
-4.25297e-08
-2.45921e-09
-3.9927e-08
-2.6027e-09
-3.72032e-08
-2.72377e-09
-3.43828e-08
-2.82047e-09
-3.14917e-08
-2.89113e-09
-2.85573e-08
-2.93437e-09
-2.56081e-08
-2.94914e-09
-2.26734e-08
-2.93472e-09
-1.97826e-08
-2.8908e-09
-1.69652e-08
-2.81744e-09
-1.425e-08
-2.71514e-09
-1.16652e-08
-2.58479e-09
-9.23755e-09
-2.42769e-09
-6.99195e-09
-2.24559e-09
-4.95135e-09
-2.0406e-09
-3.13607e-09
-1.81527e-09
-1.56351e-09
-1.57256e-09
-2.47618e-10
-1.31588e-09
8.0158e-10
-1.04919e-09
1.5786e-09
-7.77015e-10
2.08337e-09
-5.04769e-10
2.32244e-09
-2.39069e-10
2.31073e-09
1.17066e-11
2.07462e-09
2.36113e-10
1.65604e-09
4.18577e-10
1.11949e-09
5.36551e-10
5.62755e-10
5.56749e-10
1.32812e-10
4.29962e-10
1.32832e-10
3.89192e-10
-6.10109e-10
8.86158e-10
-8.83836e-10
1.10767e-09
-5.32042e-10
8.2136e-10
1.82863e-10
-1.02971e-10
1.08624e-09
-1.72248e-09
2.06542e-09
-4.04548e-09
3.0497e-09
-7.04869e-09
3.99578e-09
-1.06897e-08
4.87826e-09
-1.49151e-08
5.68318e-09
-1.96659e-08
6.40394e-09
-2.48809e-08
7.0387e-09
-3.04993e-08
7.58865e-09
-3.64619e-08
8.0568e-09
-4.27122e-08
8.44712e-09
-4.91964e-08
8.76409e-09
-5.5864e-08
9.01225e-09
-6.26674e-08
9.19589e-09
-6.95618e-08
9.31893e-09
-7.65046e-08
9.38479e-09
-8.34556e-08
9.39631e-09
-9.03759e-08
9.35579e-09
-9.7228e-08
9.26495e-09
-1.03975e-07
9.12501e-09
-1.10582e-07
8.93673e-09
-1.17012e-07
8.70051e-09
-1.23229e-07
8.41644e-09
-1.29199e-07
8.08447e-09
-1.34886e-07
7.70444e-09
-1.40254e-07
7.27622e-09
-1.45268e-07
6.79979e-09
-1.49891e-07
6.27538e-09
-1.54091e-07
5.70352e-09
-1.57831e-07
5.08514e-09
-1.6108e-07
4.42164e-09
-1.63805e-07
3.71499e-09
-1.65978e-07
2.96776e-09
-1.67571e-07
2.18322e-09
-1.68561e-07
1.36528e-09
-1.68925e-07
5.18598e-10
-1.68649e-07
-3.51445e-10
-1.67719e-07
-1.23878e-09
-1.66128e-07
-2.13665e-09
-1.63874e-07
-3.03768e-09
-1.60962e-07
-3.93391e-09
-1.57402e-07
-4.81689e-09
-1.53209e-07
-5.67779e-09
-1.48407e-07
-6.5075e-09
-1.43027e-07
-7.29676e-09
-1.37104e-07
-8.03631e-09
-1.30682e-07
-8.71703e-09
-1.23812e-07
-9.3301e-09
-1.16547e-07
-9.86716e-09
-1.0895e-07
-1.03205e-08
-1.01088e-07
-1.06831e-08
-9.303e-08
-1.09489e-08
-8.48513e-08
-1.1113e-08
-7.66287e-08
-1.11717e-08
-6.8441e-08
-1.11225e-08
-6.03676e-08
-1.09642e-08
-5.24876e-08
-1.06973e-08
-4.4879e-08
-1.03238e-08
-3.76168e-08
-9.84693e-09
-3.07727e-08
-9.27182e-09
-2.44133e-08
-8.60497e-09
-1.85994e-08
-7.85452e-09
-1.33845e-08
-7.03018e-09
-8.81369e-09
-6.14331e-09
-4.92248e-09
-5.20708e-09
-1.73499e-09
-4.23667e-09
7.3769e-10
-3.24969e-09
2.49978e-09
-2.26685e-09
3.57367e-09
-1.31296e-09
4.00416e-09
-4.18778e-10
3.86357e-09
3.76718e-10
3.25873e-09
1.02342e-09
2.34023e-09
1.45505e-09
1.31085e-09
1.58611e-09
4.28015e-10
1.31278e-09
5.60858e-10
3.16711e-10
-9.26895e-10
5.41561e-10
-1.10848e-09
2.48096e-10
-2.38593e-10
-8.29514e-10
1.26041e-09
-2.85011e-09
3.10684e-09
-5.89007e-09
5.10538e-09
-9.96512e-09
7.12474e-09
-1.5049e-08
9.07962e-09
-2.10872e-08
1.09165e-08
-2.80076e-08
1.26036e-08
-3.57276e-08
1.41239e-08
-4.41594e-08
1.54705e-08
-5.32138e-08
1.6643e-08
-6.28024e-08
1.76455e-08
-7.28396e-08
1.84843e-08
-8.32429e-08
1.91674e-08
-9.39336e-08
1.97029e-08
-1.04837e-07
2.00991e-08
-1.15881e-07
2.03636e-08
-1.27e-07
2.05029e-08
-1.38126e-07
2.05228e-08
-1.49198e-07
2.0428e-08
-1.60155e-07
2.02219e-08
-1.70938e-07
1.99073e-08
-1.81487e-07
1.94859e-08
-1.91745e-07
1.89588e-08
-2.01655e-07
1.83263e-08
-2.11159e-07
1.75888e-08
-2.20201e-07
1.67463e-08
-2.28724e-07
1.57989e-08
-2.36671e-07
1.4747e-08
-2.43987e-07
1.35915e-08
-2.50618e-07
1.2334e-08
-2.56509e-07
1.09769e-08
-2.61612e-07
9.52374e-09
-2.65876e-07
7.97908e-09
-2.69257e-07
6.34884e-09
-2.71714e-07
4.64029e-09
-2.73211e-07
2.86218e-09
-2.73717e-07
1.0247e-09
-2.73208e-07
-8.60467e-10
-2.71666e-07
-2.78017e-09
-2.69083e-07
-4.7199e-09
-2.65457e-07
-6.66383e-09
-2.60796e-07
-8.59501e-09
-2.55117e-07
-1.04955e-08
-2.48448e-07
-1.23466e-08
-2.40827e-07
-1.41292e-08
-2.323e-07
-1.58235e-08
-2.22926e-07
-1.74103e-08
-2.12772e-07
-1.88704e-08
-2.01917e-07
-2.01853e-08
-1.90447e-07
-2.13375e-08
-1.78457e-07
-2.23109e-08
-1.66049e-07
-2.30909e-08
-1.53333e-07
-2.3665e-08
-1.40423e-07
-2.4023e-08
-1.27437e-07
-2.4157e-08
-1.14498e-07
-2.40621e-08
-1.01726e-07
-2.37361e-08
-8.92432e-08
-2.318e-08
-7.7169e-08
-2.23979e-08
-6.56185e-08
-2.13975e-08
-5.47009e-08
-2.01894e-08
-4.45182e-08
-1.87877e-08
-3.51626e-08
-1.721e-08
-2.67155e-08
-1.54773e-08
-1.92446e-08
-1.36142e-08
-1.28027e-08
-1.16491e-08
-7.42454e-09
-9.61479e-09
-3.12504e-09
-7.54919e-09
1.04487e-10
-5.49637e-09
2.29995e-09
-3.50842e-09
3.52891e-09
-1.64774e-09
3.89713e-09
8.50366e-12
3.5533e-09
1.36726e-09
2.69893e-09
2.30944e-09
1.59283e-09
2.69223e-09
5.55961e-10
2.34963e-09
1.11682e-09
1.11592e-10
-1.0385e-09
-1.76575e-10
-8.20347e-10
-1.26617e-09
8.5106e-10
-3.41629e-09
3.41058e-09
-6.7841e-09
6.47459e-09
-1.1446e-08
9.76728e-09
-1.74163e-08
1.30951e-08
-2.46633e-08
1.63266e-08
-3.31226e-08
1.93758e-08
-4.27079e-08
2.21889e-08
-5.33188e-08
2.47348e-08
-6.48474e-08
2.6999e-08
-7.71821e-08
2.89778e-08
-9.02113e-08
3.06747e-08
-1.03825e-07
3.20981e-08
-1.17917e-07
3.32591e-08
-1.32384e-07
3.41697e-08
-1.47127e-07
3.48423e-08
-1.62052e-07
3.52884e-08
-1.77067e-07
3.55184e-08
-1.92086e-07
3.55413e-08
-2.07022e-07
3.53647e-08
-2.21795e-07
3.49944e-08
-2.36322e-07
3.44348e-08
-2.50525e-07
3.36889e-08
-2.64325e-07
3.27589e-08
-2.77645e-07
3.16458e-08
-2.90407e-07
3.03506e-08
-3.02534e-07
2.88737e-08
-3.13951e-07
2.7216e-08
-3.24583e-07
2.53788e-08
-3.34356e-07
2.33643e-08
-3.43197e-07
2.11756e-08
-3.51038e-07
1.88178e-08
-3.57812e-07
1.62972e-08
-3.63455e-07
1.36223e-08
-3.6791e-07
1.08036e-08
-3.71124e-07
7.8542e-09
-3.7305e-07
4.78917e-09
-3.73652e-07
1.62625e-09
-3.72898e-07
-1.61441e-09
-3.70768e-07
-4.91032e-09
-3.67251e-07
-8.23671e-09
-3.62348e-07
-1.15667e-08
-3.56072e-07
-1.48716e-08
-3.48446e-07
-1.81212e-08
-3.39509e-07
-2.12839e-08
-3.2931e-07
-2.43275e-08
-3.17914e-07
-2.72193e-08
-3.05398e-07
-2.99266e-08
-2.91851e-07
-3.24176e-08
-2.77375e-07
-3.46613e-08
-2.62084e-07
-3.66287e-08
-2.46102e-07
-3.82928e-08
-2.29563e-07
-3.96296e-08
-2.1261e-07
-4.06181e-08
-1.95391e-07
-4.12415e-08
-1.78062e-07
-4.14867e-08
-1.60778e-07
-4.13456e-08
-1.43699e-07
-4.08149e-08
-1.26983e-07
-3.98963e-08
-1.10784e-07
-3.85972e-08
-9.52511e-08
-3.69302e-08
-8.05267e-08
-3.49137e-08
-6.67425e-08
-3.25719e-08
-5.40179e-08
-2.99346e-08
-4.24576e-08
-2.70376e-08
-3.21489e-08
-2.39228e-08
-2.31592e-08
-2.06387e-08
-1.5533e-08
-1.7241e-08
-9.28881e-09
-1.37934e-08
-4.41547e-09
-1.03697e-08
-8.68453e-10
-7.05543e-09
1.43504e-09
-3.95124e-09
2.62043e-09
-1.17689e-09
2.86325e-09
1.12444e-09
2.39269e-09
2.78e-09
1.49969e-09
3.58525e-09
5.45465e-10
3.30386e-09
1.66228e-09
-1.58218e-10
-8.80327e-10
-1.1082e-09
1.29593e-10
-3.18284e-09
2.92576e-09
-6.60359e-09
6.83136e-09
-1.15042e-08
1.13751e-08
-1.79459e-08
1.6209e-08
-2.59317e-08
2.10808e-08
-3.54194e-08
2.58144e-08
-4.63336e-08
3.029e-08
-5.85749e-08
3.44302e-08
-7.20283e-08
3.81882e-08
-8.6569e-08
4.15398e-08
-1.02067e-07
4.44763e-08
-1.18393e-07
4.7e-08
-1.35415e-07
4.91205e-08
-1.53007e-07
5.08513e-08
-1.71046e-07
5.22081e-08
-1.89411e-07
5.32072e-08
-2.07987e-07
5.38644e-08
-2.26662e-07
5.41939e-08
-2.45329e-07
5.42084e-08
-2.63883e-07
5.39184e-08
-2.82221e-07
5.33322e-08
-3.00243e-07
5.24565e-08
-3.17849e-07
5.12957e-08
-3.34944e-07
4.98534e-08
-3.5143e-07
4.81316e-08
-3.67211e-07
4.61322e-08
-3.82194e-07
4.38566e-08
-3.96285e-07
4.13068e-08
-4.09392e-07
3.84855e-08
-4.21424e-07
3.53968e-08
-4.32295e-07
3.20464e-08
-4.4192e-07
2.84425e-08
-4.50218e-07
2.45955e-08
-4.57115e-07
2.05189e-08
-4.6254e-07
1.62292e-08
-4.66432e-07
1.17464e-08
-4.68737e-07
7.0939e-09
-4.6941e-07
2.29864e-09
-4.68415e-07
-2.60889e-09
-4.65731e-07
-7.59477e-09
-4.61345e-07
-1.26218e-08
-4.55262e-07
-1.76499e-08
-4.47498e-07
-2.26361e-08
-4.38084e-07
-2.75354e-08
-4.27067e-07
-3.23011e-08
-4.14509e-07
-3.68852e-08
-4.00489e-07
-4.12395e-08
-3.851e-07
-4.53158e-08
-3.6845e-07
-4.90669e-08
-3.50664e-07
-5.24473e-08
-3.31879e-07
-5.54142e-08
-3.12244e-07
-5.79279e-08
-2.9192e-07
-5.9953e-08
-2.7108e-07
-6.14588e-08
-2.49901e-07
-6.24204e-08
-2.28568e-07
-6.2819e-08
-2.07272e-07
-6.26424e-08
-1.86201e-07
-6.1886e-08
-1.65544e-07
-6.05526e-08
-1.45488e-07
-5.86531e-08
-1.26212e-07
-5.62066e-08
-1.07885e-07
-5.32407e-08
-9.06655e-08
-4.97914e-08
-7.46968e-08
-4.59034e-08
-6.01042e-08
-4.16301e-08
-4.69927e-08
-3.70344e-08
-3.54431e-08
-3.21883e-08
-2.55093e-08
-2.71747e-08
-1.72149e-08
-2.20878e-08
-1.05493e-08
-1.70353e-08
-5.46417e-09
-1.21406e-08
-1.86896e-09
-7.54644e-09
3.72993e-10
-3.41885e-09
1.44972e-09
4.77046e-11
1.60504e-09
2.62467e-09
1.14522e-09
4.04507e-09
4.49107e-10
3.99998e-09
2.11139e-09
-4.57202e-10
-4.23086e-10
-2.15378e-09
1.82614e-09
-5.33256e-09
6.10449e-09
-1.01572e-08
1.16559e-08
-1.67219e-08
1.794e-08
-2.50606e-08
2.45477e-08
-3.5156e-08
3.11762e-08
-4.69499e-08
3.76082e-08
-6.03525e-08
4.36926e-08
-7.52508e-08
4.93284e-08
-9.15156e-08
5.4453e-08
-1.09007e-07
5.90316e-08
-1.27581e-07
6.305e-08
-1.4709e-07
6.65084e-08
-1.67386e-07
6.94166e-08
-1.88325e-07
7.17903e-08
-2.09765e-07
7.36485e-08
-2.31569e-07
7.50113e-08
-2.53603e-07
7.58984e-08
-2.75737e-07
7.6328e-08
-2.97845e-07
7.63163e-08
-3.19804e-07
7.5877e-08
-3.41493e-07
7.50211e-08
-3.62794e-07
7.37574e-08
-3.8359e-07
7.20924e-08
-4.03768e-07
7.0031e-08
-4.23213e-07
6.75768e-08
-4.41814e-07
6.47326e-08
-4.59458e-07
6.15015e-08
-4.76038e-07
5.78869e-08
-4.91446e-07
5.38935e-08
-5.05578e-07
4.9528e-08
-5.18331e-07
4.47995e-08
-5.29608e-07
3.972e-08
-5.39318e-07
3.43052e-08
-5.47374e-07
2.85744e-08
-5.53696e-07
2.25516e-08
-5.58215e-07
1.6265e-08
-5.60868e-07
9.74767e-09
-5.61607e-07
3.03738e-09
-5.60393e-07
-3.82332e-09
-5.572e-07
-1.07873e-08
-5.52019e-07
-1.7803e-08
-5.44854e-07
-2.4815e-08
-5.35726e-07
-3.17643e-08
-5.24672e-07
-3.85889e-08
-5.11748e-07
-4.52249e-08
-4.97027e-07
-5.16065e-08
-4.80599e-07
-5.76676e-08
-4.62572e-07
-6.33424e-08
-4.43073e-07
-6.85664e-08
-4.22242e-07
-7.32778e-08
-4.00239e-07
-7.74179e-08
-3.77234e-07
-8.09328e-08
-3.53413e-07
-8.37741e-08
-3.28971e-07
-8.59001e-08
-3.04115e-07
-8.72768e-08
-2.79055e-07
-8.78785e-08
-2.54009e-07
-8.76888e-08
-2.29194e-07
-8.67013e-08
-2.04826e-07
-8.49199e-08
-1.81119e-07
-8.23598e-08
-1.58279e-07
-7.90473e-08
-1.36499e-07
-7.50201e-08
-1.15963e-07
-7.03278e-08
-9.68344e-08
-6.5032e-08
-7.92581e-08
-5.92064e-08
-6.33555e-08
-5.2937e-08
-4.92209e-08
-4.63229e-08
-3.69185e-08
-3.94771e-08
-2.64789e-08
-3.25275e-08
-1.7895e-08
-2.56191e-08
-1.11194e-08
-1.89162e-08
-6.05995e-09
-1.26059e-08
-2.57659e-09
-6.90221e-09
-4.77574e-10
-2.0513e-09
4.84684e-10
1.66241e-09
6.186e-10
3.91115e-09
3.01494e-10
4.31709e-09
2.41288e-09
-7.66676e-10
3.43627e-10
-3.25294e-09
4.31238e-09
-7.60449e-09
1.0456e-08
-1.39163e-08
1.79677e-08
-2.22324e-08
2.62561e-08
-3.25496e-08
3.48649e-08
-4.48229e-08
4.34495e-08
-5.89725e-08
5.17578e-08
-7.48907e-08
5.96107e-08
-9.24487e-08
6.68865e-08
-1.11503e-07
7.35073e-08
-1.319e-07
7.94283e-08
-1.53479e-07
8.46298e-08
-1.7608e-07
8.91093e-08
-1.99541e-07
9.28768e-08
-2.237e-07
9.59499e-08
-2.48402e-07
9.83503e-08
-2.73492e-07
1.00102e-07
-2.98822e-07
1.01228e-07
-3.24244e-07
1.0175e-07
-3.49616e-07
1.01689e-07
-3.74799e-07
1.0106e-07
-3.99657e-07
9.98786e-08
-4.24054e-07
9.81549e-08
-4.47859e-07
9.58977e-08
-4.70942e-07
9.31135e-08
-4.93173e-07
8.98075e-08
-5.14424e-07
8.59842e-08
-5.34571e-07
8.16483e-08
-5.53489e-07
7.68054e-08
-5.71059e-07
7.14627e-08
-5.87161e-07
6.56301e-08
-6.01682e-07
5.93205e-08
-6.14513e-07
5.25511e-08
-6.25551e-07
4.53432e-08
-6.347e-07
3.77235e-08
-6.41872e-07
2.97241e-08
-6.4699e-07
2.13829e-08
-6.49986e-07
1.27438e-08
-6.50806e-07
3.85699e-09
-6.49408e-07
-5.22155e-09
-6.45765e-07
-1.44299e-08
-6.39867e-07
-2.37005e-08
-6.31721e-07
-3.2961e-08
-6.21351e-07
-4.21343e-08
-6.088e-07
-5.114e-08
-5.9413e-07
-5.98947e-08
-5.77424e-07
-6.83133e-08
-5.58781e-07
-7.63099e-08
-5.38324e-07
-8.37993e-08
-5.16193e-07
-9.06981e-08
-4.92545e-07
-9.69259e-08
-4.67556e-07
-1.02407e-07
-4.41417e-07
-1.07071e-07
-4.14334e-07
-1.10857e-07
-3.86525e-07
-1.13709e-07
-3.58218e-07
-1.15584e-07
-3.29649e-07
-1.16448e-07
-3.01059e-07
-1.16279e-07
-2.7269e-07
-1.1507e-07
-2.44783e-07
-1.12826e-07
-2.17577e-07
-1.09566e-07
-1.91301e-07
-1.05324e-07
-1.66173e-07
-1.00148e-07
-1.42397e-07
-9.41042e-08
-1.20157e-07
-8.72716e-08
-9.96174e-08
-7.97459e-08
-8.09155e-08
-7.16389e-08
-6.41597e-08
-6.30787e-08
-4.94258e-08
-5.4211e-08
-3.67534e-08
-4.51999e-08
-2.61426e-08
-3.62299e-08
-1.75507e-08
-2.75081e-08
-1.08893e-08
-1.92673e-08
-6.02121e-09
-1.17703e-08
-2.75781e-09
-5.3147e-09
-8.56247e-10
-2.39151e-10
-1.62101e-11
3.07111e-09
1.24693e-10
4.17619e-09
2.53758e-09
-1.07679e-09
1.42041e-09
-4.36957e-09
7.60517e-09
-9.92799e-09
1.60144e-08
-1.77733e-08
2.58131e-08
-2.7893e-08
3.63758e-08
-4.024e-08
4.72119e-08
-5.47357e-08
5.79451e-08
-7.12736e-08
6.82957e-08
-8.97247e-08
7.80619e-08
-1.09942e-07
8.71042e-08
-1.31767e-07
9.53319e-08
-1.5503e-07
1.02692e-07
-1.79559e-07
1.09159e-07
-2.05178e-07
1.14728e-07
-2.31712e-07
1.19411e-07
-2.58987e-07
1.23225e-07
-2.86833e-07
1.26196e-07
-3.15081e-07
1.2835e-07
-3.43568e-07
1.29715e-07
-3.72134e-07
1.30316e-07
-4.00621e-07
1.30176e-07
-4.28877e-07
1.29315e-07
-4.56749e-07
1.27751e-07
-4.84089e-07
1.25495e-07
-5.10751e-07
1.22559e-07
-5.36589e-07
1.18952e-07
-5.61462e-07
1.1468e-07
-5.85227e-07
1.0975e-07
-6.07746e-07
1.04168e-07
-6.28883e-07
9.79421e-08
-6.48504e-07
9.10834e-08
-6.66479e-07
8.36051e-08
-6.82683e-07
7.55249e-08
-6.96997e-07
6.68652e-08
-7.09308e-07
5.76545e-08
-7.19512e-07
4.79272e-08
-7.27513e-07
3.77248e-08
-7.33226e-07
2.70959e-08
-7.36579e-07
1.60965e-08
-7.37512e-07
4.79008e-09
-7.35981e-07
-6.75245e-09
-7.31958e-07
-1.8453e-08
-7.25432e-07
-3.02267e-08
-7.1641e-07
-4.19827e-08
-7.0492e-07
-5.36246e-08
-6.91008e-07
-6.50515e-08
-6.74744e-07
-7.61593e-08
-6.56215e-07
-8.68418e-08
-6.35533e-07
-9.69919e-08
-6.12829e-07
-1.06503e-07
-5.88256e-07
-1.15272e-07
-5.61985e-07
-1.23197e-07
-5.34207e-07
-1.30185e-07
-5.0513e-07
-1.36148e-07
-4.74979e-07
-1.41008e-07
-4.4399e-07
-1.44698e-07
-4.12412e-07
-1.47162e-07
-3.80502e-07
-1.48357e-07
-3.48524e-07
-1.48258e-07
-3.16741e-07
-1.46853e-07
-2.8542e-07
-1.44148e-07
-2.5482e-07
-1.40166e-07
-2.25193e-07
-1.34951e-07
-1.96779e-07
-1.28562e-07
-1.69804e-07
-1.2108e-07
-1.44472e-07
-1.12604e-07
-1.20965e-07
-1.03253e-07
-9.9438e-08
-9.31661e-08
-8.00141e-08
-8.25026e-08
-6.27827e-08
-7.14424e-08
-4.77949e-08
-6.01877e-08
-3.5061e-08
-4.89639e-08
-2.45469e-08
-3.80222e-08
-1.61722e-08
-2.7642e-08
-9.80756e-09
-1.81349e-08
-5.27325e-09
-9.84901e-09
-2.3374e-09
-3.175e-09
-7.15023e-10
1.44873e-09
-6.72411e-11
3.52841e-09
2.47034e-09
-1.38245e-09
2.80282e-09
-5.48262e-09
1.17054e-08
-1.22586e-08
2.27904e-08
-2.16571e-08
3.52116e-08
-3.36055e-08
4.83241e-08
-4.80087e-08
6.16152e-08
-6.47501e-08
7.46865e-08
-8.36928e-08
8.72384e-08
-1.04683e-07
9.90523e-08
-1.27554e-07
1.09975e-07
-1.52129e-07
1.19907e-07
-1.78225e-07
1.28787e-07
-2.05653e-07
1.36587e-07
-2.34227e-07
1.43302e-07
-2.63757e-07
1.48941e-07
-2.94059e-07
1.53526e-07
-3.24948e-07
1.57085e-07
-3.56245e-07
1.59647e-07
-3.87774e-07
1.61243e-07
-4.19361e-07
1.61903e-07
-4.50838e-07
1.61652e-07
-4.82037e-07
1.60514e-07
-5.12794e-07
1.58508e-07
-5.42949e-07
1.5565e-07
-5.72341e-07
1.51952e-07
-6.00814e-07
1.47425e-07
-6.28212e-07
1.42078e-07
-6.54381e-07
1.35919e-07
-6.79171e-07
1.28957e-07
-7.02433e-07
1.21205e-07
-7.24024e-07
1.12674e-07
-7.43801e-07
1.03383e-07
-7.61632e-07
9.3355e-08
-7.77385e-07
8.26187e-08
-7.9094e-07
7.12097e-08
-8.02184e-07
5.91714e-08
-8.11015e-07
4.65553e-08
-8.17341e-07
3.34216e-08
-8.21083e-07
1.98393e-08
-8.2218e-07
5.88641e-09
-8.20582e-07
-8.3503e-09
-8.16259e-07
-2.27754e-08
-8.09201e-07
-3.72856e-08
-7.99413e-07
-5.17702e-08
-7.86926e-07
-6.6112e-08
-7.71789e-07
-8.01886e-08
-7.54074e-07
-9.38739e-08
-7.33877e-07
-1.07039e-07
-7.11316e-07
-1.19553e-07
-6.8653e-07
-1.31289e-07
-6.59682e-07
-1.42119e-07
-6.30956e-07
-1.51923e-07
-6.00556e-07
-1.60585e-07
-5.68704e-07
-1.68e-07
-5.35641e-07
-1.74071e-07
-5.01621e-07
-1.78718e-07
-4.66911e-07
-1.81872e-07
-4.31788e-07
-1.8348e-07
-3.96535e-07
-1.83511e-07
-3.61438e-07
-1.81949e-07
-3.26784e-07
-1.78802e-07
-2.92855e-07
-1.74096e-07
-2.59924e-07
-1.67881e-07
-2.28253e-07
-1.60232e-07
-1.98089e-07
-1.51244e-07
-1.69657e-07
-1.41036e-07
-1.43157e-07
-1.29753e-07
-1.18762e-07
-1.17561e-07
-9.66124e-08
-1.04652e-07
-7.68133e-08
-9.12415e-08
-5.94297e-08
-7.75713e-08
-4.44846e-08
-6.39089e-08
-3.19564e-08
-5.05504e-08
-2.17762e-08
-3.78222e-08
-1.38267e-08
-2.60844e-08
-7.94133e-09
-1.57344e-08
-3.90381e-09
-7.21252e-09
-1.44914e-09
-1.00593e-09
-2.65802e-10
2.34507e-09
2.20454e-09
-1.6811e-09
4.48391e-09
-6.57992e-09
1.66042e-08
-1.45686e-08
3.07791e-08
-2.55207e-08
4.61637e-08
-3.93024e-08
6.21057e-08
-5.57684e-08
7.80812e-08
-7.47609e-08
9.3679e-08
-9.61099e-08
1.08587e-07
-1.19634e-07
1.22577e-07
-1.45145e-07
1.35486e-07
-1.72447e-07
1.47208e-07
-2.01339e-07
1.5768e-07
-2.31622e-07
1.6687e-07
-2.63093e-07
1.74773e-07
-2.95553e-07
1.81401e-07
-3.28803e-07
1.86777e-07
-3.62651e-07
1.90932e-07
-3.96904e-07
1.939e-07
-4.31375e-07
1.95715e-07
-4.65881e-07
1.96409e-07
-5.0024e-07
1.96012e-07
-5.34275e-07
1.94549e-07
-5.6781e-07
1.92044e-07
-6.00673e-07
1.88513e-07
-6.32694e-07
1.83972e-07
-6.63702e-07
1.78433e-07
-6.93532e-07
1.71908e-07
-7.2202e-07
1.64407e-07
-7.49004e-07
1.55941e-07
-7.74325e-07
1.46525e-07
-7.97828e-07
1.36177e-07
-8.19363e-07
1.24919e-07
-8.38787e-07
1.12778e-07
-8.5596e-07
9.97919e-08
-8.70753e-07
8.6003e-08
-8.83046e-07
7.14644e-08
-8.92729e-07
5.62384e-08
-8.99705e-07
4.03974e-08
-9.0389e-07
2.40242e-08
-9.05216e-07
7.21211e-09
-9.03631e-07
-9.93526e-09
-8.99102e-07
-2.73043e-08
-8.91615e-07
-4.47722e-08
-8.81178e-07
-6.22073e-08
-8.67819e-07
-7.94707e-08
-8.51591e-07
-9.64173e-08
-8.32567e-07
-1.12897e-07
-8.10848e-07
-1.28758e-07
-7.86556e-07
-1.43845e-07
-7.59838e-07
-1.58007e-07
-7.30866e-07
-1.71092e-07
-6.99832e-07
-1.82957e-07
-6.66952e-07
-1.93465e-07
-6.32461e-07
-2.0249e-07
-5.96613e-07
-2.09919e-07
-5.59679e-07
-2.15652e-07
-5.21942e-07
-2.19608e-07
-4.83698e-07
-2.21725e-07
-4.45248e-07
-2.21961e-07
-4.069e-07
-2.20298e-07
-3.6896e-07
-2.16741e-07
-3.31732e-07
-2.11323e-07
-2.95512e-07
-2.04102e-07
-2.60583e-07
-1.95161e-07
-2.27212e-07
-1.84614e-07
-1.95647e-07
-1.72602e-07
-1.66108e-07
-1.59292e-07
-1.38787e-07
-1.44881e-07
-1.13845e-07
-1.29594e-07
-9.14023e-08
-1.13684e-07
-7.15417e-08
-9.74319e-08
-5.4302e-08
-8.11486e-08
-3.96766e-08
-6.51758e-08
-2.76117e-08
-4.98871e-08
-1.80053e-08
-3.56907e-08
-1.07073e-08
-2.30324e-08
-5.51989e-09
-1.23999e-08
-2.20058e-09
-4.32524e-09
-4.66081e-10
6.10571e-10
1.73845e-09
-1.97163e-09
6.45554e-09
-7.65455e-09
2.22871e-08
-1.68408e-08
3.99653e-08
-2.93333e-08
5.86562e-08
-4.49375e-08
7.77099e-08
-6.34569e-08
9.66006e-08
-8.46911e-08
1.14913e-07
-1.08435e-07
1.32331e-07
-1.34478e-07
1.4862e-07
-1.62607e-07
1.63615e-07
-1.92606e-07
1.77208e-07
-2.24259e-07
1.89333e-07
-2.57351e-07
1.99961e-07
-2.91666e-07
2.09088e-07
-3.26993e-07
2.16728e-07
-3.63124e-07
2.22908e-07
-3.99855e-07
2.27663e-07
-4.36983e-07
2.31028e-07
-4.74312e-07
2.33044e-07
-5.11647e-07
2.33745e-07
-5.48799e-07
2.33164e-07
-5.8558e-07
2.3133e-07
-6.21804e-07
2.28268e-07
-6.57289e-07
2.23998e-07
-6.91854e-07
2.18537e-07
-7.25321e-07
2.119e-07
-7.57513e-07
2.041e-07
-7.88256e-07
1.95149e-07
-8.17378e-07
1.85064e-07
-8.44713e-07
1.7386e-07
-8.70095e-07
1.61559e-07
-8.93365e-07
1.48189e-07
-9.14371e-07
1.33784e-07
-9.32967e-07
1.18387e-07
-9.49014e-07
1.0205e-07
-9.62385e-07
8.48355e-08
-9.72963e-07
6.68168e-08
-9.80645e-07
4.80794e-08
-9.85341e-07
2.87203e-08
-9.86978e-07
8.84895e-09
-9.855e-07
-1.14137e-08
-9.80869e-07
-3.19351e-08
-9.73069e-07
-5.25719e-08
-9.62106e-07
-7.31709e-08
-9.48006e-07
-9.35706e-08
-9.30821e-07
-1.13602e-07
-9.10629e-07
-1.3309e-07
-8.87528e-07
-1.51858e-07
-8.61648e-07
-1.69726e-07
-8.33138e-07
-1.86516e-07
-8.02177e-07
-2.02053e-07
-7.68966e-07
-2.16168e-07
-7.33729e-07
-2.28702e-07
-6.96713e-07
-2.39507e-07
-6.58184e-07
-2.48448e-07
-6.18427e-07
-2.55409e-07
-5.77741e-07
-2.60294e-07
-5.36439e-07
-2.63027e-07
-4.94841e-07
-2.63559e-07
-4.53274e-07
-2.61865e-07
-4.12065e-07
-2.5795e-07
-3.7154e-07
-2.51848e-07
-3.32017e-07
-2.43625e-07
-2.93801e-07
-2.33377e-07
-2.57182e-07
-2.21233e-07
-2.2243e-07
-2.07354e-07
-1.89788e-07
-1.91934e-07
-1.59469e-07
-1.752e-07
-1.31654e-07
-1.57409e-07
-1.06485e-07
-1.38853e-07
-8.40632e-08
-1.19854e-07
-6.4446e-08
-1.00766e-07
-4.76448e-08
-8.1977e-08
-3.36237e-08
-6.39083e-08
-2.22986e-08
-4.70159e-08
-1.35379e-08
-3.17931e-08
-7.16466e-09
-1.87732e-08
-2.95922e-09
-8.53067e-09
-6.65552e-10
-1.6831e-09
1.0729e-09
-2.25358e-09
8.70913e-09
-8.70263e-09
2.87361e-08
-1.90645e-08
5.03271e-08
-3.30746e-08
7.26663e-08
-5.0479e-08
9.51143e-08
-7.10301e-08
1.17152e-07
-9.4484e-08
1.38367e-07
-1.20599e-07
1.58446e-07
-1.49134e-07
1.77155e-07
-1.79852e-07
1.94333e-07
-2.12515e-07
2.09871e-07
-2.46889e-07
2.23707e-07
-2.82743e-07
2.35815e-07
-3.19851e-07
2.46196e-07
-3.57988e-07
2.54866e-07
-3.96937e-07
2.61857e-07
-4.36482e-07
2.67208e-07
-4.76413e-07
2.7096e-07
-5.16525e-07
2.73156e-07
-5.56615e-07
2.73834e-07
-5.96484e-07
2.73032e-07
-6.35935e-07
2.70781e-07
-6.74774e-07
2.67107e-07
-7.12811e-07
2.62035e-07
-7.49856e-07
2.55582e-07
-7.85721e-07
2.47765e-07
-8.20222e-07
2.38601e-07
-8.53176e-07
2.28103e-07
-8.84402e-07
2.1629e-07
-9.13725e-07
2.03183e-07
-9.40972e-07
1.88806e-07
-9.65975e-07
1.73193e-07
-9.88574e-07
1.56383e-07
-1.00861e-06
1.38427e-07
-1.02595e-06
1.19386e-07
-1.04045e-06
9.93327e-08
-1.05198e-06
7.83514e-08
-1.06044e-06
5.65409e-08
-1.06574e-06
3.40131e-08
-1.06778e-06
1.08936e-08
-1.06652e-06
-1.26786e-08
-1.0619e-06
-3.65513e-08
-1.05391e-06
-6.05604e-08
-1.04255e-06
-8.45303e-08
-1.02785e-06
-1.08276e-07
-1.00985e-06
-1.31603e-07
-9.88624e-07
-1.54312e-07
-9.64283e-07
-1.76199e-07
-9.36951e-07
-1.97058e-07
-9.06783e-07
-2.16684e-07
-8.73961e-07
-2.34875e-07
-8.38691e-07
-2.51438e-07
-8.01207e-07
-2.66187e-07
-7.61763e-07
-2.78951e-07
-7.20637e-07
-2.89573e-07
-6.78128e-07
-2.97919e-07
-6.34549e-07
-3.03873e-07
-5.90229e-07
-3.07348e-07
-5.45506e-07
-3.08281e-07
-5.00728e-07
-3.06643e-07
-4.56243e-07
-3.02435e-07
-4.12397e-07
-2.95694e-07
-3.69532e-07
-2.8649e-07
-3.27978e-07
-2.74931e-07
-2.88048e-07
-2.61163e-07
-2.50035e-07
-2.45366e-07
-2.14208e-07
-2.27761e-07
-1.80804e-07
-2.08604e-07
-1.50026e-07
-1.88188e-07
-1.22039e-07
-1.6684e-07
-9.69659e-08
-1.44927e-07
-7.48858e-08
-1.22846e-07
-5.58307e-08
-1.01032e-07
-3.97846e-08
-7.99544e-08
-2.66836e-08
-6.01168e-08
-1.64168e-08
-4.20599e-08
-8.82795e-09
-2.6362e-08
-3.72052e-09
-1.36381e-08
-8.63265e-10
-4.54035e-09
2.09636e-10
-2.5268e-09
1.12359e-08
-9.72201e-09
3.59313e-08
-2.1233e-08
6.18381e-08
-3.67311e-08
8.81643e-08
-5.59047e-08
1.14288e-07
-7.84559e-08
1.39703e-07
-1.04097e-07
1.64009e-07
-1.3255e-07
1.86899e-07
-1.63544e-07
2.08149e-07
-1.96812e-07
2.27601e-07
-2.32098e-07
2.45156e-07
-2.69149e-07
2.60758e-07
-3.07718e-07
2.74385e-07
-3.47565e-07
2.86043e-07
-3.88457e-07
2.95757e-07
-4.30163e-07
3.03563e-07
-4.7246e-07
3.09505e-07
-5.15131e-07
3.13631e-07
-5.5796e-07
3.15985e-07
-6.00737e-07
3.16612e-07
-6.43257e-07
3.15552e-07
-6.85314e-07
3.12838e-07
-7.26709e-07
3.08502e-07
-7.67241e-07
3.02567e-07
-8.06715e-07
2.95055e-07
-8.44935e-07
2.85985e-07
-8.81708e-07
2.75374e-07
-9.16845e-07
2.6324e-07
-9.50157e-07
2.49603e-07
-9.81461e-07
2.34486e-07
-1.01058e-06
2.17921e-07
-1.03733e-06
1.99944e-07
-1.06155e-06
1.80602e-07
-1.08307e-06
1.59952e-07
-1.10175e-06
1.38064e-07
-1.11744e-06
1.15021e-07
-1.13001e-06
9.09196e-08
-1.13934e-06
6.58712e-08
-1.14533e-06
4.00029e-08
-1.14789e-06
1.34568e-08
-1.14696e-06
-1.36099e-08
-1.14248e-06
-4.10251e-08
-1.13444e-06
-6.86031e-08
-1.12283e-06
-9.61457e-08
-1.10766e-06
-1.23443e-07
-1.08899e-06
-1.50276e-07
-1.06688e-06
-1.76419e-07
-1.04144e-06
-2.01639e-07
-1.01279e-06
-2.25704e-07
-9.81096e-07
-2.48379e-07
-9.46534e-07
-2.69437e-07
-9.09318e-07
-2.88654e-07
-8.69685e-07
-3.0582e-07
-8.27899e-07
-3.20736e-07
-7.84249e-07
-3.33224e-07
-7.39042e-07
-3.43125e-07
-6.92609e-07
-3.50307e-07
-6.45292e-07
-3.54664e-07
-5.9745e-07
-3.56123e-07
-5.49448e-07
-3.54645e-07
-5.01657e-07
-3.50227e-07
-4.54446e-07
-3.42905e-07
-4.0818e-07
-3.32755e-07
-3.63216e-07
-3.19896e-07
-3.19892e-07
-3.04487e-07
-2.78528e-07
-2.8673e-07
-2.39418e-07
-2.66871e-07
-2.02826e-07
-2.45196e-07
-1.68982e-07
-2.22032e-07
-1.38075e-07
-1.97747e-07
-1.10254e-07
-1.72748e-07
-8.56202e-08
-1.47479e-07
-6.42297e-08
-1.22423e-07
-4.60887e-08
-9.80953e-08
-3.11553e-08
-7.50502e-08
-1.93398e-08
-5.38755e-08
-1.05076e-08
-3.51941e-08
-4.48387e-09
-1.96619e-08
-1.05934e-09
-7.96488e-09
-8.49701e-10
-2.79129e-09
1.40272e-08
-1.07114e-08
4.38514e-08
-2.33421e-08
7.44687e-08
-4.02933e-08
1.05116e-07
-6.11984e-08
1.35193e-07
-8.57103e-08
1.64215e-07
-1.13499e-07
1.91797e-07
-1.44248e-07
2.17648e-07
-1.77656e-07
2.41557e-07
-2.13431e-07
2.63377e-07
-2.51294e-07
2.83019e-07
-2.90972e-07
3.00436e-07
-3.32204e-07
3.15617e-07
-3.74738e-07
3.28576e-07
-4.18327e-07
3.39346e-07
-4.62732e-07
3.47969e-07
-5.07723e-07
3.54496e-07
-5.53072e-07
3.58979e-07
-5.98558e-07
3.61471e-07
-6.43964e-07
3.62018e-07
-6.89077e-07
3.60665e-07
-7.33687e-07
3.57448e-07
-7.77586e-07
3.52401e-07
-8.2057e-07
3.4555e-07
-8.62433e-07
3.36919e-07
-9.02977e-07
3.26528e-07
-9.42e-07
3.14397e-07
-9.79306e-07
3.00546e-07
-1.0147e-06
2.84997e-07
-1.04799e-06
2.67778e-07
-1.07899e-06
2.48923e-07
-1.10752e-06
2.28474e-07
-1.13341e-06
2.06484e-07
-1.15647e-06
1.83017e-07
-1.17656e-06
1.58152e-07
-1.19352e-06
1.31982e-07
-1.20721e-06
1.04614e-07
-1.21752e-06
7.61743e-08
-1.22432e-06
4.68043e-08
-1.22752e-06
1.66627e-08
-1.22706e-06
-1.40749e-08
-1.22287e-06
-4.52166e-08
-1.21492e-06
-7.65548e-08
-1.20319e-06
-1.07868e-07
-1.18771e-06
-1.38922e-07
-1.16852e-06
-1.69471e-07
-1.14568e-06
-1.99261e-07
-1.11928e-06
-2.28034e-07
-1.08946e-06
-2.55525e-07
-1.05637e-06
-2.81473e-07
-1.02019e-06
-3.05618e-07
-9.81132e-07
-3.2771e-07
-9.39445e-07
-3.47507e-07
-8.95397e-07
-3.64784e-07
-8.49283e-07
-3.79338e-07
-8.01425e-07
-3.90984e-07
-7.52163e-07
-3.99569e-07
-7.01858e-07
-4.04969e-07
-6.50886e-07
-4.07096e-07
-5.99631e-07
-4.05899e-07
-5.48488e-07
-4.0137e-07
-4.9785e-07
-3.93543e-07
-4.48108e-07
-3.82498e-07
-3.99643e-07
-3.6836e-07
-3.52826e-07
-3.51305e-07
-3.08002e-07
-3.31554e-07
-2.65496e-07
-3.09377e-07
-2.25601e-07
-2.85091e-07
-1.88574e-07
-2.59059e-07
-1.54634e-07
-2.31687e-07
-1.23957e-07
-2.03425e-07
-9.66717e-08
-1.74765e-07
-7.28582e-08
-1.46236e-07
-5.25478e-08
-1.18406e-07
-3.57217e-08
-9.18763e-08
-2.23127e-08
-6.72845e-08
-1.22075e-08
-4.52993e-08
-5.25152e-09
-2.66179e-08
-1.25464e-09
-1.19617e-08
-2.10434e-09
-3.04705e-09
1.70742e-08
-1.167e-08
5.24744e-08
-2.53884e-08
8.81872e-08
-4.37543e-08
1.23481e-07
-6.63479e-08
1.57787e-07
-9.27744e-08
1.90641e-07
-1.22662e-07
2.21685e-07
-1.55659e-07
2.50645e-07
-1.91431e-07
2.77329e-07
-2.29661e-07
3.01607e-07
-2.70047e-07
3.23404e-07
-3.12299e-07
3.42688e-07
-3.56139e-07
3.59458e-07
-4.01302e-07
3.73739e-07
-4.47531e-07
3.85575e-07
-4.94579e-07
3.95016e-07
-5.42204e-07
4.02121e-07
-5.90174e-07
4.06949e-07
-6.3826e-07
4.09558e-07
-6.86241e-07
4.09999e-07
-7.33897e-07
4.08321e-07
-7.81012e-07
4.04563e-07
-8.27374e-07
3.98763e-07
-8.72772e-07
3.90948e-07
-9.16997e-07
3.81144e-07
-9.59843e-07
3.69374e-07
-1.0011e-06
3.55658e-07
-1.04058e-06
3.40019e-07
-1.07806e-06
3.22482e-07
-1.11336e-06
3.03078e-07
-1.14628e-06
2.81843e-07
-1.17663e-06
2.58826e-07
-1.20424e-06
2.34085e-07
-1.22891e-06
2.07691e-07
-1.25049e-06
1.79731e-07
-1.26881e-06
1.50307e-07
-1.28374e-06
1.1954e-07
-1.29513e-06
8.75671e-08
-1.30287e-06
5.45446e-08
-1.30686e-06
2.06479e-08
-1.307e-06
-1.39292e-08
-1.30325e-06
-4.89747e-08
-1.29554e-06
-8.42595e-08
-1.28387e-06
-1.19538e-07
-1.26824e-06
-1.54551e-07
-1.24869e-06
-1.89027e-07
-1.22526e-06
-2.22684e-07
-1.19806e-06
-2.55232e-07
-1.16721e-06
-2.86378e-07
-1.13285e-06