/*--------------------------------*- C++ -*----------------------------------*\
  =========                 |
  \\      /  F ield         | OpenFOAM: The Open Source CFD Toolbox
   \\    /   O peration     | Website:  https://openfoam.org
    \\  /    A nd           | Version:  7
     \\/     M anipulation  |
\*---------------------------------------------------------------------------*/
FoamFile
{
    version     2.0;
    format      ascii;
    class       volScalarField;
    location    "0.75";
    object      p;
}
// * * * * * * * * * * * * * * * * * * * * * * * * * * * * * * * * * * * * * //

dimensions      [0 2 -2 0 0 0 0];

internalField   nonuniform List<scalar> 
6400
(
9.326e-08
-4.49965e-06
-6.79737e-05
-0.000186867
-0.000346578
-0.000534258
-0.000738754
-0.000950602
-0.00116209
-0.00136705
-0.00156066
-0.00173914
-0.00189963
-0.00203996
-0.00215852
-0.00225413
-0.00232597
-0.00237346
-0.00239622
-0.00239398
-0.0023666
-0.002314
-0.00223615
-0.00213307
-0.00200483
-0.00185153
-0.00167336
-0.00147057
-0.00124349
-0.000992584
-0.000718426
-0.00042175
-0.000103471
0.000235314
0.000593297
0.000968954
0.00136053
0.00176603
0.0021832
0.00260956
0.00304241
0.00347883
0.00391569
0.00434971
0.00477746
0.0051954
0.00559996
0.00598755
0.00635462
0.0066977
0.00701352
0.007299
0.00755132
0.00776802
0.007947
0.00808662
0.00818569
0.00824356
0.00826014
0.00823589
0.00817188
0.00806978
0.00793184
0.00776092
0.00756043
0.00733436
0.0070872
0.00682395
0.00655009
0.00627154
0.00599464
0.00572613
0.00547312
0.00524303
0.00504347
0.00488206
0.00476564
0.00469943
0.00468572
0.00471261
3.26088e-06
-1.2592e-06
-5.70123e-05
-0.000157526
-0.000291059
-0.000448397
-0.000621043
-0.000801365
-0.0009828
-0.00115991
-0.00132824
-0.00148422
-0.00162505
-0.0017485
-0.0018529
-0.00193695
-0.0019997
-0.00204043
-0.00205865
-0.00205398
-0.00202619
-0.0019751
-0.00190064
-0.00180277
-0.00168154
-0.00153702
-0.00136938
-0.00117887
-0.000965818
-0.000730676
-0.000474009
-0.000196536
0.000100859
0.000417121
0.000751006
0.00110107
0.00146565
0.00184286
0.00223061
0.0026266
0.00302829
0.003433
0.00383783
0.00423975
0.00463562
0.0050222
0.00539621
0.00575438
0.00609348
0.00641038
0.00670209
0.00696584
0.00719911
0.0073997
0.00756574
0.00769579
0.00778885
0.0078444
0.0078624
0.00784338
0.00778838
0.00769901
0.00757739
0.00742622
0.00724867
0.00704843
0.00682966
0.00659693
0.00635525
0.00610997
0.00586677
0.00563161
0.00541065
0.00521016
0.00503641
0.00489528
0.00479166
0.00472914
0.00471234
0.00473941
6.49637e-05
5.28537e-05
-3.04373e-06
-9.57684e-05
-0.000215672
-0.000355478
-0.000508402
-0.000668137
-0.000829131
-0.000986645
-0.00113671
-0.00127606
-0.00140205
-0.00151258
-0.00160597
-0.00168095
-0.00173652
-0.00177191
-0.00178656
-0.00178006
-0.0017521
-0.00170246
-0.00163103
-0.00153773
-0.00142257
-0.0012856
-0.00112698
-0.000946919
-0.000745734
-0.000523849
-0.000281808
-2.02947e-05
0.000259851
0.00055763
0.00087186
0.00120117
0.00154399
0.00189856
0.00226289
0.00263482
0.00301198
0.00339184
0.0037717
0.00414873
0.00451998
0.00488244
0.00523306
0.00556877
0.00588659
0.0061836
0.00645704
0.00670436
0.00692322
0.0071116
0.00726781
0.00739053
0.00747889
0.00753242
0.00755117
0.00753566
0.00748693
0.00740651
0.00729645
0.00715929
0.00699803
0.00681612
0.00661744
0.00640625
0.00618716
0.00596507
0.00574515
0.00553274
0.00533328
0.00515225
0.004995
0.00486653
0.0047709
0.00471141
0.00469515
0.0047262
0.000183316
0.000152379
8.7697e-05
-5.79466e-06
-0.000121322
-0.000252852
-0.000394741
-0.000541774
-0.000689281
-0.000833209
-0.000970108
-0.0010971
-0.0012118
-0.00131229
-0.00139702
-0.00146477
-0.00151459
-0.00154572
-0.00155759
-0.00154978
-0.00152195
-0.00147387
-0.00140537
-0.00131636
-0.00120681
-0.00107676
-0.000926315
-0.000755665
-0.000565091
-0.00035498
-0.000125833
0.000121714
0.000386877
0.000668718
0.000966125
0.00127781
0.00160229
0.00193789
0.00228277
0.00263485
0.00299192
0.00335157
0.00371124
0.00406827
0.00441987
0.00476318
0.0050953
0.00541336
0.00571452
0.00599601
0.00625525
0.0064898
0.00669748
0.00687637
0.00702489
0.00714182
0.00722634
0.00727805
0.00729701
0.00728375
0.00723927
0.00716508
0.00706312
0.00693581
0.00678602
0.00661701
0.00643244
0.00623628
0.00603284
0.00582666
0.00562246
0.00542511
0.00523953
0.0050706
0.00492309
0.00480149
0.00470952
0.00465056
0.00463263
0.0046617
0.000344965
0.000286338
0.000206229
0.000106261
-1.05074e-05
-0.000139134
-0.000274956
-0.000413759
-0.00055172
-0.000685473
-0.000812109
-0.000929159
-0.00103457
-0.00112667
-0.00120407
-0.00126567
-0.0013106
-0.00133816
-0.00134781
-0.00133912
-0.00131176
-0.00126548
-0.0012001
-0.00111549
-0.00101161
-0.000888447
-0.000746077
-0.000584651
-0.000404406
-0.000205679
1.10832e-05
0.000245303
0.000496262
0.000763094
0.00104476
0.00134007
0.00164762
0.00196586
0.00229301
0.00262716
0.00296617
0.00330778
0.00364956
0.00398897
0.00432335
0.00464997
0.00496608
0.00526892
0.00555578
0.00582402
0.00607115
0.00629485
0.00649303
0.00666386
0.00680583
0.00691777
0.0069989
0.00704886
0.00706772
0.00705598
0.00701464
0.00694513
0.00684932
0.00672954
0.00658851
0.00642933
0.00625546
0.00607064
0.00587889
0.00568444
0.00549163
0.00530492
0.00512878
0.0049676
0.00482567
0.00470706
0.00461524
0.00455352
0.00452935
0.00454841
0.000537792
0.000446017
0.000345654
0.000234685
0.000112134
-1.80321e-05
-0.000151982
-0.000286417
-0.000418326
-0.000544998
-0.000664061
-0.000773494
-0.000871593
-0.000956954
-0.00102841
-0.00108501
-0.00112601
-0.00115078
-0.00115883
-0.00114977
-0.00112328
-0.00107912
-0.00101708
-0.000937021
-0.000838861
-0.000722565
-0.000588164
-0.000435756
-0.000265529
-7.77656e-05
0.000127153
0.000348721
0.000586294
0.000839082
0.00110613
0.00138633
0.0016784
0.00198086
0.00229205
0.00261015
0.00293315
0.00325887
0.00358502
0.00390914
0.0042287
0.00454107
0.00484359
0.00513361
0.00540849
0.0056657
0.0059028
0.00611756
0.00630793
0.00647213
0.0066087
0.0067165
0.00679477
0.00684314
0.00686168
0.00685088
0.00681168
0.00674548
0.00665408
0.00653969
0.00640492
0.00625275
0.00608644
0.00590954
0.00572584
0.00553926
0.00535385
0.00517371
0.00500292
0.00484549
0.00470529
0.00458599
0.00449083
0.00442295
0.00438828
0.00439102
0.000751164
0.000623156
0.00049927
0.000373847
0.000241876
0.000106505
-2.91264e-05
-0.000162561
-0.000291526
-0.000413931
-0.000527936
-0.000631963
-0.00072468
-0.000804964
-0.000871889
-0.0009247
-0.000962775
-0.000985604
-0.000992765
-0.000983914
-0.000958765
-0.000917072
-0.000858634
-0.000783296
-0.000690941
-0.000581496
-0.000454945
-0.000311338
-0.000150801
2.64485e-05
0.000220104
0.000429733
0.000654772
0.000894518
0.00114811
0.00141452
0.00169257
0.00198088
0.00227788
0.00258185
0.00289088
0.00320289
0.00351567
0.00382686
0.004134
0.00443455
0.00472591
0.0050055
0.00527075
0.00551915
0.00574833
0.00595606
0.00614035
0.00629942
0.00643182
0.00653641
0.00661243
0.00665948
0.00667762
0.0066673
0.00662944
0.00656534
0.00647675
0.00636581
0.00623503
0.00608724
0.00592558
0.00575342
0.00557433
0.00539203
0.00521029
0.00503292
0.00486369
0.00470626
0.00456416
0.00444072
0.00433895
0.00426179
0.00421312
0.00419514
0.000975758
0.000810021
0.000660541
0.000518193
0.000374079
0.000230678
9.05354e-05
-4.46409e-05
-0.00017325
-0.000293785
-0.000404924
-0.000505519
-0.000594603
-0.000671358
-0.000735111
-0.000785305
-0.000821473
-0.000843226
-0.000850237
-0.000842218
-0.000818917
-0.00078011
-0.000725597
-0.000655201
-0.00056878
-0.000466223
-0.000347464
-0.000212494
-6.13728e-05
0.000105754
0.000288657
0.000486989
0.000700273
0.000927897
0.00116909
0.00142293
0.00168832
0.00196398
0.00224845
0.00254008
0.00283704
0.00313736
0.00343888
0.00373933
0.00403631
0.00432731
0.00460981
0.00488125
0.00513907
0.0053808
0.00560408
0.00580667
0.00598657
0.00614201
0.00627149
0.00637387
0.00644833
0.00649446
0.00651227
0.00650217
0.00646502
0.00640207
0.00631499
0.00620586
0.00607709
0.00593142
0.00577185
0.00560162
0.00542413
0.00524291
0.00506152
0.00488355
0.00471248
0.00455172
0.00440449
0.00427381
0.00416253
0.00407336
0.00400795
0.00396634
0.00120352
0.000999568
0.000823304
0.000662367
0.000504156
0.000350596
0.000203743
6.46379e-05
-6.57377e-05
-0.000186425
-0.000296579
-0.000395476
-0.000482503
-0.000557155
-0.000619007
-0.000667714
-0.000702976
-0.000724532
-0.000732151
-0.00072562
-0.000704727
-0.000669266
-0.000619043
-0.00055387
-0.000473575
-0.000377999
-0.000267028
-0.00014059
1.32254e-06
0.000158648
0.000331241
0.000518843
0.000721068
0.000937398
0.00116716
0.00140954
0.00166352
0.00192793
0.00220138
0.00248231
0.00276899
0.0030595
0.00335175
0.00364352
0.00393244
0.00421607
0.00449188
0.00475733
0.00500986
0.00524699
0.00546633
0.00566563
0.00584285
0.00599616
0.00612404
0.00622527
0.00629899
0.00634475
0.00636247
0.00635252
0.00631569
0.00625317
0.00616659
0.00605791
0.0059295
0.00578399
0.00562431
0.00545355
0.00527501
0.00509206
0.00490809
0.0047265
0.00455059
0.00438352
0.00422829
0.00408766
0.00396434
0.00386087
0.00377664
0.00370953
0.0014275
0.00118546
0.000981854
0.000801275
0.000627606
0.000462326
0.000307086
0.000162326
2.84564e-05
-9.40666e-05
-0.000204847
-0.000303561
-0.000389942
-0.000463793
-0.000524942
-0.000573242
-0.000608571
-0.000630806
-0.000639816
-0.000635454
-0.000617558
-0.00058595
-0.000540439
-0.000480821
-0.000406889
-0.000318446
-0.000215322
-9.7378e-05
3.54738e-05
0.000183254
0.000345909
0.000523269
0.000715048
0.000920831
0.00114005
0.00137197
0.0016157
0.00187013
0.00213398
0.00240576
0.00268382
0.00296628
0.00325113
0.00353617
0.00381906
0.00409738
0.0043686
0.00463015
0.00487947
0.00511404
0.0053314
0.00552927
0.00570554
0.0058583
0.00598596
0.00608722
0.00616116
0.00620723
0.0062253
0.00621564
0.00617897
0.00611643
0.00602956
0.00592028
0.00579086
0.00564389
0.00548218
0.00530877
0.00512685
0.00493967
0.00475051
0.00456263
0.00437917
0.00420315
0.00403736
0.00388437
0.00374684
0.00362718
0.00352256
0.00342882
0.00164159
0.00136197
0.0011309
0.000930085
0.000740064
0.000561962
0.000397089
0.000245335
0.000106586
-1.9157e-05
-0.00013192
-0.000231764
-0.000318764
-0.000392998
-0.000454544
-0.000503469
-0.000539817
-0.000563597
-0.000574779
-0.000573292
-0.000559022
-0.000531816
-0.000491481
-0.000437799
-0.000370532
-0.000289436
-0.000194281
-8.48547e-05
3.9013e-05
0.00017743
0.000330434
0.000497959
0.000679822
0.000875711
0.00108516
0.00130755
0.00154206
0.00178769
0.00204324
0.00230731
0.00257829
0.00285438
0.00313359
0.00341375
0.00369255
0.00396755
0.00423621
0.00449593
0.00474409
0.00497811
0.00519548
0.00539382
0.00557091
0.00572479
0.00585373
0.00595635
0.00603161
0.00607888
0.0060979
0.00608889
0.00605247
0.0059897
0.00590204
0.00579136
0.00565986
0.00551006
0.00534473
0.00516684
0.0049795
0.00478589
0.00458923
0.00439267
0.00419926
0.00401191
0.00383329
0.00366582
0.00351217
0.00337472
0.00324853
0.00312746
0.00184034
0.00152389
0.00126553
0.00104422
0.000837329
0.000645673
0.00047026
0.000310492
0.000165785
3.56978e-05
-8.01933e-05
-0.000182302
-0.000271024
-0.000346713
-0.000409686
-0.00046021
-0.000498493
-0.000524671
-0.000538816
-0.000540929
-0.000530942
-0.000508722
-0.000474076
-0.000426769
-0.000366527
-0.000293057
-0.00020606
-0.00010525
9.62898e-06
0.000138779
0.000282337
0.000440342
0.000612721
0.000799271
0.000999634
0.00121328
0.00143951
0.00167741
0.00192586
0.00218353
0.00244888
0.00272016
0.0029954
0.00327246
0.00354903
0.00382265
0.00409073
0.00435064
0.00459969
0.00483521
0.00505459
0.00525534
0.00543515
0.0055919
0.00572376
0.00582921
0.00590708
0.00595661
0.00597745
0.00596967
0.00593382
0.00587087
0.0057822
0.00566959
0.00553521
0.00538152
0.00521124
0.00502731
0.00483279
0.00463084
0.00442462
0.00421725
0.00401173
0.00381092
0.00361742
0.00343359
0.00326214
0.00310554
0.0029568
0.00280796
0.00201881
0.00166641
0.00138115
0.00113936
0.000915349
0.000709686
0.000523123
0.000354597
0.000203088
6.77495e-05
-5.22163e-05
-0.000157564
-0.000248982
-0.000327095
-0.000392445
-0.000445488
-0.000486587
-0.000516005
-0.000533908
-0.000540364
-0.000535344
-0.000518736
-0.000490342
-0.000449904
-0.000397113
-0.000331614
-0.000253043
-0.00016103
-5.52295e-05
6.46579e-05
0.000198878
0.000347579
0.000510801
0.000688454
0.00088029
0.00108589
0.00130466
0.00153577
0.0017782
0.00203068
0.00229175
0.00255967
0.00283252
0.00310818
0.00338431
0.00365842
0.00392789
0.00419001
0.00444199
0.00468108
0.00490454
0.00510976
0.00529426
0.00545578
0.00559234
0.00570227
0.00578424
0.00583733
0.00586105
0.00585535
0.00582066
0.00575784
0.00566819
0.00555343
0.00541564
0.00525726
0.00508098
0.00488972
0.00468653
0.00447455
0.00425697
0.00403688
0.00381731
0.00360112
0.00339088
0.00318897
0.00299823
0.00282124
0.00264913
0.00247213
0.00217246
0.00178509
0.00147346
0.00121138
0.000970221
0.000750326
0.000552222
0.000374419
0.000215474
7.41611e-05
-5.06666e-05
-0.000160082
-0.000255059
-0.000336472
-0.000405078
-0.000461511
-0.00050628
-0.000539767
-0.000562226
-0.000573784
-0.000574449
-0.000564119
-0.000542591
-0.00050958
-0.000464729
-0.000407626
-0.000337829
-0.000254884
-0.00015835
-4.78201e-05
7.70617e-05
0.000216561
0.000370836
0.000539915
0.000723668
0.00092179
0.00113378
0.00135894
0.0015963
0.00184469
0.00210269
0.00236862
0.00264059
0.00291645
0.00319387
0.00347032
0.00374311
0.00400945
0.00426645
0.00451123
0.00474092
0.00495273
0.00514403
0.00531238
0.00545562
0.00557187
0.00565963
0.00571781
0.00574574
0.00574324
0.00571057
0.00564848
0.00555817
0.00544129
0.00529986
0.00513628
0.00495321
0.00475358
0.00454046
0.00431703
0.00408648
0.00385199
0.00361661
0.00338326
0.0031546
0.00293301
0.00272158
0.00252307
0.00232675
0.00212119
0.00229706
0.00187575
0.0015384
0.00125634
0.000998179
0.000764013
0.000554163
0.000366732
0.000199881
5.20276e-05
-7.83101e-05
-0.000192504
-0.000291802
-0.000377314
-0.000449992
-0.000510643
-0.000559912
-0.00059829
-0.000626108
-0.000643549
-0.000650647
-0.000647308
-0.000633316
-0.000608353
-0.00057201
-0.000523808
-0.000463227
-0.00038972
-0.000302743
-0.000201779
-8.63534e-05
4.39229e-05
0.000189331
0.000350027
0.000526003
0.000717073
0.000922854
0.00114274
0.00137586
0.00162113
0.00187717
0.00214237
0.00241484
0.00269245
0.00297284
0.00325343
0.00353146
0.00380404
0.00406818
0.00432084
0.00455898
0.00477964
0.00498
0.00515741
0.00530948
0.00543413
0.00552963
0.0055947
0.00562846
0.00563053
0.00560104
0.00554058
0.00545024
0.00533157
0.00518655
0.00501752
0.00482715
0.00461838
0.00439431
0.00415819
0.00391329
0.00366287
0.00341008
0.00315797
0.00290928
0.00266653
0.00243306
0.00221189
0.00199053
0.00175586
0.00238864
0.00193445
0.00157209
0.00127051
0.000995603
0.000747264
0.000525603
0.000328335
0.000153245
-1.58978e-06
-0.000137972
-0.000257562
-0.000361861
-0.000452198
-0.000529718
-0.000595381
-0.000649962
-0.000694048
-0.000728042
-0.000752169
-0.000766487
-0.000770903
-0.000765178
-0.000748955
-0.000721768
-0.000683064
-0.000632239
-0.000568649
-0.000491639
-0.000400574
-0.000294852
-0.000173958
-3.74761e-05
0.00011488
0.000283235
0.000467532
0.000667507
0.00088266
0.00111223
0.0013552
0.00161028
0.00187589
0.00215016
0.00243098
0.00271595
0.00300244
0.00328762
0.00356848
0.00384191
0.0041047
0.00435363
0.00458555
0.00479739
0.00498627
0.00514956
0.00528492
0.00539039
0.00546442
0.00550591
0.00551427
0.00548943
0.00543181
0.00534238
0.00522258
0.0050743
0.00489988
0.00470196
0.00448352
0.00424773
0.00399791
0.00373745
0.00346974
0.00319809
0.0029257
0.00265548
0.00239012
0.00213327
0.00188829
0.00164095
0.00137647
0.00244341
0.00195745
0.00157085
0.00125029
0.000959002
0.000696689
0.000463263
0.000256065
7.25151e-05
-8.96455e-05
-0.000232518
-0.000358039
-0.000467952
-0.000563791
-0.000646879
-0.000718325
-0.00077902
-0.000829636
-0.000870637
-0.000902285
-0.000924655
-0.000937643
-0.000940984
-0.000934272
-0.000916977
-0.000888469
-0.000848053
-0.000794977
-0.00072847
-0.000647772
-0.000552148
-0.000440946
-0.000313611
-0.000169712
-8.98474e-06
0.00016865
0.00036306
0.000573862
0.000800407
0.00104177
0.00129672
0.00156375
0.00184102
0.0021264
0.0024175
0.00271161
0.00300583
0.00329703
0.00358195
0.0038572
0.00411938
0.00436509
0.00459101
0.004794
0.00497113
0.0051198
0.00523774
0.00532312
0.00537458
0.00539128
0.0053729
0.0053197
0.00523246
0.0051125
0.00496165
0.00478218
0.00457676
0.00434838
0.00410032
0.00383599
0.00355895
0.00327274
0.00298089
0.0026868
0.00239359
0.00210418
0.00182261
0.00155261
0.00127821
0.000982976
0.00245775
0.00194118
0.00153119
0.00119223
0.000885003
0.000609006
0.000363952
0.000146816
-4.53361e-05
-0.000215085
-0.000364823
-0.000496749
-0.000612833
-0.000714811
-0.000804171
-0.000882157
-0.000949763
-0.00100774
-0.0010566
-0.00109665
-0.00112795
-0.00115039
-0.00116367
-0.00116732
-0.00116075
-0.00114325
-0.00111401
-0.00107218
-0.00101685
-0.000947142
-0.00086217
-0.000761139
-0.000643343
-0.000508199
-0.000355289
-0.000184387
4.51212e-06
0.00021116
0.000435025
0.000675285
0.000930805
0.00120012
0.00148145
0.00177267
0.00207135
0.00237475
0.00267987
0.00298347
0.00328213
0.00357228
0.00385027
0.00411246
0.00435525
0.00457521
0.00476908
0.00493394
0.00506718
0.00516665
0.00523068
0.00525812
0.00524842
0.00520157
0.00511817
0.0049994
0.00484699
0.00466315
0.00445055
0.00421225
0.00395161
0.00367219
0.00337771
0.00307195
0.00275867
0.00244152
0.00212391
0.00180901
0.00150131
0.00120498
0.000902291
0.000575103
0.00242822
0.00188223
0.00144974
0.00109303
0.000770366
0.00048104
0.000224563
-2.45153e-06
-0.000203285
-0.000380825
-0.000537749
-0.000676506
-0.000799286
-0.000908014
-0.00100433
-0.00108961
-0.00116493
-0.00123112
-0.00128873
-0.00133809
-0.00137926
-0.0014121
-0.00143626
-0.00145123
-0.00145634
-0.00145076
-0.00143361
-0.00140389
-0.00136057
-0.00130263
-0.00122904
-0.00113884
-0.00103117
-0.000905274
-0.000760574
-0.000596685
-0.000413445
-0.000210959
1.03778e-05
0.000249861
0.000506454
0.000778771
0.00106507
0.00136326
0.0016709
0.00198519
0.00230305
0.00262111
0.0029358
0.00324332
0.00353981
0.00382134
0.00408401
0.00432404
0.00453782
0.00472206
0.00487378
0.00499045
0.00507003
0.00511105
0.00511262
0.00507447
0.00499699
0.00488115
0.00472856
0.00454138
0.00432228
0.00407436
0.00380109
0.0035062
0.00319363
0.0028674
0.00253155
0.00219005
0.00184663
0.00150478
0.00116949
0.000845405
0.000512996
0.000152373
0.0023515
0.00177734
0.00132327
0.000949517
0.000611975
0.000309729
4.20846e-05
-0.000194699
-0.000404241
-0.000589732
-0.000754123
-0.000900106
-0.00103008
-0.00114616
-0.00125011
-0.00134343
-0.00142728
-0.00150256
-0.00156985
-0.00162949
-0.00168152
-0.00172578
-0.00176188
-0.00178922
-0.00180706
-0.00181447
-0.00181044
-0.00179385
-0.00176355
-0.00171835
-0.00165705
-0.00157855
-0.00148179
-0.00136586
-0.00122998
-0.00107361
-0.000896406
-0.000698315
-0.000479578
-0.000240762
1.72112e-05
0.000293047
0.000585072
0.000891226
0.00120906
0.00153575
0.00186813
0.00220271
0.00253573
0.0028632
0.00318099
0.00348488
0.00377063
0.00403408
0.00427125
0.0044784
0.00465214
0.00478951
0.00488806
0.00494591
0.00496182
0.00493519
0.00486612
0.00475539
0.00460444
0.00441534
0.00419075
0.00393383
0.00364817
0.00333768
0.00300655
0.00265907
0.00229963
0.00193255
0.00156192
0.00119162
0.000827169
0.000473773
0.000110014
-0.000285825
0.00222441
0.00162337
0.00114871
0.000758662
0.000406843
9.21266e-05
-0.000186388
-0.000432792
-0.000651033
-0.000844603
-0.00101672
-0.0011703
-0.00130797
-0.00143197
-0.00154424
-0.00164636
-0.0017396
-0.00182488
-0.00190282
-0.00197375
-0.00203772
-0.00209451
-0.00214368
-0.00218456
-0.0022163
-0.00223789
-0.00224818
-0.00224592
-0.00222981
-0.0021985
-0.00215063
-0.0020849
-0.00200008
-0.00189505
-0.00176886
-0.00162076
-0.00145022
-0.00125701
-0.00104119
-0.000803172
-0.000543745
-0.000264087
3.4213e-05
0.000349147
0.000678282
0.00101877
0.00136737
0.00172047
0.00207414
0.00242419
0.00276619
0.00309561
0.00340785
0.00369834
0.00396266
0.00419661
0.00439631
0.00455832
0.00467971
0.00475815
0.00479195
0.00478014
0.0047225
0.00461952
0.00447247
0.0042833
0.00405465
0.0037897
0.00349219
0.00316624
0.00281628
0.00244694
0.00206298
0.00166914
0.0012699
0.000869596
0.000474342
8.99306e-05
-0.000307025
-0.000740177
0.00204391
0.00141735
0.000923136
0.000517575
0.000152117
-0.000174583
-0.000463638
-0.000719483
-0.000946393
-0.00114815
-0.00132823
-0.00148978
-0.00163561
-0.00176814
-0.00188942
-0.00200114
-0.00210463
-0.00220086
-0.00229047
-0.00237379
-0.00245083
-0.00252135
-0.00258482
-0.00264052
-0.00268748
-0.00272458
-0.00275055
-0.00276399
-0.00276344
-0.00274738
-0.00271428
-0.00266263
-0.00259101
-0.00249809
-0.00238271
-0.0022439
-0.00208094
-0.00189337
-0.00168106
-0.00144425
-0.00118356
-0.000900026
-0.000595131
-0.000270806
7.05522e-05
0.000426087
0.000792497
0.00116607
0.0015427
0.00191796
0.00228717
0.00264544
0.00298778
0.00330919
0.00360474
0.00386974
0.00409975
0.0042908
0.0044394
0.00454268
0.00459847
0.00460534
0.00456266
0.00447063
0.00433026
0.00414336
0.0039125
0.00364091
0.00333244
0.00299144
0.00262262
0.00223099
0.00182171
0.00139997
0.000970749
0.000538828
0.000111008
-0.000306276
-0.000738503
-0.00121139
0.00180711
0.00115646
0.000643768
0.000223517
-0.000154908
-0.000493075
-0.000792315
-0.0010574
-0.00129294
-0.00150298
-0.00169126
-0.00186114
-0.00201562
-0.00215728
-0.00228828
-0.00241041
-0.00252505
-0.00263323
-0.00273559
-0.00283244
-0.00292379
-0.00300932
-0.00308845
-0.00316036
-0.00322398
-0.00327809
-0.00332126
-0.00335195
-0.00336854
-0.00336931
-0.00335255
-0.00331654
-0.00325964
-0.00318031
-0.00307715
-0.00294896
-0.00279478
-0.00261391
-0.00240602
-0.00217113
-0.00190965
-0.00162248
-0.00131094
-0.000976855
-0.00062257
-0.000250924
0.000134745
0.000530624
0.000932459
0.0013356
0.00173507
0.00212563
0.00250187
0.00285831
0.00318951
0.00349017
0.00375529
0.00398025
0.00416094
0.00429389
0.00437635
0.00440635
0.00438279
0.00430548
0.00417514
0.00399338
0.00376266
0.00348625
0.0031681
0.0028128
0.00242536
0.0020112
0.00157593
0.00112525
0.000664659
0.000199468
-0.000262783
-0.000714953
-0.00118476
-0.00170012
0.00151125
0.000838026
0.000307985
-0.000126091
-0.000516778
-0.000865872
-0.00117493
-0.00144905
-0.00169315
-0.00191156
-0.00210827
-0.00228686
-0.00245049
-0.00260189
-0.00274335
-0.00287673
-0.00300347
-0.00312464
-0.00324087
-0.00335249
-0.00345944
-0.00356136
-0.0036576
-0.00374725
-0.00382913
-0.00390188
-0.00396395
-0.00401364
-0.00404914
-0.00406855
-0.00406995
-0.0040514
-0.00401104
-0.00394706
-0.00385784
-0.0037419
-0.00359802
-0.00342527
-0.00322303
-0.0029911
-0.00272966
-0.00243939
-0.00212146
-0.00177755
-0.00140989
-0.0010213
-0.000615119
-0.000195231
0.000233963
0.0006676
0.00110041
0.00152679
0.00194089
0.00233672
0.00270826
0.00304959
0.00335504
0.00361928
0.00383752
0.00400556
0.00411999
0.00417822
0.00417859
0.00412044
0.0040041
0.00383094
0.00360328
0.00332437
0.00299828
0.00262979
0.00222429
0.0017876
0.00132583
0.00084525
0.000351925
-0.000148234
-0.000646886
-0.00113611
-0.00164604
-0.00220695
0.00115378
0.000459543
-8.66556e-05
-0.000533657
-0.000935873
-0.00129533
-0.00161381
-0.00189675
-0.00214935
-0.00237624
-0.00258162
-0.00276928
-0.00294257
-0.00310435
-0.00325702
-0.00340252
-0.00354236
-0.0036776
-0.00380891
-0.00393657
-0.00406051
-0.0041803
-0.00429522
-0.00440425
-0.00450612
-0.00459932
-0.00468217
-0.00475279
-0.00480919
-0.00484927
-0.0048709
-0.0048719
-0.00485016
-0.00480362
-0.00473036
-0.00462865
-0.00449696
-0.00433407
-0.0041391
-0.00391153
-0.00365132
-0.00335888
-0.00303516
-0.00268167
-0.00230052
-0.00189443
-0.00146672
-0.00102132
-0.000562754
-9.60872e-05
0.000373127
0.000838912
0.00129496
0.00173474
0.00215161
0.00253897
0.00289041
0.00319983
0.00346163
0.00367081
0.00382319
0.00391545
0.00394527
0.00391141
0.00381377
0.00365335
0.0034323
0.00315378
0.00282197
0.00244187
0.0020192
0.00156024
0.00107166
0.000560331
3.29556e-05
-0.000503904
-0.00104102
-0.00156963
-0.00212245
-0.00273233
0.000732307
1.87058e-05
-0.000542412
-0.0010014
-0.0014144
-0.00178365
-0.00211116
-0.00240268
-0.00266372
-0.00289916
-0.00311345
-0.00331059
-0.00349406
-0.00366688
-0.00383154
-0.00399007
-0.00414401
-0.00429447
-0.0044421
-0.00458717
-0.00472956
-0.00486879
-0.00500405
-0.00513424
-0.00525796
-0.00537357
-0.00547924
-0.00557292
-0.00565243
-0.00571545
-0.00575963
-0.00578254
-0.00578181
-0.00575509
-0.00570018
-0.00561501
-0.00549776
-0.00534689
-0.00516117
-0.00493979
-0.00468238
-0.00438908
-0.00406058
-0.00369816
-0.00330374
-0.00287992
-0.00242997
-0.00195781
-0.00146807
-0.000965982
-0.000457379
5.13923e-05
0.000553553
0.001042
0.00150945
0.00194856
0.00235209
0.00271308
0.00302504
0.00328208
0.0034791
0.00361194
0.0036775
0.00367387
0.00360037
0.00345759
0.00324737
0.00297279
0.00263806
0.0022484
0.00180987
0.00132924
0.000813768
0.000270995
-0.000291687
-0.000866993
-0.00144472
-0.00201519
-0.00261392
-0.00327651
0.000244639
-0.000486594
-0.00106134
-0.00153136
-0.00195435
-0.00233279
-0.00266892
-0.00296879
-0.00323822
-0.00348232
-0.00370578
-0.00391277
-0.00410697
-0.00429149
-0.00446895
-0.00464144
-0.00481055
-0.00497739
-0.00514264
-0.00530654
-0.00546891
-0.00562923
-0.00578661
-0.00593983
-0.0060874
-0.00622754
-0.00635825
-0.0064773
-0.00658233
-0.0066708
-0.0067401
-0.00678757
-0.00681053
-0.00680634
-0.00677248
-0.00670655
-0.00660637
-0.00647005
-0.006296
-0.00608305
-0.00583048
-0.00553807
-0.00520622
-0.00483593
-0.0044289
-0.00398753
-0.00351497
-0.00301513
-0.00249267
-0.00195298
-0.00140215
-0.00084687
-0.000294408
0.000247557
0.000771037
0.0012679
0.00173002
0.00214949
0.00251882
0.00283108
0.00308017
0.00326094
0.00336938
0.00340275
0.00335969
0.00324024
0.00304589
0.00277952
0.00244533
0.00204873
0.00159614
0.00109481
0.000552647
-2.20912e-05
-0.000621244
-0.00123674
-0.0018573
-0.00247224
-0.00312012
-0.00383949
-0.000311184
-0.00105825
-0.0016453
-0.00212534
-0.00255752
-0.00294455
-0.00328888
-0.00359687
-0.00387461
-0.00412748
-0.00436035
-0.00457761
-0.00478307
-0.00497999
-0.00517107
-0.00535847
-0.00554382
-0.00572827
-0.00591248
-0.00609666
-0.00628062
-0.00646376
-0.00664511
-0.00682336
-0.00699689
-0.0071638
-0.00732192
-0.00746885
-0.007602
-0.00771864
-0.00781589
-0.00789082
-0.00794045
-0.00796182
-0.00795207
-0.00790844
-0.00782836
-0.00770955
-0.00755003
-0.00734819
-0.00710294
-0.00681367
-0.00648039
-0.00610378
-0.00568524
-0.00522693
-0.00473184
-0.00420378
-0.00364741
-0.00306823
-0.00247253
-0.00186737
-0.00126047
-0.000660109
-7.49958e-05
0.000485887
0.00101347
0.00149881
0.00193328
0.00230883
0.00261818
0.00285505
0.00301438
0.00309245
0.00308705
0.00299755
0.00282496
0.00257188
0.00224243
0.00184217
0.00137784
0.000857246
0.000288926
-0.000318061
-0.00095472
-0.00161211
-0.00227778
-0.00293994
-0.00364042
-0.00442098
-0.000936889
-0.00169792
-0.00229588
-0.00278494
-0.00322548
-0.00362048
-0.00397259
-0.00428846
-0.00457445
-0.00483617
-0.00507872
-0.00530665
-0.00552393
-0.00573393
-0.00593946
-0.00614273
-0.00634542
-0.0065487
-0.00675323
-0.00695922
-0.00716641
-0.00737415
-0.0075814
-0.00778676
-0.00798848
-0.00818452
-0.00837256
-0.00855002
-0.0087141
-0.00886184
-0.00899009
-0.00909565
-0.00917521
-0.0092255
-0.00924325
-0.00922534
-0.00916879
-0.00907087
-0.00892916
-0.00874161
-0.00850665
-0.00822325
-0.00789098
-0.00751012
-0.0070817
-0.00660759
-0.00609053
-0.00553417
-0.00494312
-0.00432292
-0.00368004
-0.00302185
-0.00235651
-0.0016929
-0.00104048
-0.000409119
0.00019111
0.00075012
0.00125807
0.00170563
0.0020842
0.00238622
0.00260537
0.00273679
0.00277726
0.00272532
0.00258135
0.00234754
0.00202787
0.00162796
0.00115488
0.000616949
2.34166e-05
-0.000615816
-0.00129085
-0.00199177
-0.00270486
-0.00341709
-0.00417384
-0.00502033
-0.00163394
-0.00240701
-0.00301447
-0.00351148
-0.00395956
-0.00436189
-0.00472135
-0.00504486
-0.00533902
-0.0056097
-0.00586217
-0.00610116
-0.0063308
-0.00655458
-0.00677537
-0.00699547
-0.00721661
-0.00743996
-0.0076662
-0.00789551
-0.0081276
-0.00836178
-0.00859691
-0.00883152
-0.00906373
-0.00929137
-0.00951197
-0.00972275
-0.00992073
-0.0101027
-0.0102652
-0.0104048
-0.0105178
-0.0106006
-0.0106496
-0.0106612
-0.010632
-0.0105588
-0.0104386
-0.010269
-0.0100478
-0.00977357
-0.00944529
-0.00906281
-0.00862672
-0.00813851
-0.00760059
-0.0070164
-0.00639039
-0.00572811
-0.00503613
-0.00432208
-0.00359454
-0.00286298
-0.00213761
-0.0014292
-0.000748913
-0.000108049
0.000482223
0.00101114
0.00146866
0.00184573
0.00213458
0.00232903
0.00242464
0.00241894
0.00231149
0.00210395
0.00180001
0.00140531
0.000927187
0.000374464
-0.000242862
-0.000913992
-0.00162803
-0.00237403
-0.00313683
-0.00390208
-0.00471897
-0.00563644
-0.00240354
-0.00318667
-0.00380218
-0.00430608
-0.00476084
-0.00516986
-0.00553622
-0.00586711
-0.00616938
-0.00644908
-0.00671171
-0.00696216
-0.00720469
-0.00744289
-0.00767975
-0.00791763
-0.00815829
-0.00840294
-0.00865226
-0.00890642
-0.0091651
-0.00942755
-0.00969258
-0.00995861
-0.0102237
-0.0104855
-0.0107413
-0.0109883
-0.0112233
-0.0114427
-0.011643
-0.0118202
-0.0119705
-0.0120898
-0.012174
-0.0122192
-0.0122215
-0.0121772
-0.0120828
-0.0119352
-0.0117318
-0.0114705
-0.0111498
-0.0107689
-0.0103279
-0.00982794
-0.00927091
-0.00865995
-0.00799932
-0.00729443
-0.00655193
-0.00577963
-0.00498649
-0.00418252
-0.00337868
-0.00258668
-0.00181879
-0.00108761
-0.000405748
0.000214481
0.000761385
0.00122425
0.00159367
0.00186188
0.00202302
0.00207336
0.00201148
0.0018383
0.0015571
0.00117341
0.000694764
0.000130497
-0.000508643
-0.0012109
-0.00196431
-0.00275677
-0.00357155
-0.00439283
-0.00527392
-0.00626774
-0.00324659
-0.00403776
-0.00465985
-0.00516956
-0.00563015
-0.0060452
-0.00641802
-0.00675602
-0.00706629
-0.00735508
-0.00762808
-0.00789033
-0.00814624
-0.0083995
-0.0086532
-0.00890975
-0.00917098
-0.00943812
-0.00971186
-0.00999236
-0.0102793
-0.0105718
-0.0108688
-0.0111684
-0.0114687
-0.0117672
-0.0120611
-0.0123474
-0.0126225
-0.0128828
-0.0131244
-0.013343
-0.0135345
-0.0136944
-0.0138182
-0.0139015
-0.0139398
-0.013929
-0.0138649
-0.013744
-0.0135628
-0.0133188
-0.0130098
-0.0126343
-0.012192
-0.0116832
-0.0111094