/*--------------------------------*- C++ -*----------------------------------*\
  =========                 |
  \\      /  F ield         | OpenFOAM: The Open Source CFD Toolbox
   \\    /   O peration     | Website:  https://openfoam.org
    \\  /    A nd           | Version:  7
     \\/     M anipulation  |
\*---------------------------------------------------------------------------*/
FoamFile
{
    version     2.0;
    format      ascii;
    class       volVectorField;
    location    "0.675";
    object      U;
}
// * * * * * * * * * * * * * * * * * * * * * * * * * * * * * * * * * * * * * //

dimensions      [0 1 -1 0 0 0 0];

internalField   nonuniform List<vector> 
6400
(
(1.10534e-05 -1.14884e-05 0)
(3.10989e-05 -1.20725e-05 0)
(3.63192e-05 -3.74003e-06 0)
(1.55172e-05 6.2159e-06 0)
(-3.31822e-05 1.5457e-05 0)
(-0.000106904 2.32421e-05 0)
(-0.000201636 2.9398e-05 0)
(-0.000313326 3.4064e-05 0)
(-0.000438216 3.7481e-05 0)
(-0.000573059 3.98974e-05 0)
(-0.000715169 4.15358e-05 0)
(-0.000862386 4.25859e-05 0)
(-0.00101302 4.32061e-05 0)
(-0.00116579 4.35223e-05 0)
(-0.0013197 4.36274e-05 0)
(-0.00147403 4.35868e-05 0)
(-0.00162821 4.34434e-05 0)
(-0.0017818 4.32222e-05 0)
(-0.00193439 4.29321e-05 0)
(-0.00208562 4.25686e-05 0)
(-0.0022351 4.21176e-05 0)
(-0.00238238 4.15586e-05 0)
(-0.00252697 4.08656e-05 0)
(-0.00266829 4.00088e-05 0)
(-0.00280568 3.89564e-05 0)
(-0.00293838 3.76769e-05 0)
(-0.00306554 3.61401e-05 0)
(-0.00318623 3.43172e-05 0)
(-0.00329947 3.21822e-05 0)
(-0.00340416 2.97128e-05 0)
(-0.0034992 2.68914e-05 0)
(-0.00358343 2.3706e-05 0)
(-0.00365568 2.01507e-05 0)
(-0.00371478 1.62266e-05 0)
(-0.0037596 1.19428e-05 0)
(-0.00378907 7.31616e-06 0)
(-0.00380219 2.37211e-06 0)
(-0.00379805 -2.85718e-06 0)
(-0.0037759 -8.32581e-06 0)
(-0.00373515 -1.39798e-05 0)
(-0.00367539 -1.97581e-05 0)
(-0.00359643 -2.5591e-05 0)
(-0.0034983 -3.14008e-05 0)
(-0.00338132 -3.71023e-05 0)
(-0.00324604 -4.26048e-05 0)
(-0.00309333 -4.78152e-05 0)
(-0.00292433 -5.26395e-05 0)
(-0.00274046 -5.6985e-05 0)
(-0.00254343 -6.07628e-05 0)
(-0.00233519 -6.38907e-05 0)
(-0.00211792 -6.62962e-05 0)
(-0.00189404 -6.79186e-05 0)
(-0.00166608 -6.87116e-05 0)
(-0.00143672 -6.86453e-05 0)
(-0.00120868 -6.77081e-05 0)
(-0.000984714 -6.59067e-05 0)
(-0.000767504 -6.32664e-05 0)
(-0.000559648 -5.98308e-05 0)
(-0.000363589 -5.56604e-05 0)
(-0.000181563 -5.0831e-05 0)
(-1.55625e-05 -4.54314e-05 0)
(0.000132697 -3.95604e-05 0)
(0.000261811 -3.33168e-05 0)
(0.000370705 -2.68124e-05 0)
(0.000458645 -2.01569e-05 0)
(0.000525245 -1.3459e-05 0)
(0.000570472 -6.82592e-06 0)
(0.000594645 -3.63314e-07 0)
(0.000598439 5.82324e-06 0)
(0.000582897 1.16269e-05 0)
(0.00054945 1.69264e-05 0)
(0.000499965 2.15803e-05 0)
(0.000436815 2.54086e-05 0)
(0.000362997 2.81662e-05 0)
(0.000282312 2.95015e-05 0)
(0.000199631 2.89084e-05 0)
(0.000121184 2.56857e-05 0)
(5.46763e-05 1.89141e-05 0)
(9.315e-06 7.95557e-06 0)
(-3.41471e-06 -3.36447e-06 0)
(1.17063e-05 -3.12192e-05 0)
(1.97242e-05 -2.00219e-05 0)
(-1.61727e-05 2.25261e-05 0)
(-0.000112016 7.33794e-05 0)
(-0.000270975 0.000122754 0)
(-0.000489139 0.000166435 0)
(-0.000759218 0.0002029 0)
(-0.00107282 0.000232129 0)
(-0.0014216 0.00025479 0)
(-0.00179795 0.000271813 0)
(-0.00219521 0.000284174 0)
(-0.00260781 0.000292793 0)
(-0.00303118 0.000298482 0)
(-0.00346166 0.000301913 0)
(-0.00389632 0.00030362 0)
(-0.00433285 0.000303999 0)
(-0.00476938 0.000303327 0)
(-0.00520433 0.000301775 0)
(-0.00563629 0.000299423 0)
(-0.00606394 0.000296276 0)
(-0.00648594 0.000292278 0)
(-0.00690084 0.000287331 0)
(-0.00730708 0.000281301 0)
(-0.0077029 0.000274033 0)
(-0.00808637 0.00026536 0)
(-0.00845534 0.000255114 0)
(-0.00880743 0.000243131 0)
(-0.00914012 0.00022926 0)
(-0.00945067 0.000213368 0)
(-0.00973623 0.000195347 0)
(-0.00999384 0.000175118 0)
(-0.0102205 0.000152638 0)
(-0.0104131 0.000127905 0)
(-0.0105688 0.000100956 0)
(-0.0106847 7.1878e-05 0)
(-0.0107581 4.08085e-05 0)
(-0.0107865 7.93373e-06 0)
(-0.0107678 -2.65257e-05 0)
(-0.0107002 -6.22619e-05 0)
(-0.0105823 -9.89349e-05 0)
(-0.0104135 -0.000136155 0)
(-0.0101933 -0.000173486 0)
(-0.00992209 -0.000210454 0)
(-0.0096009 -0.000246548 0)
(-0.00923139 -0.000281236 0)
(-0.00881593 -0.00031397 0)
(-0.00835763 -0.000344202 0)
(-0.00786028 -0.000371396 0)
(-0.00732836 -0.000395041 0)
(-0.00676699 -0.000414669 0)
(-0.00618184 -0.000429865 0)
(-0.00557907 -0.000440286 0)
(-0.00496524 -0.000445667 0)
(-0.00434719 -0.000445838 0)
(-0.00373192 -0.000440728 0)
(-0.00312646 -0.00043037 0)
(-0.00253773 -0.000414904 0)
(-0.00197242 -0.00039457 0)
(-0.00143684 -0.000369707 0)
(-0.00093684 -0.000340741 0)
(-0.000477649 -0.000308176 0)
(-6.38172e-05 -0.000272579 0)
(0.000300866 -0.000234555 0)
(0.000613445 -0.000194752 0)
(0.000871842 -0.00015384 0)
(0.00107488 -0.000112499 0)
(0.00122229 -7.14147e-05 0)
(0.0013148 -3.12824e-05 0)
(0.00135407 7.18687e-06 0)
(0.00134279 4.32497e-05 0)
(0.00128473 7.60945e-05 0)
(0.00118484 0.000104802 0)
(0.00104939 0.000128284 0)
(0.000886188 0.000145199 0)
(0.000704814 0.000153858 0)
(0.000516936 0.000152155 0)
(0.000336317 0.000137625 0)
(0.000178351 0.000107738 0)
(6.12137e-05 6.1607e-05 0)
(7.69821e-06 9.19921e-06 0)
(3.96546e-06 -3.68391e-05 0)
(-2.31221e-05 1.61855e-05 0)
(-0.000128063 0.000125431 0)
(-0.000320574 0.00025211 0)
(-0.000601941 0.000376644 0)
(-0.000967198 0.000489126 0)
(-0.00140718 0.000585306 0)
(-0.00191093 0.000664312 0)
(-0.00246724 0.000727086 0)
(-0.00306557 0.000775434 0)
(-0.00369649 0.000811483 0)
(-0.00435183 0.000837361 0)
(-0.00502474 0.000855016 0)
(-0.00570951 0.000866124 0)
(-0.0064015 0.000872042 0)
(-0.00709689 0.00087381 0)
(-0.00779246 0.000872174 0)
(-0.00848548 0.000867611 0)
(-0.00917343 0.000860363 0)
(-0.00985394 0.000850477 0)
(-0.0105246 0.000837843 0)
(-0.0111831 0.000822229 0)
(-0.0118265 0.000803313 0)
(-0.0124521 0.000780714 0)
(-0.0130566 0.000754019 0)
(-0.0136367 0.000722812 0)
(-0.0141886 0.000686689 0)
(-0.0147083 0.000645281 0)
(-0.0151917 0.000598271 0)
(-0.0156343 0.000545412 0)
(-0.0160317 0.000486542 0)
(-0.0163795 0.000421591 0)
(-0.016673 0.000350598 0)
(-0.016908 0.000273719 0)
(-0.0170803 0.000191233 0)
(-0.017186 0.000103555 0)
(-0.0172216 1.1234e-05 0)
(-0.0171842 -8.50976e-05 0)
(-0.0170714 -0.00018458 0)
(-0.0168813 -0.000286279 0)
(-0.016613 -0.000389132 0)
(-0.0162664 -0.000491963 0)
(-0.0158421 -0.000593497 0)
(-0.015342 -0.000692383 0)
(-0.0147687 -0.000787213 0)
(-0.0141259 -0.00087655 0)
(-0.0134184 -0.000958964 0)
(-0.012652 -0.00103306 0)
(-0.0118333 -0.00109751 0)
(-0.0109701 -0.0011511 0)
(-0.0100708 -0.00119276 0)
(-0.00914452 -0.00122159 0)
(-0.00820099 -0.00123692 0)
(-0.00725032 -0.0012383 0)
(-0.00630289 -0.00122554 0)
(-0.00536911 -0.0011987 0)
(-0.00445926 -0.00115815 0)
(-0.00358331 -0.00110449 0)
(-0.00275068 -0.00103858 0)
(-0.00197015 -0.000961522 0)
(-0.00124964 -0.000874618 0)
(-0.000596068 -0.00077934 0)
(-1.52621e-05 -0.000677298 0)
(0.000488166 -0.000570205 0)
(0.000910893 -0.000459854 0)
(0.00125094 -0.000348093 0)
(0.00150774 -0.000236809 0)
(0.00168216 -0.00012793 0)
(0.00177655 -2.34498e-05 0)
(0.00179484 7.45407e-05 0)
(0.00174259 0.000163786 0)
(0.00162711 0.000241783 0)
(0.00145765 0.000305672 0)
(0.00124557 0.00035212 0)
(0.00100452 0.000377217 0)
(0.000750713 0.000376501 0)
(0.000502542 0.000345285 0)
(0.000279878 0.000279543 0)
(0.00010715 0.00017851 0)
(1.84169e-05 5.39476e-05 0)
(-6.36668e-06 -1.54272e-05 0)
(-7.77977e-05 0.000115381 0)
(-0.000265764 0.000320123 0)
(-0.000567671 0.000547784 0)
(-0.000979846 0.000770495 0)
(-0.00149526 0.000972928 0)
(-0.00210281 0.00114792 0)
(-0.00278953 0.00129352 0)
(-0.00354224 0.0014108 0)
(-0.00434835 0.00150243 0)
(-0.00519642 0.00157179 0)
(-0.0060764 0.00162238 0)
(-0.00697964 0.00165749 0)
(-0.00789884 0.00168002 0)
(-0.00882784 0.00169233 0)
(-0.00976149 0.00169629 0)
(-0.0106953 0.00169324 0)
(-0.0116255 0.00168406 0)
(-0.0125484 0.00166921 0)
(-0.0134606 0.00164881 0)
(-0.0143586 0.00162269 0)
(-0.015239 0.00159048 0)
(-0.016098 0.0015516 0)
(-0.0169316 0.00150541 0)
(-0.0177354 0.0014512 0)
(-0.0185048 0.00138825 0)
(-0.0192349 0.00131586 0)
(-0.0199205 0.00123341 0)
(-0.020556 0.00114039 0)
(-0.021136 0.00103639 0)
(-0.0216546 0.000921196 0)
(-0.0221062 0.000794744 0)
(-0.0224851 0.000657179 0)
(-0.022786 0.000508862 0)
(-0.0230036 0.000350375 0)
(-0.0231333 0.000182534 0)
(-0.023171 6.39331e-06 0)
(-0.0231131 -0.000176678 0)
(-0.0229567 -0.000365209 0)
(-0.0227 -0.000557423 0)
(-0.022342 -0.000751334 0)
(-0.0218828 -0.000944769 0)
(-0.0213235 -0.00113539 0)
(-0.0206667 -0.00132072 0)
(-0.0199158 -0.00149821 0)
(-0.0190758 -0.00166526 0)
(-0.0181528 -0.00181928 0)
(-0.0171541 -0.00195774 0)
(-0.0160883 -0.00207828 0)
(-0.0149651 -0.00217869 0)
(-0.0137951 -0.00225704 0)
(-0.0125899 -0.00231174 0)
(-0.0113616 -0.00234153 0)
(-0.0101231 -0.00234561 0)
(-0.00888729 -0.00232361 0)
(-0.0076674 -0.00227564 0)
(-0.00647641 -0.0022023 0)
(-0.00532694 -0.00210468 0)
(-0.00423101 -0.00198429 0)
(-0.00319984 -0.0018431 0)
(-0.00224361 -0.00168346 0)
(-0.00137128 -0.00150802 0)
(-0.000590466 -0.00131971 0)
(9.27396e-05 -0.00112167 0)
(0.000673853 -0.000917228 0)
(0.0011501 -0.000709799 0)
(0.0015205 -0.00050292 0)
(0.0017859 -0.000300226 0)
(0.0019491 -0.000105477 0)
(0.00201487 7.73846e-05 0)
(0.00199007 0.000244143 0)
(0.00188376 0.000390199 0)
(0.00170736 0.000510432 0)
(0.00147475 0.000599073 0)
(0.00120246 0.000649644 0)
(0.000909763 0.000655082 0)
(0.000618284 0.000608264 0)
(0.000351253 0.000503183 0)
(0.000138613 0.000337542 0)
(2.51959e-05 0.000119915 0)
(-1.68884e-05 3.65975e-05 0)
(-0.000135462 0.000285761 0)
(-0.000412503 0.00061514 0)
(-0.000830057 0.000966369 0)
(-0.00137745 0.00130583 0)
(-0.00204447 0.00161418 0)
(-0.00281761 0.00188198 0)
(-0.00368193 0.00210641 0)
(-0.00462253 0.00228877 0)
(-0.00562528 0.00243262 0)
(-0.00667726 0.00254262 0)
(-0.00776697 0.00262371 0)
(-0.00888442 0.00268061 0)
(-0.010021 0.0027175 0)
(-0.0111693 0.00273788 0)
(-0.0123231 0.00274449 0)
(-0.0134769 0.00273936 0)
(-0.0146256 0.00272381 0)
(-0.0157646 0.00269857 0)
(-0.0168895 0.00266383 0)
(-0.0179959 0.00261937 0)
(-0.0190792 0.00256464 0)
(-0.0201347 0.00249883 0)
(-0.0211572 0.00242099 0)
(-0.0221414 0.00233009 0)
(-0.0230816 0.00222507 0)
(-0.0239716 0.00210496 0)
(-0.0248053 0.00196888 0)
(-0.0255761 0.0018161 0)
(-0.0262774 0.00164613 0)
(-0.0269023 0.0014587 0)
(-0.0274443 0.00125383 0)
(-0.0278969 0.00103185 0)
(-0.0282539 0.00079342 0)
(-0.0285094 0.000539527 0)
(-0.0286582 0.000271524 0)
(-0.0286956 -8.88051e-06 0)
(-0.0286178 -0.000299542 0)
(-0.0284217 -0.000598106 0)
(-0.0281055 -0.000901807 0)
(-0.0276683 -0.00120757 0)
(-0.0271103 -0.00151203 0)
(-0.0264332 -0.00181162 0)
(-0.02564 -0.00210255 0)
(-0.024735 -0.00238092 0)
(-0.023724 -0.00264277 0)
(-0.0226143 -0.00288418 0)
(-0.0214144 -0.00310132 0)
(-0.0201345 -0.00329056 0)
(-0.0187856 -0.00344858 0)
(-0.0173803 -0.00357244 0)
(-0.0159319 -0.00365968 0)
(-0.0144547 -0.0037084 0)
(-0.0129635 -0.00371732 0)
(-0.0114735 -0.00368585 0)
(-0.0100003 -0.00361411 0)
(-0.00855899 -0.00350297 0)
(-0.00716451 -0.00335402 0)
(-0.00583111 -0.00316953 0)
(-0.00457211 -0.00295247 0)
(-0.00339967 -0.00270637 0)
(-0.0023246 -0.00243529 0)
(-0.00135611 -0.00214371 0)
(-0.000501706 -0.00183649 0)
(0.000233037 -0.00151874 0)
(0.000844529 -0.00119582 0)
(0.00133129 -0.000873252 0)
(0.00169403 -0.000556748 0)
(0.00193575 -0.000252218 0)
(0.00206177 3.41602e-05 0)
(0.00207988 0.000295834 0)
(0.0020004 0.000525751 0)
(0.0018363 0.000716211 0)
(0.00160329 0.000858752 0)
(0.00131999 0.00094412 0)
(0.00100797 0.000962455 0)
(0.000691374 0.000903866 0)
(0.000396394 0.000759557 0)
(0.000157781 0.000523911 0)
(2.89319e-05 0.000199145 0)
(-2.68779e-05 0.000119193 0)
(-0.000192318 0.000529385 0)
(-0.0005595 0.00101397 0)
(-0.00109427 0.00151144 0)
(-0.00177782 0.00198512 0)
(-0.00259589 0.00241339 0)
(-0.00353201 0.00278558 0)
(-0.00456901 0.00309862 0)
(-0.00569033 0.00335431 0)
(-0.00688046 0.00355728 0)
(-0.00812527 0.00371356 0)
(-0.00941215 0.00382958 0)
(-0.01073 0.00391154 0)
(-0.0120693 0.00396496 0)
(-0.0134217 0.00399449 0)
(-0.0147797 0.0040038 0)
(-0.0161371 0.00399562 0)
(-0.0174878 0.00397174 0)
(-0.0188264 0.00393315 0)
(-0.0201474 0.00388014 0)
(-0.0214454 0.00381242 0)
(-0.022715 0.00372925 0)
(-0.0239505 0.00362959 0)
(-0.0251456 0.00351215 0)
(-0.0262942 0.00337559 0)
(-0.0273896 0.00321852 0)
(-0.0284246 0.00303969 0)
(-0.0293922 0.00283796 0)
(-0.0302848 0.00261248 0)
(-0.031095 0.00236266 0)
(-0.0318153 0.00208827 0)
(-0.0324382 0.00178947 0)
(-0.0329567 0.00146686 0)
(-0.0333639 0.00112147 0)
(-0.0336536 0.000754817 0)
(-0.0338201 0.000368899 0)
(-0.0338584 -3.37982e-05 0)
(-0.0337644 -0.000450352 0)
(-0.0335352 -0.000877292 0)
(-0.0331687 -0.00131075 0)
(-0.0326641 -0.00174644 0)
(-0.032022 -0.00217971 0)
(-0.0312443 -0.00260557 0)
(-0.0303344 -0.00301883 0)
(-0.0292971 -0.00341408 0)
(-0.028139 -0.00378587 0)
(-0.0268681 -0.00412877 0)
(-0.0254939 -0.00443752 0)
(-0.0240274 -0.00470709 0)
(-0.0224813 -0.00493288 0)
(-0.0208691 -0.0051108 0)
(-0.0192059 -0.00523741 0)
(-0.0175075 -0.00531001 0)
(-0.0157906 -0.00532679 0)
(-0.0140723 -0.00528684 0)
(-0.0123699 -0.00519025 0)
(-0.0107006 -0.00503813 0)
(-0.00908154 -0.00483259 0)
(-0.00752879 -0.00457672 0)
(-0.00605767 -0.00427456 0)
(-0.00468223 -0.00393096 0)
(-0.00341498 -0.00355153 0)
(-0.00226672 -0.00314254 0)
(-0.00124627 -0.00271075 0)
(-0.000360359 -0.00226337 0)
(0.000386583 -0.00180795 0)
(0.000992491 -0.00135231 0)
(0.00145781 -0.000904562 0)
(0.00178556 -0.000473083 0)
(0.00198141 -6.66089e-05 0)
(0.00205378 0.000305663 0)
(0.00201388 0.000633941 0)
(0.00187586 0.000907692 0)
(0.00165684 0.00111553 0)
(0.00137705 0.00124521 0)
(0.00105994 0.0012838 0)
(0.000731863 0.00121818 0)
(0.000421685 0.00103599 0)
(0.000168152 0.000727005 0)
(3.07336e-05 0.000285818 0)
(-3.61216e-05 0.000230955 0)
(-0.000246741 0.000845101 0)
(-0.000702352 0.00151614 0)
(-0.00135285 0.0021827 0)
(-0.00217087 0.00280751 0)
(-0.00313759 0.00336854 0)
(-0.00423309 0.00385512 0)
(-0.0054377 0.00426473 0)
(-0.00673308 0.00460019 0)
(-0.00810238 0.0048675 0)
(-0.00953038 0.00507421 0)
(-0.0110035 0.00522837 0)
(-0.0125099 0.00533765 0)
(-0.0140392 0.00540897 0)
(-0.0155821 0.00544814 0)
(-0.0171306 0.00545977 0)
(-0.0186774 0.00544727 0)
(-0.0202157 0.00541292 0)
(-0.0217393 0.00535794 0)
(-0.0232419 0.00528272 0)
(-0.0247171 0.00518688 0)
(-0.0261588 0.00506952 0)
(-0.0275602 0.0049293 0)
(-0.0289145 0.00476465 0)
(-0.0302144 0.00457389 0)
(-0.0314523 0.00435535 0)
(-0.0326206 0.00410749 0)
(-0.0337112 0.003829 0)
(-0.0347158 0.00351889 0)
(-0.0356265 0.00317657 0)
(-0.036435 0.00280191 0)
(-0.0371334 0.00239528 0)
(-0.0377141 0.00195761 0)
(-0.0381699 0.00149041 0)
(-0.0384941 0.000995775 0)
(-0.038681 0.000476429 0)
(-0.0387251 -6.43023e-05 0)
(-0.0386225 -0.000622511 0)
(-0.0383699 -0.00119367 0)
(-0.0379652 -0.0017727 0)
(-0.0374077 -0.00235404 0)
(-0.036698 -0.00293163 0)
(-0.0358381 -0.00349903 0)
(-0.0348315 -0.00404949 0)
(-0.0336836 -0.00457603 0)
(-0.032401 -0.00507159 0)
(-0.0309922 -0.00552912 0)
(-0.0294674 -0.00594176 0)
(-0.0278385 -0.00630298 0)
(-0.0261186 -0.00660673 0)
(-0.0243227 -0.00684763 0)
(-0.0224669 -0.0070211 0)
(-0.0205685 -0.00712354 0)
(-0.0186455 -0.00715243 0)
(-0.0167168 -0.00710646 0)
(-0.0148016 -0.00698561 0)
(-0.0129189 -0.00679116 0)
(-0.0110877 -0.00652573 0)
(-0.00932608 -0.00619326 0)
(-0.00765137 -0.00579889 0)
(-0.00607943 -0.00534891 0)
(-0.00462455 -0.00485064 0)
(-0.00329913 -0.00431226 0)
(-0.00211343 -0.00374268 0)
(-0.00107536 -0.00315143 0)
(-0.000190291 -0.00254852 0)
(0.000539019 -0.00194434 0)
(0.00111262 -0.00134969 0)
(0.00153342 -0.000775698 0)
(0.00180725 -0.000233945 0)
(0.00194297 0.000263462 0)
(0.00195249 0.000703742 0)
(0.00185088 0.0010733 0)
(0.00165641 0.00135759 0)
(0.0013907 0.00154113 0)
(0.00107888 0.00160761 0)
(0.000749316 0.00154025 0)
(0.000433306 0.00132248 0)
(0.00017282 0.000938793 0)
(3.14236e-05 0.000376022 0)
(-4.46524e-05 0.000370265 0)
(-0.000298229 0.00123031 0)
(-0.000839098 0.00211897 0)
(-0.00160196 0.00297742 0)
(-0.00255099 0.00376997 0)
(-0.00366248 0.00447587 0)
(-0.00491279 0.00508579 0)
(-0.00627952 0.00559871 0)
(-0.00774241 0.00601909 0)
(-0.00928322 0.00635467 0)
(-0.0108857 0.0066148 0)
(-0.0125355 0.00680923 0)
(-0.0142199 0.00694725 0)
(-0.0159279 0.00703715 0)
(-0.0176496 0.00708593 0)
(-0.0193764 0.00709912 0)
(-0.0211003 0.00708081 0)
(-0.0228138 0.00703372 0)
(-0.0245099 0.00695932 0)
(-0.0261816 0.00685804 0)
(-0.027822 0.00672943 0)
(-0.0294238 0.00657238 0)
(-0.0309798 0.00638532 0)
(-0.0324822 0.00616636 0)
(-0.0339231 0.00591351 0)
(-0.0352943 0.00562485 0)
(-0.0365873 0.0052986 0)
(-0.0377935 0.0049333 0)
(-0.0389042 0.00452792 0)
(-0.0399107 0.0040819 0)
(-0.0408044 0.00359527 0)
(-0.041577 0.00306869 0)
(-0.0422206 0.00250349 0)
(-0.0427278 0.00190169 0)
(-0.0430916 0.00126606 0)
(-0.043306 0.000600058 0)
(-0.0433655 -9.20926e-05 0)
(-0.0432659 -0.000805478 0)
(-0.0430037 -0.00153447 0)
(-0.0425768 -0.00227279 0)
(-0.0419841 -0.00301352 0)
(-0.0412262 -0.00374921 0)
(-0.0403048 -0.0044719 0)
(-0.0392235 -0.00517323 0)
(-0.0379872 -0.00584459 0)
(-0.0366028 -0.0064772 0)
(-0.0350789 -0.00706229 0)
(-0.0334259 -0.00759128 0)
(-0.0316558 -0.00805596 0)
(-0.0297826 -0.00844869 0)
(-0.0278218 -0.0087626 0)
(-0.0257906 -0.00899181 0)
(-0.0237074 -0.0091316 0)
(-0.0215916 -0.00917861 0)
(-0.0194637 -0.00913095 0)
(-0.0173446 -0.00898835 0)
(-0.0152553 -0.0087522 0)
(-0.0132167 -0.00842555 0)
(-0.0112491 -0.00801315 0)
(-0.00937181 -0.00752132 0)
(-0.00760269 -0.00695785 0)
(-0.005958 -0.00633187 0)
(-0.00445193 -0.00565367 0)
(-0.00309632 -0.00493451 0)
(-0.00190044 -0.00418646 0)
(-0.000870779 -0.00342225 0)
(-1.09071e-05 -0.00265514 0)
(0.000678684 -0.00189886 0)
(0.00120066 -0.0011676 0)
(0.0015609 -0.00047603 0)
(0.00176855 0.000160562 0)
(0.0018361 0.000726167 0)
(0.00177943 0.00120389 0)
(0.00161787 0.0015758 0)
(0.00137432 0.00182292 0)
(0.00107549 0.00192524 0)
(0.000751645 0.00186195 0)
(0.00043634 0.00161185 0)
(0.000174185 0.00115385 0)
(3.15713e-05 0.000467444 0)
(-5.25572e-05 0.000535455 0)
(-0.000346748 0.00168179 0)
(-0.000969031 0.00281862 0)
(-0.00183987 0.00389151 0)
(-0.00291528 0.00486812 0)
(-0.00416661 0.00573059 0)
(-0.00556637 0.00647221 0)
(-0.00708929 0.00709439 0)
(-0.00871307 0.00760395 0)
(-0.010418 0.00801084 0)
(-0.0121869 0.0083265 0)
(-0.0140044 0.00856259 0)
(-0.0158575 0.0087301 0)
(-0.0177343 0.00883875 0)
(-0.0196246 0.00889671 0)
(-0.0215192 0.00891044 0)
(-0.0234095 0.00888469 0)
(-0.0252875 0.00882258 0)
(-0.0271455 0.00872581 0)
(-0.0289761 0.00859484 0)
(-0.0307715 0.00842914 0)
(-0.032524 0.00822738 0)
(-0.0342256 0.00798775 0)
(-0.035868 0.00770807 0)
(-0.0374427 0.0073861 0)
(-0.0389408 0.00701965 0)
(-0.0403534 0.00660679 0)
(-0.0416715 0.00614596 0)
(-0.042886 0.00563613 0)
(-0.0439877 0.00507686 0)
(-0.044968 0.00446838 0)
(-0.0458182 0.00381169 0)
(-0.0465303 0.00310856 0)
(-0.0470965 0.00236158 0)
(-0.04751 0.00157415 0)
(-0.0477642 0.000750531 0)
(-0.0478538 -0.000104201 0)
(-0.0477739 -0.000984151 0)
(-0.047521 -0.00188261 0)
(-0.0470924 -0.00279212 0)
(-0.0464868 -0.00370446 0)
(-0.045704 -0.00461077 0)
(-0.0447454 -0.0055016 0)
(-0.0436138 -0.00636696 0)
(-0.0423139 -0.00719654 0)
(-0.0408519 -0.00797976 0)
(-0.0392361 -0.00870603 0)
(-0.0374766 -0.00936489 0)
(-0.0355856 -0.00994627 0)
(-0.0335772 -0.0104407 0)
(-0.0314674 -0.0108397 0)
(-0.0292739 -0.0111357 0)
(-0.0270162 -0.0113227 0)
(-0.0247153 -0.0113962 0)
(-0.0223929 -0.0113536 0)
(-0.020072 -0.0111942 0)
(-0.0177755 -0.0109192 0)
(-0.0155266 -0.0105321 0)
(-0.0133479 -0.0100383 0)
(-0.011261 -0.00944544 0)
(-0.00928621 -0.0087628 0)
(-0.00744201 -0.00800146 0)
(-0.00574466 -0.00717397 0)
(-0.00420792 -0.00629417 0)
(-0.0028427 -0.00537693 0)
(-0.00165682 -0.00443798 0)
(-0.000654881 -0.00349373 0)
(0.000161919 -0.00256116 0)
(0.000795853 -0.00165779 0)
(0.00125273 -0.000801707 0)
(0.00154194 -1.16184e-05 0)
(0.00167648 0.000692975 0)
(0.00167299 0.00129163 0)
(0.00155184 0.00176279 0)
(0.00133724 0.00208369 0)
(0.00105747 0.00223034 0)
(0.000744654 0.0021776 0)
(0.000434491 0.00189939 0)
(0.00017392 0.00136894 0)
(3.15395e-05 0.000558919 0)
(-5.99208e-05 0.000724948 0)
(-0.000392435 0.00219615 0)
(-0.00109206 0.00361073 0)
(-0.00206598 0.00492008 0)
(-0.00326245 0.00609676 0)
(-0.004648 0.00712719 0)
(-0.00619129 0.00800846 0)
(-0.00786412 0.00874539 0)
(-0.00964207 0.00934783 0)
(-0.011504 0.00982848 0)
(-0.0134316 0.0102012 0)
(-0.0154088 0.0104798 0)
(-0.017422 0.0106771 0)
(-0.0194589 0.0108043 0)
(-0.0215088 0.0108708 0)
(-0.023562 0.0108839 0)
(-0.0256095 0.0108491 0)
(-0.0276431 0.0107698 0)
(-0.0296544 0.010648 0)
(-0.0316354 0.010484 0)
(-0.0335781 0.0102774 0)
(-0.0354741 0.0100265 0)
(-0.0373149 0.00972935 0)
(-0.0390918 0.00938346 0)
(-0.0407958 0.00898637 0)
(-0.0424178 0.00853571 0)
(-0.0439484 0.00802942 0)
(-0.0453784 0.00746591 0)
(-0.0466984 0.00684421 0)
(-0.0478993 0.00616404 0)
(-0.0489721 0.0054259 0)
(-0.0499082 0.00463114 0)
(-0.0506994 0.00378199 0)
(-0.051338 0.00288158 0)
(-0.0518167 0.00193396 0)
(-0.052129 0.000944081 0)
(-0.052269 -8.21663e-05 0)
(-0.0522317 -0.00113799 0)
(-0.0520128 -0.0022157 0)
(-0.0516089 -0.00330675 0)
(-0.0510179 -0.00440171 0)
(-0.0502387 -0.00549038 0)
(-0.0492717 -0.00656183 0)
(-0.0481186 -0.00760448 0)
(-0.046783 -0.00860627 0)
(-0.0452703 -0.00955476 0)
(-0.0435876 -0.0104374 0)
(-0.0417446 -0.0112416 0)
(-0.0397529 -0.0119553 0)
(-0.0376262 -0.0125669 0)
(-0.0353809 -0.0130659 0)
(-0.0330352 -0.0134429 0)
(-0.0306095 -0.0136902 0)
(-0.0281259 -0.013802 0)
(-0.025608 -0.0137743 0)
(-0.0230805 -0.0136059 0)
(-0.020569 -0.0132977 0)
(-0.0180989 -0.0128533 0)
(-0.0156957 -0.0122789 0)
(-0.0133838 -0.0115831 0)
(-0.0111863 -0.0107769 0)
(-0.00912449 -0.00987346 0)
(-0.00721713 -0.00888776 0)
(-0.00548034 -0.00783646 0)
(-0.00392705 -0.00673752 0)
(-0.00256681 -0.00561 0)
(-0.00140552 -0.0044738 0)
(-0.000445324 -0.0033495 0)
(0.000315501 -0.0022583 0)
(0.000882583 -0.00122201 0)
(0.00126548 -0.000263077 0)
(0.00147769 0.000595214 0)
(0.00153665 0.0013286 0)
(0.00146383 0.00191162 0)
(0.00128481 0.00231747 0)
(0.00102952 0.0025179 0)
(0.000732003 0.00248315 0)
(0.000430116 0.0021821 0)
(0.000173062 0.00158228 0)
(3.15382e-05 0.000650008 0)
(-6.68175e-05 0.000937297 0)
(-0.000435478 0.00276997 0)
(-0.00120835 0.00449069 0)
(-0.00228026 0.00605785 0)
(-0.00359213 0.00745018 0)
(-0.00510591 0.00865966 0)
(-0.00678645 0.00968827 0)
(-0.00860265 0.0105451 0)
(-0.010528 0.0112438 0)
(-0.0125399 0.0118003 0)
(-0.0146189 0.0122313 0)
(-0.0167483 0.012553 0)
(-0.0189139 0.0127801 0)
(-0.021103 0.0129255 0)
(-0.0233046 0.0129998 0)
(-0.0255086 0.0130112 0)
(-0.0277058 0.0129658 0)
(-0.0298875 0.0128674 0)
(-0.0320451 0.0127182 0)
(-0.0341702 0.0125186 0)
(-0.0362544 0.0122678 0)
(-0.0382889 0.0119642 0)
(-0.0402651 0.0116055 0)
(-0.0421738 0.0111891 0)
(-0.0440058 0.0107122 0)
(-0.0457518 0.0101724 0)
(-0.0474025 0.00956752 0)
(-0.0489483 0.00889607 0)
(-0.05038 0.00815715 0)
(-0.0516884 0.00735068 0)
(-0.0528647 0.00647746 0)
(-0.0539003 0.00553919 0)
(-0.054787 0.00453852 0)
(-0.055517 0.00347907 0)
(-0.0560829 0.00236544 0)
(-0.0564779 0.00120317 0)
(-0.0566957 -1.18302e-06 0)
(-0.0567304 -0.0012401 0)
(-0.0565769 -0.00250508 0)
(-0.0562307 -0.00378663 0)
(-0.0556885 -0.00507428 0)
(-0.0549476 -0.00635662 0)
(-0.0540068 -0.00762131 0)
(-0.0528662 -0.00885523 0)
(-0.0515276 -0.0100445 0)
(-0.0499947 -0.0111748 0)
(-0.0482733 -0.0122313 0)
(-0.0463716 -0.0131994 0)
(-0.0443003 -0.0140644 0)
(-0.0420725 -0.0148124 0)
(-0.0397043 -0.0154305 0)
(-0.0372142 -0.015907 0)
(-0.0346233 -0.0162319 0)
(-0.0319551 -0.0163977 0)
(-0.029235 -0.016399 0)
(-0.0264899 -0.0162332 0)
(-0.023748 -0.0159008 0)
(-0.021038 -0.0154054 0)
(-0.0183884 -0.0147535 0)
(-0.0158271 -0.0139549 0)
(-0.0133807 -0.0130222 0)
(-0.0110738 -0.0119707 0)
(-0.00892853 -0.0108181 0)
(-0.00696387 -0.00958424 0)
(-0.00519538 -0.00829043 0)
(-0.00363476 -0.00695946 0)
(-0.00228966 -0.00561514 0)
(-0.00116347 -0.00428209 0)
(-0.00025524 -0.00298561 0)
(0.000440335 -0.00175159 0)
(0.000932928 -0.00060663 0)
(0.00123655 0.000421883 0)
(0.00136951 0.00130554 0)
(0.00135449 0.00201468 0)
(0.00121856 0.00251818 0)
(0.000993483 0.00278323 0)
(0.00071537 0.00277526 0)
(0.000424377 0.00245789 0)
(0.000172135 0.00179297 0)
(3.16706e-05 0.00074067 0)
(-7.33031e-05 0.00117117 0)
(-0.000476058 0.00339999 0)
(-0.00131818 0.00545391 0)
(-0.00248295 0.00729937 0)
(-0.00390446 0.00892244 0)
(-0.00554025 0.0103217 0)
(-0.00735159 0.0115051 0)
(-0.00930454 0.0124869 0)
(-0.0113705 0.013285 0)
(-0.0135255 0.0139193 0)
(-0.0157489 0.0144096 0)
(-0.0180235 0.0147748 0)
(-0.0203345 0.0150317 0)
(-0.0226688 0.015195 0)
(-0.0250152 0.0152764 0)
(-0.0273634 0.0152852 0)
(-0.029704 0.015228 0)
(-0.0320279 0.0151091 0)
(-0.0343265 0.0149307 0)
(-0.0365912 0.0146933 0)
(-0.0388131 0.0143961 0)
(-0.0409837 0.0140373 0)
(-0.0430938 0.0136142 0)
(-0.0451343 0.0131243 0)
(-0.0470961 0.0125645 0)
(-0.0489698 0.0119325 0)
(-0.050746 0.011226 0)
(-0.0524157 0.0104435 0)
(-0.0539696 0.00958449 0)
(-0.0553989 0.00864896 0)
(-0.056695 0.00763801 0)
(-0.0578494 0.00655367 0)
(-0.0588541 0.00539895 0)
(-0.0597012 0.00417782 0)
(-0.0603832 0.00289526 0)
(-0.0608928 0.00155722 0)
(-0.0612228 0.000170671 0)
(-0.0613666 -0.00125638 0)
(-0.0613176 -0.00271487 0)
(-0.0610698 -0.00419462 0)
(-0.0606179 -0.00568433 0)
(-0.0599571 -0.00717155 0)
(-0.0590839 -0.0086427 0)
(-0.057996 -0.0100831 0)
(-0.0566926 -0.0114772 0)
(-0.0551752 -0.0128085 0)
(-0.0534471 -0.0140599 0)
(-0.0515147 -0.0152142 0)
(-0.049387 -0.016254 0)
(-0.0470761 -0.0171625 0)
(-0.0445972 -0.0179239 0)
(-0.0419691 -0.0185236 0)
(-0.0392135 -0.0189491 0)
(-0.036355 -0.0191901 0)
(-0.033421 -0.0192394 0)
(-0.0304411 -0.0190927 0)
(-0.0274465 -0.0187496 0)
(-0.0244696 -0.0182129 0)
(-0.0215428 -0.0174898 0)
(-0.0186983 -0.0165908 0)
(-0.0159669 -0.0155302 0)
(-0.0133775 -0.0143256 0)
(-0.0109563 -0.0129977 0)
(-0.00872597 -0.0115696 0)
(-0.00670547 -0.0100666 0)
(-0.00490932 -0.00851567 0)
(-0.00334743 -0.00694502 0)
(-0.00202487 -0.00538384 0)
(-0.000941776 -0.00386203 0)
(-9.33419e-05 -0.0024101 0)
(0.000530139 -0.00105921 0)
(0.000943203 0.000158699 0)
(0.00116515 0.00121071 0)
(0.00121999 0.00206262 0)
(0.00113657 0.00267865 0)
(0.000948652 0.00302117 0)
(0.000694695 0.00305053 0)
(0.000417431 0.00272491 0)
(0.000171251 0.00200039 0)
(3.19628e-05 0.000831025 0)
(-7.94162e-05 0.00142535 0)
(-0.000514329 0.00408307 0)
(-0.00142184 0.00649587 0)
(-0.00267442 0.00863922 0)
(-0.00419978 0.0105075 0)
(-0.00595136 0.012107 0)
(-0.00788698 0.0134524 0)
(-0.00997003 0.0145639 0)
(-0.01217 0.0154646 0)
(-0.0144613 0.0161786 0)
(-0.0168225 0.0167293 0)
(-0.0192357 0.0171385 0)
(-0.0216856 0.0174253 0)
(-0.024159 0.0176062 0)
(-0.0266443 0.0176944 0)
(-0.0291311 0.0177 0)
(-0.03161 0.0176303 0)
(-0.0340717 0.01749 0)
(-0.0365077 0.0172814 0)
(-0.038909 0.0170052 0)
(-0.0412672 0.0166603 0)
(-0.0435732 0.0162449 0)
(-0.0458184 0.0157562 0)
(-0.0479936 0.0151915 0)
(-0.0500899 0.0145477 0)
(-0.0520983 0.0138224 0)
(-0.0540097 0.0130136 0)
(-0.0558154 0.0121198 0)
(-0.0575068 0.0111406 0)
(-0.0590755 0.0100763 0)
(-0.0605131 0.00892819 0)
(-0.0618118 0.00769859 0)
(-0.0629635 0.00639067 0)
(-0.0639604 0.00500858 0)
(-0.0647946 0.00355741 0)
(-0.0654583 0.00204324 0)
(-0.0659432 0.000473137 0)
(-0.0662412 -0.00114477 0)
(-0.0663441 -0.00280121 0)
(-0.0662436 -0.00448566 0)
(-0.0659317 -0.00618628 0)
(-0.0654008 -0.00788983 0)
(-0.0646442 -0.00958168 0)
(-0.0636562 -0.0112457 0)
(-0.0624328 -0.0128645 0)
(-0.060972 -0.0144195 0)
(-0.0592743 -0.015891 0)
(-0.0573431 -0.0172588 0)
(-0.0551851 -0.0185024 0)
(-0.0528108 -0.0196015 0)
(-0.0502344 -0.0205368 0)
(-0.0474741 -0.0212902 0)
(-0.044552 -0.0218457 0)
(-0.0414944 -0.0221898 0)
(-0.0383305 -0.0223125 0)
(-0.035093 -0.0222074 0)
(-0.0318166 -0.0218722 0)
(-0.028538 -0.021309 0)
(-0.0252945 -0.0205247 0)
(-0.0221233 -0.0195307 0)
(-0.0190606 -0.0183429 0)
(-0.0161406 -0.0169813 0)
(-0.0133945 -0.0154697 0)
(-0.0108498 -0.013835 0)
(-0.00852979 -0.012107 0)
(-0.00645262 -0.0103174 0)
(-0.0046312 -0.00849953 0)
(-0.00307285 -0.00668768 0)
(-0.0017792 -0.00491706 0)
(-0.000746203 -0.00322344 0)
(3.57542e-05 -0.00164311 0)
(0.000581747 -0.000213066 0)
(0.000912161 0.00102879 0)
(0.00105259 0.0020433 0)
(0.00103386 0.00278969 0)
(0.000892096 0.00322519 0)
(0.000668441 0.00330477 0)
(0.000408608 0.00298093 0)
(0.000170206 0.00220379 0)
(3.2386e-05 0.000921157 0)
(-8.51839e-05 0.00169866 0)
(-0.000550411 0.00481619 0)
(-0.00151957 0.00761219 0)
(-0.00285503 0.010072 0)
(-0.00447853 0.0121994 0)
(-0.00633968 0.0140092 0)
(-0.00839312 0.0155237 0)
(-0.0105997 0.0167697 0)
(-0.012927 0.0177761 0)
(-0.0153481 0.0185717 0)
(-0.0178408 0.019184 0)
(-0.0203865 0.0196378 0)
(-0.0229695 0.0199549 0)
(-0.0255763 0.0201536 0)
(-0.0281954 0.0202485 0)
(-0.0308163 0.0202508 0)
(-0.0334296 0.0201686 0)
(-0.0360261 0.0200068 0)
(-0.0385971 0.019768 0)
(-0.0411342 0.0194529 0)
(-0.0436287 0.0190604 0)
(-0.0460721 0.0185886 0)
(-0.0484559 0.0180347 0)
(-0.0507714 0.0173959 0)
(-0.0530101 0.0166693 0)
(-0.0551636 0.0158524 0)
(-0.0572235 0.0149433 0)
(-0.0591819 0.0139409 0)
(-0.0610308 0.0128448 0)
(-0.0627625 0.0116555 0)
(-0.0643694 0.0103746 0)
(-0.065844 0.00900439 0)
(-0.0671786 0.00754798 0)
(-0.0683652 0.00600945 0)
(-0.0693955 0.00439365 0)
(-0.0702608 0.00270636 0)
(-0.0709516 0.000954308 0)
(-0.0714577 -0.000854706 0)
(-0.0717685 -0.00271169 0)
(-0.0718727 -0.00460619 0)
(-0.071759 -0.00652622 0)
(-0.071416 -0.0084581 0)
(-0.0708328 -0.0103863 0)
(-0.0699994 -0.0122935 0)
(-0.0689075 -0.0141603 0)
(-0.0675509 -0.0159658 0)
(-0.065926 -0.0176877 0)
(-0.0640325 -0.0193022 0)
(-0.0618742 -0.0207852 0)
(-0.0594589 -0.0221122 0)
(-0.0567993 -0.0232597 0)
(-0.0539129 -0.024205 0)
(-0.0508221 -0.0249279 0)
(-0.0475542 -0.0254109 0)