/*--------------------------------*- C++ -*----------------------------------*\
  =========                 |
  \\      /  F ield         | OpenFOAM: The Open Source CFD Toolbox
   \\    /   O peration     | Website:  https://openfoam.org
    \\  /    A nd           | Version:  7
     \\/     M anipulation  |
\*---------------------------------------------------------------------------*/
FoamFile
{
    version     2.0;
    format      ascii;
    class       volVectorField;
    location    "0.425";
    object      U;
}
// * * * * * * * * * * * * * * * * * * * * * * * * * * * * * * * * * * * * * //

dimensions      [0 1 -1 0 0 0 0];

internalField   nonuniform List<vector> 
6400
(
(7.56677e-06 -7.27392e-06 0)
(2.75605e-05 -1.24721e-05 0)
(4.98114e-05 -1.07276e-05 0)
(6.08095e-05 -5.54098e-06 0)
(5.44231e-05 8.73956e-07 0)
(2.87568e-05 7.48858e-06 0)
(-1.61963e-05 1.38018e-05 0)
(-7.95318e-05 1.95911e-05 0)
(-0.000159837 2.47683e-05 0)
(-0.000255476 2.93222e-05 0)
(-0.000364737 3.32732e-05 0)
(-0.000485911 3.66535e-05 0)
(-0.000617347 3.95041e-05 0)
(-0.000757478 4.18709e-05 0)
(-0.00090484 4.37956e-05 0)
(-0.00105806 4.53171e-05 0)
(-0.00121589 4.64724e-05 0)
(-0.00137714 4.72956e-05 0)
(-0.00154073 4.78148e-05 0)
(-0.00170564 4.80544e-05 0)
(-0.00187094 4.80327e-05 0)
(-0.00203572 4.77637e-05 0)
(-0.00219912 4.72597e-05 0)
(-0.00236033 4.65299e-05 0)
(-0.00251855 4.55792e-05 0)
(-0.00267298 4.44088e-05 0)
(-0.00282285 4.3018e-05 0)
(-0.00296737 4.14056e-05 0)
(-0.00310578 3.95694e-05 0)
(-0.00323729 3.75069e-05 0)
(-0.00336111 3.52149e-05 0)
(-0.00347646 3.26909e-05 0)
(-0.00358256 2.99341e-05 0)
(-0.00367863 2.69446e-05 0)
(-0.00376389 2.37251e-05 0)
(-0.00383761 2.02812e-05 0)
(-0.00389907 1.66211e-05 0)
(-0.00394759 1.27567e-05 0)
(-0.00398255 8.70348e-06 0)
(-0.00400337 4.47996e-06 0)
(-0.00400958 1.09497e-07 0)
(-0.00400077 -4.38081e-06 0)
(-0.00397662 -8.96001e-06 0)
(-0.00393695 -1.35925e-05 0)
(-0.00388169 -1.82393e-05 0)
(-0.00381089 -2.28585e-05 0)
(-0.00372477 -2.74046e-05 0)
(-0.00362368 -3.18301e-05 0)
(-0.00350814 -3.60863e-05 0)
(-0.0033788 -4.01229e-05 0)
(-0.00323652 -4.3889e-05 0)
(-0.00308227 -4.73346e-05 0)
(-0.00291721 -5.04114e-05 0)
(-0.00274265 -5.3073e-05 0)
(-0.00256002 -5.52769e-05 0)
(-0.00237088 -5.69847e-05 0)
(-0.00217693 -5.81629e-05 0)
(-0.00197993 -5.87837e-05 0)
(-0.00178174 -5.88261e-05 0)
(-0.00158425 -5.82761e-05 0)
(-0.00138942 -5.71272e-05 0)
(-0.00119916 -5.53801e-05 0)
(-0.0010154 -5.30439e-05 0)
(-0.000840024 -5.01357e-05 0)
(-0.000674818 -4.668e-05 0)
(-0.000521487 -4.27091e-05 0)
(-0.000381605 -3.82627e-05 0)
(-0.000256593 -3.33886e-05 0)
(-0.000147692 -2.81416e-05 0)
(-5.5929e-05 -2.2586e-05 0)
(1.79175e-05 -1.6798e-05 0)
(7.33638e-05 -1.0869e-05 0)
(0.000110287 -4.91601e-06 0)
(0.000129017 8.99974e-07 0)
(0.000130494 6.34021e-06 0)
(0.000116504 1.10307e-05 0)
(9.00167e-05 1.43619e-05 0)
(5.58477e-05 1.52965e-05 0)
(2.26823e-05 1.21655e-05 0)
(3.88686e-06 3.89824e-06 0)
(1.29714e-05 -2.76847e-05 0)
(4.13884e-05 -4.0759e-05 0)
(6.1852e-05 -2.69644e-05 0)
(5.25426e-05 1.25989e-06 0)
(1.49262e-06 3.60452e-05 0)
(-9.61779e-05 7.28621e-05 0)
(-0.000241602 0.000109099 0)
(-0.000433578 0.000143311 0)
(-0.000669434 0.000174735 0)
(-0.000945645 0.000203016 0)
(-0.00125824 0.000228039 0)
(-0.00160309 0.000249836 0)
(-0.00197605 0.000268521 0)
(-0.00237307 0.000284254 0)
(-0.00279028 0.000297216 0)
(-0.00322399 0.000307593 0)
(-0.00367075 0.000315566 0)
(-0.00412728 0.000321308 0)
(-0.00459054 0.00032497 0)
(-0.00505763 0.000326686 0)
(-0.00552582 0.000326565 0)
(-0.00599253 0.0003247 0)
(-0.00645526 0.000321161 0)
(-0.00691161 0.000316005 0)
(-0.00735924 0.000309266 0)
(-0.00779587 0.000300967 0)
(-0.00821922 0.000291118 0)
(-0.00862706 0.000279724 0)
(-0.00901716 0.000266783 0)
(-0.00938727 0.000252291 0)
(-0.00973519 0.000236246 0)
(-0.0100587 0.00021865 0)
(-0.0103556 0.000199514 0)
(-0.0106238 0.000178858 0)
(-0.0108611 0.000156718 0)
(-0.0110656 0.000133144 0)
(-0.0112352 0.000108205 0)
(-0.0113682 8.19927e-05 0)
(-0.0114629 5.46186e-05 0)
(-0.0115179 2.62175e-05 0)
(-0.0115318 -3.05102e-06 0)
(-0.0115036 -3.30029e-05 0)
(-0.0114327 -6.3431e-05 0)
(-0.0113185 -9.41046e-05 0)
(-0.011161 -0.000124771 0)
(-0.0109604 -0.00015516 0)
(-0.0107174 -0.000184984 0)
(-0.010433 -0.000213943 0)
(-0.0101088 -0.000241727 0)
(-0.00974667 -0.000268022 0)
(-0.00934888 -0.000292514 0)
(-0.00891822 -0.000314893 0)
(-0.00845789 -0.00033486 0)
(-0.00797145 -0.000352133 0)
(-0.00746284 -0.000366451 0)
(-0.00693634 -0.00037758 0)
(-0.00639652 -0.000385317 0)
(-0.00584819 -0.000389498 0)
(-0.00529637 -0.000389998 0)
(-0.0047462 -0.000386736 0)
(-0.00420289 -0.00037968 0)
(-0.00367168 -0.000368845 0)
(-0.00315772 -0.000354299 0)
(-0.00266604 -0.000336159 0)
(-0.00220144 -0.000314598 0)
(-0.00176846 -0.000289839 0)
(-0.00137128 -0.00026216 0)
(-0.00101361 -0.000231893 0)
(-0.000698674 -0.000199432 0)
(-0.000429049 -0.00016524 0)
(-0.0002066 -0.000129864 0)
(-3.23281e-05 -9.39611e-05 0)
(9.37988e-05 -5.83435e-05 0)
(0.000173077 -2.4056e-05 0)
(0.0002084 7.49904e-06 0)
(0.000204702 3.43752e-05 0)
(0.000169426 5.38079e-05 0)
(0.000113244 6.18117e-05 0)
(5.28133e-05 5.2916e-05 0)
(1.20672e-05 2.26069e-05 0)
(1.11782e-05 -5.03405e-05 0)
(2.78589e-05 -6.16249e-05 0)
(1.94191e-05 -1.8462e-05 0)
(-3.72904e-05 5.54632e-05 0)
(-0.000155747 0.000145131 0)
(-0.000342247 0.000240735 0)
(-0.000598656 0.000336029 0)
(-0.000923744 0.000427169 0)
(-0.00131416 0.000511898 0)
(-0.00176523 0.00058898 0)
(-0.00227146 0.000657842 0)
(-0.00282699 0.000718333 0)
(-0.00342578 0.000770577 0)
(-0.00406185 0.000814862 0)
(-0.00472936 0.000851562 0)
(-0.00542272 0.000881097 0)
(-0.00613658 0.000903895 0)
(-0.00686583 0.000920368 0)
(-0.00760565 0.000930896 0)
(-0.00835148 0.000935818 0)
(-0.00909894 0.000935425 0)
(-0.00984387 0.000929957 0)
(-0.0105822 0.000919611 0)
(-0.0113102 0.000904536 0)
(-0.0120239 0.000884839 0)
(-0.0127197 0.000860595 0)
(-0.0133939 0.00083185 0)
(-0.0140429 0.000798629 0)
(-0.0146632 0.000760949 0)
(-0.015251 0.000718821 0)
(-0.015803 0.00067226 0)
(-0.0163157 0.000621297 0)
(-0.0167855 0.000565985 0)
(-0.0172091 0.000506407 0)
(-0.0175832 0.000442683 0)
(-0.0179047 0.000374979 0)
(-0.0181706 0.000303512 0)
(-0.0183782 0.000228553 0)
(-0.0185248 0.000150433 0)
(-0.0186083 6.95478e-05 0)
(-0.0186268 -1.36446e-05 0)
(-0.0185788 -9.86203e-05 0)
(-0.0184632 -0.000184792 0)
(-0.0182794 -0.000271512 0)
(-0.0180275 -0.000358077 0)
(-0.0177079 -0.000443732 0)
(-0.0173217 -0.000527681 0)
(-0.0168707 -0.000609096 0)
(-0.0163572 -0.000687125 0)
(-0.0157844 -0.000760906 0)
(-0.0151558 -0.000829578 0)
(-0.0144759 -0.000892297 0)
(-0.0137496 -0.000948251 0)
(-0.0129824 -0.000996671 0)
(-0.0121804 -0.00103685 0)
(-0.0113504 -0.00106815 0)
(-0.0104993 -0.00109004 0)
(-0.00963462 -0.00110206 0)
(-0.00876404 -0.00110389 0)
(-0.00789549 -0.00109532 0)
(-0.00703699 -0.00107626 0)
(-0.00619657 -0.00104678 0)
(-0.00538214 -0.00100707 0)
(-0.00460139 -0.000957481 0)
(-0.00386168 -0.000898502 0)
(-0.00316993 -0.000830777 0)
(-0.00253247 -0.000755106 0)
(-0.00195493 -0.000672452 0)
(-0.00144211 -0.000583955 0)
(-0.000997832 -0.000490956 0)
(-0.000624768 -0.000395036 0)
(-0.000324242 -0.000298077 0)
(-9.59962e-05 -0.000202365 0)
(6.21051e-05 -0.000110741 0)
(0.000154469 -2.68221e-05 0)
(0.000188241 4.46833e-05 0)
(0.000173693 9.75906e-05 0)
(0.000124748 0.000123834 0)
(6.20163e-05 0.000113357 0)
(1.51838e-05 5.55972e-05 0)
(6.0304e-06 -6.21377e-05 0)
(-3.3342e-07 -5.28281e-05 0)
(-5.48828e-05 3.81827e-05 0)
(-0.000177036 0.000176904 0)
(-0.000379127 0.000341267 0)
(-0.000667536 0.000516008 0)
(-0.0010441 0.000690814 0)
(-0.00150729 0.000858989 0)
(-0.00205319 0.00101634 0)
(-0.00267625 0.00116038 0)
(-0.0033699 0.00128981 0)
(-0.00412694 0.00140411 0)
(-0.00493992 0.0015033 0)
(-0.00580131 0.00158773 0)
(-0.0067037 0.00165795 0)
(-0.00763988 0.00171463 0)
(-0.00860291 0.00175848 0)
(-0.0095861 0.00179019 0)
(-0.0105831 0.00181042 0)
(-0.0115878 0.00181976 0)
(-0.0125944 0.00181873 0)
(-0.0135972 0.00180778 0)
(-0.0145909 0.00178726 0)
(-0.0155701 0.00175745 0)
(-0.0165298 0.00171857 0)
(-0.0174649 0.00167077 0)
(-0.0183705 0.00161414 0)
(-0.0192417 0.00154878 0)
(-0.0200736 0.00147472 0)
(-0.0208616 0.00139201 0)
(-0.0216007 0.00130073 0)
(-0.0222864 0.00120095 0)
(-0.0229142 0.00109281 0)
(-0.0234794 0.000976499 0)
(-0.0239779 0.000852284 0)
(-0.0244054 0.000720507 0)
(-0.0247582 0.000581611 0)
(-0.0250325 0.000436143 0)
(-0.0252253 0.000284758 0)
(-0.0253335 0.000128232 0)
(-0.0253548 -3.25422e-05 0)
(-0.0252873 -0.000196553 0)
(-0.0251298 -0.000362671 0)
(-0.0248816 -0.000529655 0)
(-0.0245428 -0.000696164 0)
(-0.024114 -0.000860766 0)
(-0.023597 -0.00102195 0)
(-0.0229941 -0.00117815 0)
(-0.0223084 -0.00132776 0)
(-0.0215441 -0.00146916 0)
(-0.0207059 -0.00160072 0)
(-0.0197998 -0.00172088 0)
(-0.0188321 -0.0018281 0)
(-0.0178103 -0.00192094 0)
(-0.0167423 -0.0019981 0)
(-0.0156367 -0.00205838 0)
(-0.0145029 -0.00210077 0)
(-0.0133505 -0.00212446 0)
(-0.0121896 -0.00212882 0)
(-0.0110304 -0.00211349 0)
(-0.00988353 -0.00207832 0)
(-0.00875928 -0.00202343 0)
(-0.00766796 -0.00194924 0)
(-0.00661956 -0.0018564 0)
(-0.00562362 -0.00174587 0)
(-0.00468908 -0.0016189 0)
(-0.0038241 -0.00147705 0)
(-0.00303594 -0.00132217 0)
(-0.00233073 -0.00115649 0)
(-0.00171334 -0.00098258 0)
(-0.00118711 -0.00080349 0)
(-0.000753669 -0.000622798 0)
(-0.000412639 -0.00044478 0)
(-0.000161334 -0.000274615 0)
(5.61454e-06 -0.000118679 0)
(9.66823e-05 1.50691e-05 0)
(0.000123753 0.000116628 0)
(0.000102534 0.00017355 0)
(5.54922e-05 0.000170719 0)
(1.44556e-05 8.9951e-05 0)
(-4.27553e-07 -5.63324e-05 0)
(-3.57908e-05 -1.60337e-06 0)
(-0.000147035 0.00015777 0)
(-0.000346561 0.000379718 0)
(-0.000643648 0.000636051 0)
(-0.00104367 0.000906555 0)
(-0.00154767 0.00117704 0)
(-0.00215343 0.00143789 0)
(-0.0028563 0.00168283 0)
(-0.00364995 0.00190795 0)
(-0.00452687 0.00211105 0)
(-0.00547881 0.00229109 0)
(-0.00649717 0.00244786 0)
(-0.00757317 0.00258172 0)
(-0.00869812 0.00269333 0)
(-0.00986346 0.00278359 0)
(-0.0110609 0.00285348 0)
(-0.0122824 0.00290398 0)
(-0.0135202 0.00293605 0)
(-0.014767 0.00295056 0)
(-0.0160155 0.00294828 0)
(-0.0172589 0.00292989 0)
(-0.0184904 0.00289592 0)
(-0.0197035 0.00284683 0)
(-0.0208919 0.00278294 0)
(-0.0220494 0.00270451 0)
(-0.0231697 0.00261173 0)
(-0.0242469 0.00250474 0)
(-0.0252749 0.00238365 0)
(-0.0262479 0.00224859 0)
(-0.02716 0.00209967 0)
(-0.0280055 0.0019371 0)
(-0.0287788 0.00176111 0)
(-0.0294744 0.00157206 0)
(-0.0300872 0.00137042 0)
(-0.0306121 0.00115676 0)
(-0.0310444 0.000931835 0)
(-0.0313799 0.000696551 0)
(-0.0316146 0.000451985 0)
(-0.0317451 0.000199399 0)
(-0.0317688 -5.9761e-05 0)
(-0.0316833 -0.000323865 0)
(-0.0314872 -0.000591104 0)
(-0.0311798 -0.000859497 0)
(-0.0307614 -0.00112691 0)
(-0.0302328 -0.00139106 0)
(-0.0295962 -0.00164956 0)
(-0.0288545 -0.00189995 0)
(-0.0280116 -0.00213967 0)
(-0.0270724 -0.00236617 0)
(-0.026043 -0.00257692 0)
(-0.0249304 -0.00276942 0)
(-0.0237423 -0.00294129 0)
(-0.0224878 -0.00309027 0)
(-0.0211764 -0.0032143 0)
(-0.0198186 -0.00331152 0)
(-0.0184255 -0.00338037 0)
(-0.0170087 -0.00341955 0)
(-0.0155805 -0.00342813 0)
(-0.0141531 -0.0034055 0)
(-0.0127392 -0.00335149 0)
(-0.0113512 -0.0032663 0)
(-0.0100015 -0.00315058 0)
(-0.00870208 -0.00300542 0)
(-0.00746434 -0.00283236 0)
(-0.006299 -0.0026334 0)
(-0.00521584 -0.00241105 0)
(-0.00422352 -0.0021683 0)
(-0.00332939 -0.00190868 0)
(-0.00253921 -0.00163633 0)
(-0.001857 -0.00135607 0)
(-0.00128475 -0.00107351 0)
(-0.00082213 -0.000795264 0)
(-0.000466242 -0.000529166 0)
(-0.000211245 -0.000284616 0)
(-4.80281e-05 -7.30058e-05 0)
(3.60503e-05 9.17784e-05 0)
(5.7518e-05 0.0001929 0)
(3.91008e-05 0.000210098 0)
(1.16393e-05 0.000117735 0)
(-7.226e-06 -3.07381e-05 0)
(-7.43662e-05 9.8194e-05 0)
(-0.000248237 0.000348723 0)
(-0.000532459 0.000673142 0)
(-0.000932 0.0010384 0)
(-0.00145035 0.00142012 0)
(-0.00208712 0.00180068 0)
(-0.00283893 0.00216774 0)
(-0.0037002 0.002513 0)
(-0.00466369 0.00283108 0)
(-0.00572099 0.0031188 0)
(-0.00686294 0.00337454 0)
(-0.00807993 0.00359778 0)
(-0.00936215 0.00378879 0)
(-0.0106998 0.00394834 0)
(-0.0120832 0.0040775 0)
(-0.013503 0.0041775 0)
(-0.0149498 0.00424962 0)
(-0.0164149 0.0042951 0)
(-0.0178896 0.0043151 0)
(-0.0193655 0.00431067 0)
(-0.0208347 0.00428271 0)
(-0.0222893 0.00423197 0)
(-0.0237215 0.00415907 0)
(-0.025124 0.00406449 0)
(-0.0264894 0.00394861 0)
(-0.0278104 0.00381172 0)
(-0.02908 0.00365404 0)
(-0.030291 0.00347579 0)
(-0.0314366 0.00327716 0)
(-0.03251 0.0030584 0)
(-0.0335044 0.00281981 0)
(-0.0344134 0.00256183 0)
(-0.0352305 0.002285 0)
(-0.0359498 0.00199002 0)
(-0.0365655 0.00167782 0)
(-0.0370722 0.00134949 0)
(-0.0374649 0.00100639 0)
(-0.0377391 0.0006501 0)
(-0.0378911 0.000282478 0)
(-0.0379177 -9.43752e-05 0)
(-0.0378164 -0.000478094 0)
(-0.0375856 -0.000866063 0)
(-0.0372247 -0.00125543 0)
(-0.0367338 -0.00164312 0)
(-0.0361142 -0.00202589 0)
(-0.0353684 -0.0024003 0)
(-0.0344997 -0.00276282 0)
(-0.0335128 -0.00310984 0)
(-0.0324135 -0.00343771 0)
(-0.0312086 -0.00374282 0)
(-0.0299062 -0.00402163 0)
(-0.0285154 -0.00427075 0)
(-0.0270465 -0.00448698 0)
(-0.0255104 -0.0046674 0)
(-0.0239194 -0.00480939 0)
(-0.022286 -0.0049107 0)
(-0.0206238 -0.00496952 0)
(-0.0189466 -0.00498453 0)
(-0.0172687 -0.00495489 0)
(-0.0156044 -0.00488035 0)
(-0.0139682 -0.00476124 0)
(-0.0123742 -0.00459849 0)
(-0.0108361 -0.00439369 0)
(-0.00936714 -0.00414905 0)
(-0.00797957 -0.00386749 0)
(-0.00668463 -0.0035526 0)
(-0.00549226 -0.0032087 0)
(-0.00441092 -0.00284086 0)
(-0.0034473 -0.002455 0)
(-0.0026061 -0.00205797 0)
(-0.00188977 -0.00165767 0)
(-0.00129828 -0.00126326 0)
(-0.000828803 -0.000885447 0)
(-0.000475451 -0.000536789 0)
(-0.000229019 -0.000232164 0)
(-7.67449e-05 1.07027e-05 0)
(-2.00995e-06 0.000170733 0)
(1.69548e-05 0.00022283 0)
(7.80407e-06 0.000135028 0)
(-1.39451e-05 1.53063e-05 0)
(-0.000113809 0.00024949 0)
(-0.000353117 0.000615694 0)
(-0.000726009 0.00106269 0)
(-0.00123241 0.00155392 0)
(-0.0018733 0.00206172 0)
(-0.00264635 0.00256561 0)
(-0.00354659 0.00305094 0)
(-0.00456722 0.00350755 0)
(-0.00569997 0.00392869 0)
(-0.00693547 0.00431023 0)
(-0.00826365 0.00464993 0)
(-0.009674 0.00494696 0)
(-0.0111558 0.00520147 0)
(-0.0126982 0.00541427 0)
(-0.0142908 0.00558659 0)
(-0.0159229 0.00571989 0)
(-0.0175843 0.00581572 0)
(-0.0192653 0.00587561 0)
(-0.0209561 0.00590101 0)
(-0.0226474 0.00589323 0)
(-0.0243301 0.00585342 0)
(-0.0259952 0.00578253 0)
(-0.0276342 0.00568138 0)
(-0.0292386 0.00555061 0)
(-0.0307999 0.00539073 0)
(-0.0323099 0.00520214 0)
(-0.0337606 0.00498518 0)
(-0.035144 0.00474017 0)
(-0.0364522 0.00446743 0)
(-0.0376775 0.00416734 0)
(-0.0388123 0.00384037 0)
(-0.0398492 0.00348714 0)
(-0.0407812 0.00310846 0)
(-0.0416014 0.00270534 0)
(-0.0423032 0.00227905 0)
(-0.0428808 0.00183115 0)
(-0.0433285 0.0013635 0)
(-0.0436414 0.00087828 0)
(-0.0438153 0.000378013 0)
(-0.0438466 -0.000134438 0)
(-0.0437326 -0.00065587 0)
(-0.0434716 -0.00118275 0)
(-0.0430629 -0.00171124 0)
(-0.0425067 -0.00223721 0)
(-0.0418046 -0.0027563 0)
(-0.0409592 -0.00326392 0)
(-0.0399744 -0.00375533 0)
(-0.0388554 -0.00422572 0)
(-0.0376086 -0.00467022 0)
(-0.0362418 -0.00508401 0)
(-0.034764 -0.00546238 0)
(-0.0331853 -0.00580081 0)
(-0.0315171 -0.00609504 0)
(-0.0297718 -0.00634118 0)
(-0.0279629 -0.00653574 0)
(-0.0261045 -0.00667573 0)
(-0.0242116 -0.00675876 0)
(-0.0222997 -0.00678304 0)
(-0.0203847 -0.00674749 0)
(-0.0184827 -0.00665178 0)
(-0.0166098 -0.00649634 0)
(-0.0147817 -0.00628246 0)
(-0.0130138 -0.00601225 0)
(-0.0113209 -0.00568872 0)
(-0.00971668 -0.00531577 0)
(-0.00821379 -0.00489822 0)
(-0.00682343 -0.00444188 0)
(-0.00555512 -0.00395353 0)
(-0.00441651 -0.00344105 0)
(-0.00341308 -0.0029135 0)
(-0.00254791 -0.00238124 0)
(-0.00182142 -0.00185617 0)
(-0.00123116 -0.00135194 0)
(-0.000771567 -0.000884337 0)
(-0.000433761 -0.000471693 0)
(-0.000205349 -0.000135434 0)
(-7.01799e-05 9.94039e-05 0)
(-8.276e-06 0.000203445 0)
(3.54726e-06 0.000139765 0)
(-2.04256e-05 8.17179e-05 0)
(-0.000152945 0.000453268 0)
(-0.000458521 0.000960781 0)
(-0.00092173 0.00155121 0)
(-0.00153712 0.00218568 0)
(-0.00230279 0.00283416 0)
(-0.00321402 0.00347401 0)
(-0.00426397 0.00408867 0)
(-0.00544433 0.00466644 0)
(-0.00674562 0.00519941 0)
(-0.00815744 0.00568257 0)
(-0.00966877 0.00611314 0)
(-0.0112682 0.00648997 0)
(-0.0129441 0.0068131 0)
(-0.014685 0.00708338 0)
(-0.0164792 0.00730217 0)
(-0.0183155 0.00747115 0)
(-0.0201829 0.00759214 0)
(-0.0220704 0.00766692 0)
(-0.0239675 0.00769724 0)
(-0.025864 0.00768466 0)
(-0.0277499 0.00763057 0)
(-0.0296154 0.00753616 0)
(-0.0314509 0.00740241 0)
(-0.0332469 0.00723014 0)
(-0.0349943 0.00702 0)
(-0.0366839 0.00677253 0)
(-0.0383067 0.00648819 0)
(-0.0398539 0.00616742 0)
(-0.0413168 0.00581069 0)
(-0.0426868 0.00541852 0)
(-0.0439555 0.00499161 0)
(-0.0451148 0.00453079 0)
(-0.0461569 0.00403717 0)
(-0.0470741 0.00351212 0)
(-0.0478595 0.00295732 0)
(-0.0485062 0.00237483 0)
(-0.0490084 0.00176709 0)
(-0.0493605 0.00113694 0)
(-0.0495579 0.000487669 0)
(-0.0495967 -0.000177029 0)
(-0.049474 -0.000853019 0)
(-0.0491879 -0.00153576 0)
(-0.0487375 -0.00222031 0)
(-0.0481233 -0.00290139 0)
(-0.0473468 -0.0035734 0)
(-0.0464109 -0.00423048 0)
(-0.0453199 -0.0048666 0)
(-0.0440795 -0.0054756 0)
(-0.0426967 -0.00605126 0)
(-0.0411798 -0.00658746 0)
(-0.0395387 -0.00707818 0)
(-0.0377846 -0.00751766 0)
(-0.0359297 -0.00790049 0)
(-0.0339876 -0.00822168 0)
(-0.0319731 -0.0084768 0)
(-0.0299015 -0.00866206 0)
(-0.0277894 -0.00877436 0)
(-0.0256536 -0.00881145 0)
(-0.0235116 -0.00877194 0)
(-0.0213809 -0.0086554 0)
(-0.0192792 -0.00846238 0)
(-0.0172239 -0.00819452 0)
(-0.0152319 -0.00785453 0)
(-0.0133194 -0.00744624 0)
(-0.0115016 -0.00697464 0)
(-0.00979234 -0.0064459 0)
(-0.00820421 -0.00586741 0)
(-0.00674784 -0.0052478 0)
(-0.00543187 -0.00459705 0)
(-0.00426269 -0.00392657 0)
(-0.00324414 -0.00324931 0)
(-0.00237734 -0.00257998 0)
(-0.00166046 -0.00193525 0)
(-0.00108854 -0.00133413 0)
(-0.000653367 -0.000798328 0)
(-0.000343297 -0.000352765 0)
(-0.000143041 -2.60782e-05 0)
(-3.4915e-05 0.000148709 0)
(-8.01265e-07 0.00013096 0)
(-2.66115e-05 0.000168034 0)
(-0.000191189 0.00070931 0)
(-0.000562648 0.00138439 0)
(-0.00111627 0.00213965 0)
(-0.00184116 0.00293494 0)
(-0.00273228 0.00373872 0)
(-0.0037823 0.00452682 0)
(-0.00498223 0.00528129 0)
(-0.00632206 0.00598926 0)
(-0.00779091 0.00664188 0)
(-0.00937724 0.00723346 0)
(-0.011069 0.00776076 0)
(-0.0128539 0.0082224 0)
(-0.0147195 0.00861832 0)
(-0.0166534 0.00894942 0)
(-0.0186433 0.00921721 0)
(-0.0206772 0.00942359 0)
(-0.022743 0.0095706 0)
(-0.0248293 0.00966032 0)
(-0.0269247 0.00969475 0)
(-0.0290182 0.00967572 0)
(-0.0310989 0.00960484 0)
(-0.0331563 0.00948352 0)
(-0.0351798 0.00931295 0)
(-0.0371594 0.00909409 0)
(-0.039085 0.00882775 0)
(-0.0409466 0.00851461 0)
(-0.0427344 0.00815528 0)
(-0.0444389 0.00775031 0)
(-0.0460505 0.00730034 0)
(-0.0475599 0.0068061 0)
(-0.048958 0.00626846 0)
(-0.050236 0.00568856 0)
(-0.0513852 0.00506782 0)
(-0.0523976 0.00440799 0)
(-0.0532653 0.00371124 0)
(-0.0539813 0.00298017 0)
(-0.0545388 0.00221784 0)
(-0.0549319 0.00142783 0)
(-0.0551557 0.00061425 0)
(-0.0552059 -0.000218293 0)
(-0.0550792 -0.00106465 0)
(-0.0547737 -0.0019192 0)
(-0.0542883 -0.0027758 0)
(-0.0536233 -0.00362792 0)
(-0.0527806 -0.00446864 0)
(-0.051763 -0.00529073 0)
(-0.0505752 -0.00608672 0)
(-0.0492232 -0.00684901 0)
(-0.0477143 -0.00756996 0)
(-0.0460577 -0.00824198 0)
(-0.0442639 -0.00885767 0)
(-0.0423447 -0.00940991 0)
(-0.0403134 -0.00989202 0)
(-0.0381846 -0.0102978 0)
(-0.0359741 -0.0106219 0)
(-0.0336986 -0.0108595 0)
(-0.0313757 -0.0110068 0)
(-0.0290237 -0.011061 0)
(-0.0266616 -0.0110203 0)
(-0.0243082 -0.0108842 0)
(-0.0219829 -0.0106534 0)
(-0.0197044 -0.0103299 0)
(-0.0174911 -0.00991686 0)
(-0.0153608 -0.00941917 0)
(-0.01333 -0.00884289 0)
(-0.0114141 -0.00819562 0)
(-0.00962682 -0.00748642 0)
(-0.00798003 -0.0067259 0)
(-0.00648351 -0.00592622 0)
(-0.00514466 -0.00510123 0)
(-0.00396827 -0.00426657 0)
(-0.00295635 -0.00343981 0)
(-0.0021079 -0.00264069 0)
(-0.00141882 -0.00189139 0)
(-0.000881841 -0.00121686 0)
(-0.000486314 -0.000645347 0)
(-0.000218073 -0.000208711 0)
(-6.19642e-05 5.69564e-05 0)
(-5.07095e-06 0.000108298 0)
(-3.24953e-05 0.000273629 0)
(-0.000228273 0.00101673 0)
(-0.000664527 0.00188584 0)
(-0.00130765 0.00282767 0)
(-0.0021414 0.00380164 0)
(-0.00315751 0.00477543 0)
(-0.00434591 0.00572397 0)
(-0.00569526 0.00662844 0)
(-0.00719367 0.00747515 0)
(-0.00882876 0.00825463 0)
(-0.0105877 0.00896071 0)
(-0.0124574 0.00958986 0)
(-0.0144246 0.0101405 0)
(-0.0164761 0.0106127 0)
(-0.0185986 0.0110072 0)
(-0.0207791 0.0113259 0)
(-0.0230048 0.0115709 0)
(-0.0252632 0.0117443 0)
(-0.0275419 0.0118487 0)
(-0.029829 0.0118862 0)
(-0.0321127 0.0118589 0)
(-0.0343813 0.0117686 0)
(-0.0366237 0.0116171 0)
(-0.0388287 0.0114056 0)
(-0.0409854 0.0111353 0)
(-0.043083 0.0108072 0)
(-0.0451108 0.010422 0)
(-0.0470584 0.00998056 0)
(-0.0489154 0.00948353 0)
(-0.0506715 0.00893173 0)
(-0.0523168 0.00832608 0)
(-0.0538416 0.00766772 0)
(-0.0552361 0.00695804 0)
(-0.0564914 0.00619884 0)
(-0.0575985 0.00539229 0)
(-0.0585492 0.00454104 0)
(-0.0593356 0.0036483 0)
(-0.0599507 0.00271782 0)
(-0.0603881 0.00175394 0)
(-0.0606423 0.000761655 0)
(-0.0607086 -0.000253452 0)
(-0.0605837 -0.00128516 0)
(-0.0602651 -0.00232666 0)
(-0.0597517 -0.00337058 0)
(-0.0590437 -0.00440903 0)
(-0.0581428 -0.00543367 0)
(-0.0570522 -0.00643581 0)
(-0.0557764 -0.00740647 0)
(-0.0543218 -0.00833649 0)
(-0.0526962 -0.00921668 0)
(-0.0509091 -0.0100379 0)
(-0.0489715 -0.0107913 0)
(-0.0468961 -0.0114682 0)
(-0.0446969 -0.0120606 0)
(-0.0423894 -0.012561 0)
(-0.0399903 -0.0129629 0)
(-0.0375175 -0.0132606 0)
(-0.0349899 -0.0134493 0)
(-0.032427 -0.0135256 0)
(-0.0298489 -0.0134875 0)
(-0.0272764 -0.0133341 0)
(-0.0247297 -0.0130663 0)
(-0.0222295 -0.0126863 0)
(-0.0197955 -0.0121982 0)
(-0.0174469 -0.0116074 0)
(-0.0152019 -0.0109214 0)
(-0.0130771 -0.0101491 0)
(-0.0110877 -0.00930151 0)
(-0.00924696 -0.00839112 0)
(-0.00756582 -0.00743243 0)
(-0.00605287 -0.0064418 0)
(-0.00471404 -0.00543759 0)
(-0.00355237 -0.00444031 0)
(-0.00256793 -0.00347272 0)
(-0.00175766 -0.00256016 0)
(-0.00111543 -0.00173076 0)
(-0.000631782 -0.00101583 0)
(-0.000293791 -0.000450179 0)
(-8.88785e-05 -7.24982e-05 0)
(-9.18503e-06 7.18328e-05 0)
(-3.80972e-05 0.000397817 0)
(-0.000264109 0.00137428 0)
(-0.000763678 0.00246381 0)
(-0.00149476 0.00361408 0)
(-0.00243597 0.00478475 0)
(-0.00357581 0.00594338 0)
(-0.00490137 0.00706456 0)
(-0.00639889 0.00812905 0)
(-0.00805449 0.00912279 0)
(-0.00985414 0.0100359 0)
(-0.0117837 0.0108621 0)
(-0.0138288 0.0115977 0)
(-0.0159754 0.0122411 0)
(-0.0182093 0.0127923 0)
(-0.0205166 0.0132525 0)
(-0.0228834 0.0136235 0)
(-0.0252964 0.0139077 0)
(-0.0277423 0.0141078 0)
(-0.0302083 0.0142262 0)
(-0.0326816 0.0142655 0)
(-0.0351499 0.014228 0)
(-0.0376011 0.0141159 0)
(-0.0400232 0.013931 0)
(-0.0424044 0.0136747 0)
(-0.0447332 0.0133484 0)
(-0.0469982 0.0129532 0)
(-0.049188 0.01249 0)
(-0.0512916 0.0119598 0)
(-0.0532979 0.0113635 0)
(-0.055196 0.0107019 0)
(-0.0569754 0.0099762 0)
(-0.0586255 0.00918781 0)
(-0.0601363 0.00833845 0)
(-0.0614979 0.00743025 0)
(-0.062701 0.00646584 0)
(-0.0637365 0.00544841 0)
(-0.0645962 0.00438177 0)
(-0.0652725 0.00327039 0)
(-0.0657585 0.00211945 0)
(-0.0660482 0.000934835 0)
(-0.0661365 -0.000276821 0)
(-0.0660197 -0.00150817 0)
(-0.0656951 -0.00275118 0)
(-0.0651612 -0.00399713 0)
(-0.0644182 -0.00523673 0)
(-0.0634675 -0.00646014 0)
(-0.0623123 -0.00765712 0)
(-0.0609572 -0.00881707 0)
(-0.0594087 -0.0099292 0)
(-0.0576749 -0.0109827 0)
(-0.0557656 -0.0119667 0)
(-0.0536923 -0.0128707 0)
(-0.0514682 -0.0136846 0)
(-0.049108 -0.0143988 0)
(-0.0466281 -0.0150045 0)
(-0.044046 -0.0154938 0)
(-0.0413808 -0.01586 0)
(-0.0386523 -0.0160974 0)
(-0.0358814 -0.0162019 0)
(-0.0330897 -0.016171 0)
(-0.0302989 -0.0160035 0)
(-0.0275312 -0.0157004 0)
(-0.0248084 -0.0152642 0)
(-0.022152 -0.0146995 0)
(-0.0195828 -0.0140128 0)
(-0.0171202 -0.0132127 0)
(-0.0147828 -0.0123098 0)
(-0.012587 -0.0113166 0)
(-0.0105475 -0.0102478 0)
(-0.00867674 -0.00912031 0)
(-0.00698464 -0.007953 0)
(-0.00547838 -0.00676705 0)
(-0.00416228 -0.00558588 0)
(-0.00303758 -0.00443534 0)
(-0.00210249 -0.00334387 0)
(-0.00135212 -0.00234266 0)
(-0.000778317 -0.001466 0)
(-0.000369445 -0.00075139 0)
(-0.000115411 -0.0002398 0)
(-1.31198e-05 2.17958e-05 0)
(-4.34451e-05 0.000539917 0)
(-0.000298699 0.00178056 0)
(-0.000859912 0.00311661 0)
(-0.00167706 0.00449715 0)
(-0.00272382 0.00588263 0)
(-0.00398555 0.00724101 0)
(-0.00544649 0.00854705 0)
(-0.0070904 0.00978154 0)
(-0.00890133 0.0109304 0)
(-0.0108636 0.0119838 0)
(-0.0129615 0.0129354 0)
(-0.0151796 0.0137816 0)
(-0.0175028 0.014521 0)
(-0.0199161 0.0151538 0)
(-0.0224046 0.0156814 0)
(-0.0249541 0.0161058 0)
(-0.0275504 0.0164298 0)
(-0.0301798 0.0166563 0)
(-0.0328286 0.016788 0)
(-0.0354838 0.0168278 0)
(-0.0381324 0.0167784 0)
(-0.0407617 0.0166419 0)
(-0.0433593 0.0164204 0)
(-0.0459128 0.0161157 0)
(-0.0484101 0.0157291 0)
(-0.0508392 0.015262 0)
(-0.0531882 0.0147155 0)
(-0.0554455 0.0140904 0)
(-0.0575993 0.013388 0)
(-0.0596384 0.0126093 0)
(-0.0615513 0.0117556 0)
(-0.0633272 0.0108287 0)
(-0.0649551 0.00983049 0)
(-0.0664249 0.00876353 0)
(-0.0677263 0.00763092 0)
(-0.0688501 0.00643639 0)
(-0.0697872 0.00518439 0)
(-0.0705294 0.00388013 0)
(-0.0710695 0.00252964 0)
(-0.0714008 0.00113976 0)
(-0.071518 -0.000281807 0)
(-0.0714166 -0.00172654 0)
(-0.0710937 -0.00318511 0)
(-0.0705476 -0.00464743 0)
(-0.0697779 -0.00610271 0)
(-0.068786 -0.00753957 0)
(-0.0675748 -0.00894609 0)
(-0.066149 -0.01031 0)
(-0.064515 -0.0116188 0)
(-0.0626811 -0.0128598 0)
(-0.0606573 -0.0140205 0)
(-0.0584554 -0.0150887 0)
(-0.0560892 -0.0160524 0)
(-0.0535739 -0.0169007 0)
(-0.0509266 -0.017623 0)
(-0.0481657 -0.0182102 0)
(-0.0453112 -0.0186543 0)
(-0.0423841 -0.0189487 0)
(-0.0394064 -0.0190883 0)
(-0.0364011 -0.0190701 0)
(-0.0333913 -0.0188927 0)
(-0.0304007 -0.0185569 0)
(-0.0274527 -0.0180656 0)
(-0.0245704 -0.0174239 0)
(-0.0217761 -0.0166392 0)
(-0.0190912 -0.0157214 0)
(-0.0165356 -0.0146824 0)
(-0.0141277 -0.0135368 0)
(-0.0118835 -0.0123014 0)
(-0.00981718 -0.0109953 0)
(-0.00794008 -0.00964014 0)
(-0.00626089 -0.00825993 0)
(-0.0047853 -0.00688106 0)
(-0.00351597 -0.00553245 0)
(-0.00245244 -0.00424563 0)
(-0.0015912 -0.00305485 0)
(-0.000925445 -0.00199724 0)
(-0.000444806 -0.00111289 0)
(-0.000141514 -0.000444859 0)
(-1.68836e-05 -4.1527e-05 0)
(-4.85648e-05 0.000699279 0)
(-0.00033209 0.00223413 0)
(-0.000953203 0.00384235 0)
(-0.00185433 0.00547483 0)
(-0.00300442 0.00709319 0)
(-0.00438581 0.00866625 0)
(-0.00597992 0.0101694 0)
(-0.00776803 0.0115839 0)
(-0.00973209 0.0128959 0)
(-0.0118546 0.0140961 0)
(-0.0141185 0.0151782 0)
(-0.0165072 0.0161391 0)
(-0.0190043 0.0169775 0)
(-0.021594 0.0176941 0)
(-0.0242608 0.0182906 0)
(-0.0269897 0.0187693 0)
(-0.0297659 0.0191334 0)
(-0.0325751 0.019386 0)
(-0.0354033 0.0195302 0)
(-0.0382368 0.0195693 0)
(-0.0410622 0.019506 0)
(-0.0438663 0.0193428 0)
(-0.0466363 0.019082 0)
(-0.0493592 0.0187255 0)
(-0.0520224 0.0182748 0)
(-0.0546136 0.0177314 0)
(-0.0571202 0.0170964 0)
(-0.05953 0.016371 0)
(-0.061831 0.0155564 0)
(-0.0640111 0.0146539 0)
(-0.0660584 0.013665 0)
(-0.0679615 0.0125917 0)
(-0.069709 0.0114362 0)
(-0.0712898 0.0102015 0)
(-0.0726935 0.00889109 0)
(-0.0739099 0.0075093 0)
(-0.0749296 0.0060612 0)
(-0.0757438 0.00455277 0)
(-0.0763445 0.0029909 0)
(-0.0767247 0.0013834 0)
(-0.0768784 -0.000260917 0)
(-0.0768007 -0.00193233 0)
(-0.0764881 -0.00362018 0)
(-0.0759384 -0.00531294 0)
(-0.075151 -0.00699828 0)
(-0.0741268 -0.00866319 0)
(-0.0728686 -0.010294 0)
(-0.0713808 -0.0118768 0)
(-0.0696697 -0.0133971 0)
(-0.0677436 -0.0148404 0)
(-0.0656127 -0.0161923 0)
(-0.0632889 -0.0174388 0)
(-0.0607864 -0.0185661 0)
(-0.058121 -0.0195614 0)
(-0.0553103 -0.0204127 0)
(-0.0523736 -0.0211092 0)
(-0.0493317 -0.0216417 0)
(-0.0462067 -0.0220022 0)
(-0.0430219 -0.022185 0)
(-0.0398016 -0.0221861 0)
(-0.0365703 -0.0220039 0)
(-0.0333533 -0.021639 0)
(-0.0301757 -0.0210945 0)
(-0.0270622 -0.0203761 0)
(-0.024037 -0.019492 0)
(-0.0211232 -0.0184532 0)
(-0.0183427 -0.0172734 0)
(-0.0157154 -0.0159687 0)
(-0.0132594 -0.0145583 0)
(-0.0109904 -0.0130637 0)
(-0.00892163 -0.0115093 0)
(-0.00706324 -0.0099218 0)
(-0.00542258 -0.00833074 0)
(-0.00400381 -0.00676815 0)
(-0.00280796 -0.00526867 0)
(-0.00183297 -0.00386957 0)
(-0.00107337 -0.00261086 0)
(-0.000520018 -0.00153515 0)
(-0.000167273 -0.000687573 0)
(-2.05036e-05 -0.000117877 0)
(-5.34803e-05 0.000875294 0)
(-0.000364345 0.00273351 0)
(-0.00104361 0.00463908 0)
(-0.00202652 0.00654488 0)
(-0.00327758 0.00841407 0)
(-0.00477614 0.0102167 0)
(-0.00650092 0.0119292 0)
(-0.00843073 0.0135337 0)
(-0.0105454 0.015017 0)
(-0.0128257 0.0163703 0)
(-0.0152531 0.017588 0)
(-0.0178096 0.0186674 0)
(-0.0204779 0.0196078 0)
(-0.0232413 0.0204103 0)
(-0.0260835 0.021077 0)
(-0.0289888 0.0216109 0)
(-0.0319419 0.0220152 0)
(-0.0349279 0.0222937 0)
(-0.0379325 0.0224497 0)
(-0.0409415 0.0224868 0)
(-0.043941 0.022408 0)
(-0.0469174 0.022216 0)
(-0.0498574 0.0219133 0)
(-0.0527478 0.0215019 0)
(-0.0555755 0.0209836 0)
(-0.0583275 0.0203598 0)
(-0.0609912 0.019632 0)
(-0.0635536 0.0188013 0)
(-0.0660023 0.0178691 0)
(-0.0683246 0.0168368 0)
(-0.0705084 0.0157061 0)
(-0.0725413 0.0144793 0)
(-0.0744117 0.0131589 0)
(-0.0761079 0.0117481 0)
(-0.0776187 0.0102511 0)
(-0.0789334 0.00867259 0)
(-0.0800421 0.00701835 0)
(-0.0809352 0.00529511 0)
(-0.0816042 0.00351062 0)
(-0.0820414 0.00167369 0)
(-0.0822402 -0.000205765 0)
(-0.0821952 -0.00211679 0)
(-0.0819021 -0.00404735 0)
(-0.0813584 -0.00598447 0)
(-0.0805628 -0.00791422 0)
(-0.0795159 -0.00982188 0)
(-0.07822 -0.0116921 0)
(-0.0766792 -0.0135088 0)
(-0.0748995 -0.0152559 0)
(-0.0728892 -0.0169168 0)