/*--------------------------------*- C++ -*----------------------------------*\
  =========                 |
  \\      /  F ield         | OpenFOAM: The Open Source CFD Toolbox
   \\    /   O peration     | Website:  https://openfoam.org
    \\  /    A nd           | Version:  7
     \\/     M anipulation  |
\*---------------------------------------------------------------------------*/
FoamFile
{
    version     2.0;
    format      ascii;
    class       volVectorField;
    location    "0.7";
    object      U;
}
// * * * * * * * * * * * * * * * * * * * * * * * * * * * * * * * * * * * * * //

dimensions      [0 1 -1 0 0 0 0];

internalField   nonuniform List<vector> 
6400
(
(7.57631e-06 -7.98865e-06 0)
(3.05657e-05 -1.47924e-05 0)
(5.93159e-05 -1.38057e-05 0)
(7.80532e-05 -8.72916e-06 0)
(7.88052e-05 -1.94956e-06 0)
(5.87721e-05 5.31771e-06 0)
(1.72788e-05 1.24645e-05 0)
(-4.52172e-05 1.91939e-05 0)
(-0.000127582 2.53683e-05 0)
(-0.000228303 3.09304e-05 0)
(-0.000345678 3.58664e-05 0)
(-0.000477919 4.01851e-05 0)
(-0.000623219 4.3908e-05 0)
(-0.000779798 4.70629e-05 0)
(-0.000945922 4.96799e-05 0)
(-0.00111992 5.17904e-05 0)
(-0.00130021 5.3425e-05 0)
(-0.00148526 5.46132e-05 0)
(-0.00167362 5.53826e-05 0)
(-0.00186394 5.57588e-05 0)
(-0.00205491 5.5765e-05 0)
(-0.00224529 5.54214e-05 0)
(-0.00243391 5.47464e-05 0)
(-0.00261965 5.37562e-05 0)
(-0.00280143 5.24652e-05 0)
(-0.00297824 5.08856e-05 0)
(-0.00314907 4.90282e-05 0)
(-0.00331298 4.69028e-05 0)
(-0.00346906 4.45185e-05 0)
(-0.00361643 4.18838e-05 0)
(-0.00375424 3.90074e-05 0)
(-0.00388167 3.58979e-05 0)
(-0.00399794 3.25646e-05 0)
(-0.00410232 2.90176e-05 0)
(-0.00419411 2.52685e-05 0)
(-0.00427266 2.13301e-05 0)
(-0.00433736 1.72172e-05 0)
(-0.00438768 1.29464e-05 0)
(-0.00442312 8.53671e-06 0)
(-0.00444329 4.0092e-06 0)
(-0.00444785 -6.1268e-07 0)
(-0.00443656 -5.30309e-06 0)
(-0.00440927 -1.00337e-05 0)
(-0.00436592 -1.4774e-05 0)
(-0.00430656 -1.94911e-05 0)
(-0.00423138 -2.415e-05 0)
(-0.00414064 -2.87144e-05 0)
(-0.00403476 -3.3146e-05 0)
(-0.00391429 -3.74058e-05 0)
(-0.00377987 -4.14537e-05 0)
(-0.00363232 -4.52494e-05 0)
(-0.00347255 -4.87528e-05 0)
(-0.00330163 -5.19245e-05 0)
(-0.00312074 -5.47263e-05 0)
(-0.00293117 -5.71217e-05 0)
(-0.00273434 -5.90762e-05 0)
(-0.00253178 -6.05584e-05 0)
(-0.00232509 -6.15397e-05 0)
(-0.00211597 -6.19957e-05 0)
(-0.00190618 -6.19057e-05 0)
(-0.00169755 -6.12536e-05 0)
(-0.00149193 -6.00281e-05 0)
(-0.00129121 -5.82228e-05 0)
(-0.00109728 -5.58369e-05 0)
(-0.000911994 -5.28744e-05 0)
(-0.000737201 -4.93453e-05 0)
(-0.000574677 -4.52652e-05 0)
(-0.000426121 -4.06561e-05 0)
(-0.000293126 -3.55471e-05 0)
(-0.000177149 -2.99758e-05 0)
(-7.94698e-05 -2.3991e-05 0)
(-1.14467e-06 -1.76587e-05 0)
(5.70693e-05 -1.10716e-05 0)
(9.48195e-05 -4.36846e-06 0)
(0.000112335 2.22552e-06 0)
(0.000110707 8.33156e-06 0)
(9.2285e-05 1.32927e-05 0)
(6.1539e-05 1.59186e-05 0)
(2.76382e-05 1.41256e-05 0)
(5.73089e-06 5.73811e-06 0)
(1.46014e-05 -3.12178e-05 0)
(5.05846e-05 -5.0908e-05 0)
(8.44098e-05 -4.03289e-05 0)
(9.00061e-05 -1.23746e-05 0)
(5.21835e-05 2.43898e-05 0)
(-3.61016e-05 6.47697e-05 0)
(-0.000177609 0.000105659 0)
(-0.000372299 0.000145222 0)
(-0.000618239 0.000182389 0)
(-0.000912289 0.00021656 0)
(-0.00125057 0.000247418 0)
(-0.00162879 0.000274828 0)
(-0.00204244 0.000298768 0)
(-0.00248693 0.00031929 0)
(-0.00295773 0.00033649 0)
(-0.00345037 0.000350489 0)
(-0.00396053 0.000361426 0)
(-0.00448405 0.000369442 0)
(-0.0050169 0.000374679 0)
(-0.00555527 0.000377275 0)
(-0.00609549 0.000377359 0)
(-0.00663404 0.000375052 0)
(-0.00716759 0.000370464 0)
(-0.00769293 0.000363699 0)
(-0.00820698 0.000354848 0)
(-0.00870679 0.000343995 0)
(-0.00918954 0.000331219 0)
(-0.0096525 0.000316592 0)
(-0.0100931 0.000300183 0)
(-0.0105087 0.00028206 0)
(-0.010897 0.000262291 0)
(-0.0112557 0.000240946 0)
(-0.0115825 0.0002181 0)
(-0.0118755 0.000193833 0)
(-0.0121326 0.000168235 0)
(-0.0123521 0.000141403 0)
(-0.0125323 0.000113446 0)
(-0.0126717 8.4485e-05 0)
(-0.012769 5.46553e-05 0)
(-0.0128232 2.41044e-05 0)
(-0.0128334 -7.00563e-06 0)
(-0.0127989 -3.84982e-05 0)
(-0.0127195 -7.01826e-05 0)
(-0.012595 -0.000101854 0)
(-0.0124257 -0.000133297 0)
(-0.012212 -0.000164281 0)
(-0.011955 -0.000194568 0)
(-0.0116557 -0.000223913 0)
(-0.0113157 -0.000252062 0)
(-0.010937 -0.00027876 0)
(-0.0105218 -0.000303751 0)
(-0.0100726 -0.00032678 0)
(-0.00959257 -0.000347598 0)
(-0.00908487 -0.000365967 0)
(-0.00855314 -0.000381657 0)
(-0.00800132 -0.000394456 0)
(-0.00743359 -0.000404169 0)
(-0.0068544 -0.000410624 0)
(-0.00626841 -0.000413672 0)
(-0.00568046 -0.000413193 0)
(-0.00509554 -0.000409096 0)
(-0.0045187 -0.000401324 0)
(-0.00395508 -0.000389853 0)
(-0.00340977 -0.000374696 0)
(-0.00288782 -0.000355907 0)
(-0.00239416 -0.000333581 0)
(-0.00193352 -0.000307857 0)
(-0.00151038 -0.000278926 0)
(-0.00112887 -0.000247039 0)
(-0.000792694 -0.000212516 0)
(-0.000504975 -0.000175769 0)
(-0.000268142 -0.000137334 0)
(-8.37041e-05 -9.79288e-05 0)
(4.80278e-05 -5.85389e-05 0)
(0.000128349 -2.05738e-05 0)
(0.000160729 1.38893e-05 0)
(0.000151468 4.17269e-05 0)
(0.000110768 5.81798e-05 0)
(5.61304e-05 5.61619e-05 0)
(1.40686e-05 2.75919e-05 0)
(1.38947e-05 -5.98536e-05 0)
(4.06712e-05 -8.47992e-05 0)
(4.8445e-05 -4.79643e-05 0)
(8.78669e-06 2.62549e-05 0)
(-9.5815e-05 0.000121445 0)
(-0.000274511 0.000226496 0)
(-0.000531375 0.000334049 0)
(-0.000866809 0.000439334 0)
(-0.00127855 0.000539319 0)
(-0.00176249 0.000632119 0)
(-0.00231331 0.000716617 0)
(-0.00292492 0.00079221 0)
(-0.00359077 0.000858646 0)
(-0.00430411 0.000915901 0)
(-0.00505811 0.000964109 0)
(-0.00584599 0.0010035 0)
(-0.00666113 0.00103438 0)
(-0.00749705 0.00105708 0)
(-0.00834752 0.00107192 0)
(-0.0092065 0.00107926 0)
(-0.0100682 0.00107944 0)
(-0.0109271 0.00107276 0)
(-0.0117778 0.00105953 0)
(-0.0126152 0.00104002 0)
(-0.0134344 0.0010145 0)
(-0.0142307 0.000983195 0)
(-0.0149995 0.000946345 0)
(-0.0157365 0.00090416 0)
(-0.0164374 0.000856847 0)
(-0.0170983 0.000804613 0)
(-0.0177154 0.000747665 0)
(-0.0182849 0.000686219 0)
(-0.0188034 0.000620503 0)
(-0.0192675 0.000550764 0)
(-0.0196744 0.000477269 0)
(-0.020021 0.000400313 0)
(-0.020305 0.000320219 0)
(-0.0205239 0.000237345 0)
(-0.0206758 0.000152083 0)
(-0.020759 6.48626e-05 0)
(-0.0207722 -2.38485e-05 0)
(-0.0207147 -0.000113544 0)
(-0.0205857 -0.000203681 0)
(-0.0203854 -0.000293678 0)
(-0.0201142 -0.000382924 0)
(-0.0197729 -0.000470776 0)
(-0.0193631 -0.000556564 0)
(-0.0188866 -0.0006396 0)
(-0.018346 -0.000719182 0)
(-0.0177443 -0.000794598 0)
(-0.0170851 -0.000865138 0)
(-0.0163726 -0.000930099 0)
(-0.0156114 -0.000988797 0)
(-0.0148068 -0.00104057 0)
(-0.0139643 -0.00108479 0)
(-0.0130902 -0.00112089 0)
(-0.0121909 -0.00114832 0)
(-0.0112735 -0.00116662 0)
(-0.0103451 -0.0011754 0)
(-0.00941337 -0.00117433 0)
(-0.00848591 -0.00116319 0)
(-0.00757061 -0.00114182 0)
(-0.00667537 -0.0011102 0)
(-0.00580807 -0.00106838 0)
(-0.00497644 -0.00101656 0)
(-0.00418801 -0.00095503 0)
(-0.00344998 -0.000884244 0)
(-0.00276912 -0.000804796 0)
(-0.00215159 -0.00071746 0)
(-0.00160286 -0.000623226 0)
(-0.00112744 -0.00052335 0)
(-0.000728697 -0.000419442 0)
(-0.000408563 -0.000313592 0)
(-0.000167136 -0.00020857 0)
(-2.18856e-06 -0.000108115 0)
(9.14693e-05 -1.73752e-05 0)
(0.000122636 5.65029e-05 0)
(0.000104609 0.000103663 0)
(5.85404e-05 0.000110856 0)
(1.59023e-05 6.14354e-05 0)
(9.06417e-06 -7.89683e-05 0)
(1.3338e-05 -9.08566e-05 0)
(-2.5042e-05 -8.46918e-06 0)
(-0.000131562 0.000132548 0)
(-0.00032305 0.000307977 0)
(-0.000609107 0.000500543 0)
(-0.000994114 0.000698147 0)
(-0.00147846 0.000892519 0)
(-0.0020595 0.00107811 0)
(-0.00273239 0.00125128 0)
(-0.00349073 0.00140973 0)
(-0.00432708 0.00155211 0)
(-0.00523332 0.00167772 0)
(-0.00620093 0.00178633 0)
(-0.00722126 0.00187803 0)
(-0.0082856 0.00195313 0)
(-0.00938537 0.00201207 0)
(-0.0105121 0.0020554 0)
(-0.0116577 0.00208368 0)
(-0.0128141 0.00209751 0)
(-0.0139737 0.00209748 0)
(-0.015129 0.00208417 0)
(-0.016273 0.00205813 0)
(-0.0173987 0.00201987 0)
(-0.0184995 0.00196988 0)
(-0.0195692 0.00190864 0)
(-0.0206016 0.00183657 0)
(-0.0215908 0.00175411 0)
(-0.0225312 0.00166166 0)
(-0.0234174 0.00155965 0)
(-0.0242442 0.00144849 0)
(-0.0250069 0.00132862 0)
(-0.0257006 0.00120049 0)
(-0.0263212 0.00106462 0)
(-0.0268644 0.000921538 0)
(-0.0273266 0.000771828 0)
(-0.0277045 0.000616139 0)
(-0.0279949 0.000455176 0)
(-0.0281954 0.000289712 0)
(-0.0283038 0.000120587 0)
(-0.0283185 -5.12856e-05 0)
(-0.0282383 -0.000224924 0)
(-0.0280628 -0.000399277 0)
(-0.0277919 -0.000573226 0)
(-0.0274262 -0.000745594 0)
(-0.0269672 -0.000915149 0)
(-0.0264167 -0.00108061 0)
(-0.0257774 -0.00124067 0)
(-0.0250528 -0.00139398 0)
(-0.0242469 -0.00153921 0)
(-0.0233645 -0.00167499 0)
(-0.0224111 -0.0018 0)
(-0.021393 -0.00191294 0)
(-0.020317 -0.00201258 0)
(-0.0191906 -0.00209773 0)
(-0.0180219 -0.0021673 0)
(-0.0168195 -0.00222031 0)
(-0.0155926 -0.00225587 0)
(-0.0143507 -0.00227325 0)
(-0.0131037 -0.00227188 0)
(-0.0118616 -0.00225133 0)
(-0.0106347 -0.00221135 0)
(-0.0094333 -0.00215192 0)
(-0.00826767 -0.00207319 0)
(-0.00714785 -0.00197557 0)
(-0.00608358 -0.00185968 0)
(-0.00508413 -0.00172645 0)
(-0.00415817 -0.00157707 0)
(-0.00331357 -0.00141312 0)
(-0.00255719 -0.00123657 0)
(-0.00189468 -0.0010499 0)
(-0.00133015 -0.000856242 0)
(-0.000865875 -0.000659586 0)
(-0.000501865 -0.00046505 0)
(-0.000235366 -0.000279303 0)
(-6.02623e-05 -0.000111131 0)
(3.34963e-05 2.78346e-05 0)
(6.06396e-05 0.000122328 0)
(4.33591e-05 0.000152621 0)
(1.34981e-05 9.25058e-05 0)
(2.46979e-06 -8.04892e-05 0)
(-2.3191e-05 -5.36278e-05 0)
(-0.000120652 9.626e-05 0)
(-0.000308721 0.00032428 0)
(-0.000601386 0.000599281 0)
(-0.00100743 0.000898287 0)
(-0.00153064 0.0012046 0)
(-0.00217082 0.00150635 0)
(-0.00292471 0.00179529 0)
(-0.0037867 0.00206576 0)
(-0.00474947 0.00231404 0)
(-0.00580442 0.0025378 0)
(-0.00694215 0.00273575 0)
(-0.00815274 0.0029073 0)
(-0.00942598 0.00305241 0)
(-0.0107516 0.00317139 0)
(-0.0121192 0.0032648 0)
(-0.0135189 0.00333336 0)
(-0.0149407 0.0033779 0)
(-0.0163749 0.00339927 0)
(-0.0178121 0.00339836 0)
(-0.0192434 0.00337603 0)
(-0.02066 0.00333313 0)
(-0.0220535 0.00327046 0)
(-0.0234156 0.0031888 0)
(-0.0247386 0.00308888 0)
(-0.026015 0.00297143 0)
(-0.0272375 0.00283712 0)
(-0.0283991 0.00268665 0)
(-0.0294933 0.0025207 0)
(-0.0305137 0.00233997 0)
(-0.0314542 0.00214519 0)
(-0.0323092 0.00193713 0)
(-0.0330734 0.00171662 0)
(-0.0337417 0.00148456 0)
(-0.0343097 0.00124191 0)
(-0.0347733 0.00098975 0)
(-0.0351289 0.000729225 0)
(-0.0353733 0.000461601 0)
(-0.035504 0.000188245 0)
(-0.0355192 -8.9362e-05 0)
(-0.0354175 -0.000369634 0)
(-0.0351984 -0.000650876 0)
(-0.0348619 -0.000931294 0)
(-0.0344089 -0.001209 0)
(-0.0338411 -0.00148202 0)
(-0.033161 -0.00174833 0)
(-0.0323719 -0.00200582 0)
(-0.031478 -0.00225237 0)
(-0.0304844 -0.00248585 0)
(-0.0293969 -0.00270411 0)
(-0.0282222 -0.00290505 0)
(-0.0269681 -0.00308663 0)
(-0.0256427 -0.00324688 0)
(-0.0242553 -0.00338395 0)
(-0.0228156 -0.00349613 0)
(-0.0213342 -0.00358187 0)
(-0.0198221 -0.00363979 0)
(-0.0182907 -0.00366877 0)
(-0.0167521 -0.00366791 0)
(-0.0152184 -0.00363656 0)
(-0.0137019 -0.0035744 0)
(-0.0122151 -0.00348139 0)
(-0.0107702 -0.00335786 0)
(-0.00937925 -0.00320448 0)
(-0.00805397 -0.00302234 0)
(-0.00680539 -0.00281297 0)
(-0.00564379 -0.00257836 0)
(-0.00457849 -0.00232111 0)
(-0.00361757 -0.00204441 0)
(-0.00276765 -0.00175229 0)
(-0.00203355 -0.00144972 0)
(-0.00141796 -0.00114291 0)
(-0.000921038 -0.000839666 0)
(-0.000539949 -0.000549848 0)
(-0.000268353 -0.000286044 0)
(-9.59034e-05 -6.43729e-05 0)
(-7.60558e-06 9.46648e-05 0)
(1.78235e-05 0.000165137 0)
(8.97611e-06 0.000112174 0)
(-4.73114e-06 -6.12793e-05 0)
(-6.41034e-05 3.47809e-05 0)
(-0.000228311 0.000276777 0)
(-0.000507323 0.000613038 0)
(-0.000910814 0.00100671 0)
(-0.00144577 0.00142987 0)
(-0.00211461 0.00186162 0)
(-0.00291602 0.0022867 0)
(-0.00384578 0.00269413 0)
(-0.00489739 0.00307619 0)
(-0.00606255 0.0034276 0)
(-0.00733163 0.00374495 0)
(-0.00869411 0.00402618 0)
(-0.0101388 0.00427029 0)
(-0.0116543 0.00447698 0)
(-0.0132288 0.00464652 0)
(-0.0148506 0.00477954 0)
(-0.0165083 0.00487693 0)
(-0.0181904 0.00493973 0)
(-0.0198858 0.00496908 0)
(-0.0215837 0.00496616 0)
(-0.0232735 0.00493216 0)
(-0.0249451 0.00486824 0)
(-0.0265886 0.00477553 0)
(-0.0281945 0.00465514 0)
(-0.0297536 0.00450813 0)
(-0.0312571 0.00433552 0)
(-0.0326966 0.00413833 0)
(-0.0340639 0.00391757 0)
(-0.0353511 0.00367426 0)
(-0.036551 0.00340945 0)
(-0.0376564 0.00312421 0)
(-0.0386608 0.00281972 0)
(-0.0395578 0.00249719 0)
(-0.0403419 0.00215797 0)
(-0.0410076 0.00180349 0)
(-0.0415503 0.00143533 0)
(-0.0419659 0.0010552 0)
(-0.0422507 0.000664944 0)
(-0.0424019 0.000266569 0)
(-0.0424174 -0.000137767 0)
(-0.0422957 -0.000545755 0)
(-0.0420362 -0.000954936 0)
(-0.041639 -0.00136271 0)
(-0.0411054 -0.00176635 0)
(-0.0404373 -0.00216303 0)
(-0.0396376 -0.00254979 0)
(-0.0387103 -0.00292365 0)
(-0.0376603 -0.00328154 0)
(-0.0364934 -0.00362041 0)
(-0.0352166 -0.00393719 0)
(-0.0338377 -0.00422888 0)
(-0.0323655 -0.00449257 0)
(-0.0308096 -0.00472546 0)
(-0.0291807 -0.0049249 0)
(-0.02749 -0.00508847 0)
(-0.0257497 -0.00521396 0)
(-0.0239725 -0.00529945 0)
(-0.0221717 -0.00534334 0)
(-0.020361 -0.00534437 0)
(-0.0185545 -0.00530167 0)
(-0.0167662 -0.00521481 0)
(-0.0150105 -0.00508379 0)
(-0.0133014 -0.00490913 0)
(-0.0116528 -0.00469188 0)
(-0.0100779 -0.00443367 0)
(-0.00858948 -0.00413675 0)
(-0.00719915 -0.00380408 0)
(-0.00591755 -0.00343944 0)
(-0.00475389 -0.00304749 0)
(-0.00371572 -0.00263399 0)
(-0.0028086 -0.00220598 0)
(-0.00203579 -0.00177212 0)
(-0.00139789 -0.00134305 0)
(-0.000892391 -0.000931939 0)
(-0.000513333 -0.000555141 0)
(-0.000250815 -0.000233075 0)
(-9.04758e-05 8.91358e-06 0)
(-1.33577e-05 0.000139378 0)
(3.5218e-06 0.000116538 0)
(-1.19916e-05 -2.01696e-05 0)
(-0.000106654 0.00017847 0)
(-0.000341618 0.000539292 0)
(-0.000717021 0.00100611 0)
(-0.00123735 0.00153772 0)
(-0.00190707 0.00210212 0)
(-0.00272662 0.00267482 0)
(-0.00369307 0.00323749 0)
(-0.00480092 0.00377662 0)
(-0.00604253 0.00428246 0)
(-0.00740857 0.0047482 0)
(-0.00888836 0.00516927 0)
(-0.0104703 0.00554282 0)
(-0.0121421 0.00586731 0)
(-0.0138912 0.00614217 0)
(-0.0157045 0.00636756 0)
(-0.0175693 0.00654414 0)
(-0.0194726 0.00667292 0)
(-0.0214018 0.00675518 0)
(-0.0233445 0.00679232 0)
(-0.0252885 0.00678582 0)
(-0.027222 0.00673721 0)
(-0.0291336 0.00664798 0)
(-0.0310121 0.00651963 0)
(-0.0328468 0.00635361 0)
(-0.0346273 0.00615135 0)
(-0.0363436 0.00591424 0)
(-0.0379861 0.00564366 0)
(-0.0395456 0.005341 0)
(-0.0410134 0.00500767 0)
(-0.0423809 0.0046451 0)
(-0.0436403 0.00425481 0)
(-0.044784 0.00383841 0)
(-0.0458051 0.00339761 0)
(-0.0466971 0.00293424 0)
(-0.0474541 0.00245031 0)
(-0.0480708 0.00194798 0)
(-0.0485425 0.00142958 0)
(-0.0488653 0.00089767 0)
(-0.049036 0.00035497 0)
(-0.0490522 -0.000195577 0)
(-0.0489124 -0.000750835 0)
(-0.048616 -0.00130747 0)
(-0.0481631 -0.00186197 0)
(-0.0475552 -0.00241065 0)
(-0.0467945 -0.00294969 0)
(-0.0458845 -0.00347514 0)
(-0.0448294 -0.00398295 0)
(-0.043635 -0.00446904 0)
(-0.0423078 -0.00492929 0)
(-0.0408555 -0.00535962 0)
(-0.039287 -0.005756 0)
(-0.0376122 -0.00611453 0)
(-0.0358419 -0.00643148 0)
(-0.0339879 -0.00670333 0)
(-0.032063 -0.00692684 0)
(-0.0300807 -0.00709909 0)
(-0.0280551 -0.00721752 0)
(-0.0260013 -0.00728003 0)
(-0.0239344 -0.00728495 0)
(-0.0218701 -0.00723118 0)
(-0.0198242 -0.00711815 0)
(-0.0178127 -0.00694596 0)
(-0.0158512 -0.00671534 0)
(-0.0139552 -0.00642777 0)
(-0.0121393 -0.00608548 0)
(-0.0104178 -0.0056916 0)
(-0.00880357 -0.00525016 0)
(-0.00730854 -0.00476625 0)
(-0.00594298 -0.00424615 0)
(-0.0047154 -0.0036975 0)
(-0.00363222 -0.00312957 0)
(-0.00269747 -0.00255356 0)
(-0.00191241 -0.00198302 0)
(-0.00127531 -0.00143436 0)
(-0.000781055 -0.000927596 0)
(-0.000420774 -0.000487108 0)
(-0.000181412 -0.000142551 0)
(-4.72697e-05 7.00197e-05 0)
(-2.24161e-06 0.000103737 0)
(-1.90653e-05 4.30454e-05 0)
(-0.000149315 0.000379183 0)
(-0.000456631 0.000886996 0)
(-0.000931071 0.00150762 0)
(-0.00157149 0.00219673 0)
(-0.00237936 0.00291922 0)
(-0.00335267 0.00364765 0)
(-0.00448649 0.00436104 0)
(-0.00577372 0.00504367 0)
(-0.00720537 0.00568392 0)
(-0.00877092 0.00627351 0)
(-0.0104586 0.00680676 0)
(-0.0122557 0.00728002 0)
(-0.0141489 0.00769121 0)
(-0.0161245 0.00803943 0)
(-0.0181685 0.00832471 0)
(-0.0202668 0.00854769 0)
(-0.0224055 0.00870953 0)
(-0.0245708 0.00881169 0)
(-0.0267491 0.00885583 0)
(-0.0289271 0.00884374 0)
(-0.0310918 0.00877729 0)
(-0.0332306 0.00865833 0)
(-0.0353313 0.00848874 0)
(-0.037382 0.00827034 0)
(-0.0393713 0.00800497 0)
(-0.0412882 0.0076944 0)
(-0.043122 0.00734044 0)
(-0.0448626 0.00694488 0)
(-0.0465002 0.00650956 0)
(-0.0480255 0.0060364 0)
(-0.0494298 0.00552737 0)
(-0.0507048 0.0049846 0)
(-0.0518427 0.00441032 0)
(-0.0528366 0.00380698 0)
(-0.0536797 0.00317718 0)
(-0.0543665 0.00252375 0)
(-0.0548917 0.00184976 0)
(-0.055251 0.00115851 0)
(-0.0554411 0.000453551 0)
(-0.0554592 -0.000261302 0)
(-0.0553037 -0.000981991 0)
(-0.054974 -0.00170421 0)
(-0.0544703 -0.00242344 0)
(-0.0537943 -0.00313494 0)
(-0.0529484 -0.00383378 0)
(-0.0519364 -0.0045149 0)
(-0.0507631 -0.00517313 0)
(-0.0494347 -0.00580321 0)
(-0.0479584 -0.00639989 0)
(-0.0463428 -0.00695794 0)
(-0.0445976 -0.00747222 0)
(-0.0427334 -0.00793776 0)
(-0.0407624 -0.0083498 0)
(-0.0386973 -0.00870384 0)
(-0.0365521 -0.00899577 0)
(-0.0343416 -0.00922187 0)
(-0.0320815 -0.0093789 0)
(-0.0297878 -0.00946418 0)
(-0.0274775 -0.00947563 0)
(-0.0251675 -0.00941187 0)
(-0.0228752 -0.00927223 0)
(-0.020618 -0.00905686 0)
(-0.018413 -0.00876676 0)
(-0.0162771 -0.00840387 0)
(-0.0142265 -0.00797113 0)
(-0.0122766 -0.00747256 0)
(-0.0104418 -0.00691338 0)
(-0.00873495 -0.00630009 0)
(-0.00716761 -0.00564068 0)
(-0.00574931 -0.00494477 0)
(-0.00448743 -0.00422393 0)
(-0.00338696 -0.00349193 0)
(-0.00245016 -0.00276518 0)
(-0.00167632 -0.00206329 0)
(-0.00106162 -0.00140963 0)
(-0.000598651 -0.00083219 0)
(-0.000276135 -0.000364334 0)
(-8.21565e-05 -4.58002e-05 0)
(-7.99009e-06 7.3034e-05 0)
(-2.58554e-05 0.000128038 0)
(-0.000191269 0.000637147 0)
(-0.000570992 0.00132097 0)
(-0.00114518 0.00211935 0)
(-0.00190692 0.00298595 0)
(-0.00285441 0.00388339 0)
(-0.00398288 0.00478197 0)
(-0.00528509 0.00565857 0)
(-0.00675207 0.00649556 0)
(-0.0083733 0.00727973 0)
(-0.0101369 0.00800149 0)
(-0.0120299 0.00865412 0)
(-0.0140385 0.00923322 0)
(-0.0161483 0.00973618 0)
(-0.0183446 0.0101618 0)
(-0.0206123 0.0105099 0)
(-0.0229364 0.0107813 0)
(-0.0253019 0.010977 0)
(-0.027694 0.0110988 0)
(-0.0300981 0.0111486 0)
(-0.0324998 0.0111286 0)
(-0.0348851 0.0110408 0)
(-0.0372405 0.0108876 0)
(-0.0395526 0.0106711 0)
(-0.0418087 0.0103937 0)
(-0.0439964 0.0100576 0)
(-0.0461036 0.00966499 0)
(-0.0481188 0.0092181 0)
(-0.0500311 0.00871921 0)
(-0.0518297 0.00817062 0)
(-0.0535047 0.00757475 0)
(-0.0550465 0.00693412 0)
(-0.0564462 0.0062514 0)
(-0.0576954 0.00552943 0)
(-0.0587863 0.00477129 0)
(-0.059712 0.00398028 0)
(-0.0604661 0.00315996 0)
(-0.0610432 0.00231418 0)
(-0.0614386 0.00144709 0)
(-0.0616486 0.000563133 0)
(-0.0616703 -0.000332925 0)
(-0.0615019 -0.00123602 0)
(-0.0611428 -0.0021408 0)
(-0.0605934 -0.00304162 0)
(-0.0598552 -0.0039326 0)
(-0.0589311 -0.00480764 0)
(-0.0578249 -0.00566046 0)
(-0.0565421 -0.00648465 0)
(-0.0550892 -0.00727371 0)
(-0.053474 -0.00802115 0)
(-0.0517058 -0.00872051 0)
(-0.0497948 -0.00936544 0)
(-0.0477528 -0.0099498 0)
(-0.0455926 -0.0104677 0)
(-0.0433281 -0.0109137 0)
(-0.0409743 -0.0112825 0)
(-0.0385472 -0.0115698 0)
(-0.0360635 -0.0117714 0)
(-0.0335408 -0.0118841 0)
(-0.030997 -0.0119054 0)
(-0.0284506 -0.0118335 0)
(-0.0259204 -0.0116677 0)
(-0.0234251 -0.0114082 0)
(-0.0209832 -0.0110563 0)
(-0.0186129 -0.0106143 0)
(-0.0163319 -0.0100861 0)
(-0.0141567 -0.00947643 0)
(-0.012103 -0.0087919 0)
(-0.0101851 -0.00804045 0)
(-0.00841555 -0.00723183 0)
(-0.00680505 -0.00637771 0)
(-0.00536216 -0.00549192 0)
(-0.00409299 -0.00459082 0)
(-0.00300102 -0.00369363 0)
(-0.0020869 -0.00282291 0)
(-0.00134835 -0.0020052 0)
(-0.000779784 -0.00127168 0)
(-0.000371971 -0.000658826 0)
(-0.000117005 -0.000209258 0)
(-1.35663e-05 2.43594e-05 0)
(-3.23341e-05 0.000234216 0)
(-0.000232102 0.000951681 0)
(-0.00068334 0.00184092 0)
(-0.00135669 0.00284147 0)
(-0.00223953 0.00390589 0)
(-0.00332667 0.00499529 0)
(-0.00461038 0.00607832 0)
(-0.0060809 0.00713025 0)
(-0.00772719 0.00813191 0)
(-0.00953699 0.00906877 0)
(-0.0114969 0.00993013 0)
(-0.0135928 0.0107084 0)
(-0.0158096 0.0113985 0)
(-0.0181318 0.0119973 0)
(-0.0205438 0.0125035 0)
(-0.0230294 0.0129166 0)
(-0.0255728 0.0132374 0)
(-0.028158 0.0134672 0)
(-0.0307691 0.0136079 0)
(-0.0333907 0.0136616 0)
(-0.0360075 0.0136308 0)
(-0.0386046 0.013518 0)
(-0.0411675 0.0133259 0)
(-0.0436821 0.013057 0)
(-0.0461345 0.0127141 0)
(-0.0485117 0.0122998 0)
(-0.0508007 0.0118169 0)
(-0.0529892 0.011268 0)
(-0.0550654 0.0106558 0)
(-0.057018 0.00998325 0)
(-0.0588362 0.00925326 0)
(-0.0605097 0.0084689 0)
(-0.062029 0.00763348 0)
(-0.0633851 0.00675047 0)
(-0.0645698 0.00582364 0)
(-0.0655755 0.00485704 0)
(-0.0663955 0.00385502 0)
(-0.0670238 0.00282228 0)
(-0.0674556 0.00176388 0)
(-0.0676868 0.000685213 0)
(-0.0677144 -0.000407922 0)
(-0.0675365 -0.00150939 0)
(-0.0671522 -0.0026127 0)
(-0.066562 -0.00371103 0)
(-0.0657676 -0.00479728 0)
(-0.0647719 -0.00586408 0)
(-0.063579 -0.00690385 0)
(-0.0621947 -0.00790887 0)
(-0.0606259 -0.0088713 0)
(-0.0588809 -0.00978333 0)
(-0.0569694 -0.0106372 0)
(-0.0549024 -0.0114252 0)
(-0.0526924 -0.01214 0)
(-0.050353 -0.0127746 0)
(-0.0478989 -0.0133222 0)
(-0.0453462 -0.0137767 0)
(-0.0427118 -0.0141327 0)
(-0.0400135 -0.0143854 0)
(-0.0372701 -0.0145308 0)
(-0.0345007 -0.0145658 0)
(-0.0317252 -0.0144885 0)
(-0.0289634 -0.0142978 0)
(-0.0262354 -0.0139942 0)
(-0.0235611 -0.013579 0)
(-0.02096 -0.0130553 0)
(-0.0184511 -0.0124275 0)
(-0.0160523 -0.0117015 0)
(-0.0137805 -0.010885 0)
(-0.0116513 -0.00998758 0)
(-0.00967861 -0.00902074 0)
(-0.00787433 -0.00799817 0)
(-0.0062483 -0.00693598 0)
(-0.004808 -0.00585304 0)
(-0.00355831 -0.00477124 0)
(-0.00250146 -0.00371598 0)
(-0.00163699 -0.00271666 0)
(-0.000961286 -0.00180728 0)
(-0.000467344 -0.00102695 0)
(-0.000151272 -0.000420488 0)
(-1.89058e-05 -4.19941e-05 0)
(-3.85063e-05 0.000360876 0)
(-0.000271631 0.00132159 0)
(-0.000792933 0.00244567 0)
(-0.00156402 0.00367304 0)
(-0.00256675 0.00495586 0)
(-0.00379251 0.00625438 0)
(-0.00523053 0.00753619 0)
(-0.00686838 0.00877537 0)
(-0.00869281 0.00995167 0)
(-0.0106897 0.0110495 0)
(-0.012844 0.0120573 0)
(-0.0151402 0.0129668 0)
(-0.0175621 0.0137723 0)
(-0.0200931 0.0144704 0)
(-0.0227163 0.0150595 0)
(-0.0254149 0.015539 0)
(-0.0281719 0.0159098 0)
(-0.0309706 0.0161733 0)
(-0.0337942 0.0163316 0)
(-0.0366263 0.0163871 0)
(-0.039451 0.0163425 0)
(-0.0422525 0.0162008 0)
(-0.0450153 0.015965 0)
(-0.0477247 0.0156382 0)
(-0.0503662 0.0152234 0)
(-0.0529256 0.0147238 0)
(-0.0553894 0.0141426 0)
(-0.0577446 0.0134829 0)
(-0.0599786 0.012748 0)
(-0.0620794 0.0119414 0)
(-0.0640356 0.0110665 0)
(-0.0658364 0.010127 0)
(-0.0674716 0.00912685 0)
(-0.0689316 0.00807025 0)
(-0.0702078 0.00696168 0)
(-0.0712921 0.00580598 0)
(-0.0721774 0.00460835 0)
(-0.0728573 0.00337439 0)
(-0.0733267 0.0021101 0)
(-0.0735812 0.000821933 0)
(-0.0736175 -0.000483264 0)
(-0.0734336 -0.0017982 0)
(-0.0730286 -0.0031152 0)
(-0.0724029 -0.00442619 0)
(-0.0715582 -0.00572276 0)
(-0.0704974 -0.00699621 0)
(-0.0692249 -0.0082376 0)
(-0.0677466 -0.00943779 0)
(-0.0660698 -0.0105876 0)
(-0.0642032 -0.0116777 0)
(-0.0621569 -0.012699 0)
(-0.0599426 -0.0136424 0)
(-0.0575731 -0.0144993 0)
(-0.055063 -0.0152613 0)
(-0.0524276 -0.0159205 0)
(-0.0496839 -0.0164697 0)
(-0.0468498 -0.0169025 0)
(-0.0439441 -0.0172131 0)
(-0.0409865 -0.017397 0)
(-0.0379975 -0.0174504 0)
(-0.0349979 -0.017371 0)
(-0.032009 -0.0171576 0)
(-0.029052 -0.0168106 0)
(-0.0261482 -0.0163317 0)
(-0.0233183 -0.0157244 0)
(-0.0205827 -0.0149939 0)
(-0.0179607 -0.014147 0)
(-0.0154706 -0.0131929 0)
(-0.0131293 -0.0121424 0)
(-0.010952 -0.0110088 0)
(-0.00895212 -0.00980802 0)
(-0.00714091 -0.00855824 0)
(-0.00552736 -0.00728078 0)
(-0.00411795 -0.00600011 0)
(-0.00291669 -0.00474427 0)
(-0.00192505 -0.00354529 0)
(-0.00114154 -0.00243967 0)
(-0.000561428 -0.00146874 0)
(-0.000184712 -0.000679048 0)
(-2.39948e-05 -0.000125566 0)
(-4.43907e-05 0.000507281 0)
(-0.0003098 0.00174543 0)
(-0.000899416 0.00313351 0)
(-0.00176631 0.00461238 0)
(-0.00288705 0.00613431 0)
(-0.00424966 0.00765924 0)
(-0.00584028 0.00915418 0)
(-0.00764379 0.0105925 0)
(-0.00964459 0.0119532 0)
(-0.0118266 0.01322 0)
(-0.0141731 0.0143807 0)
(-0.0166671 0.0154265 0)
(-0.019291 0.0163514 0)
(-0.0220272 0.0171516 0)
(-0.0248578 0.0178253 0)
(-0.0277649 0.0183723 0)
(-0.0307307 0.0187931 0)
(-0.0337375 0.0190895 0)
(-0.0367679 0.0192637 0)
(-0.0398048 0.0193185 0)
(-0.0428312 0.019257 0)
(-0.0458308 0.0190824 0)
(-0.0487874 0.0187982 0)
(-0.0516854 0.0184078 0)
(-0.0545096 0.0179149 0)
(-0.0572453 0.0173231 0)
(-0.0598782 0.0166359 0)
(-0.0623947 0.0158572 0)
(-0.0647816 0.0149907 0)
(-0.0670263 0.0140403 0)
(-0.0691168 0.0130103 0)
(-0.0710416 0.0119049 0)
(-0.07279 0.0107287 0)
(-0.0743522 0.00948673 0)
(-0.0757187 0.00818415 0)
(-0.0768812 0.00682664 0)
(-0.0778321 0.00542029 0)
(-0.0785648 0.00397165 0)
(-0.0790737 0.00248773 0)
(-0.0793541 0.000976042 0)
(-0.0794026 -0.00055543 0)
(-0.0792169 -0.00209821 0)
(-0.078796 -0.00364335 0)
(-0.0781402 -0.00518149 0)
(-0.077251 -0.00670285 0)
(-0.0761316 -0.00819734 0)
(-0.0747863 -0.00965456 0)
(-0.0732213 -0.0110639 0)
(-0.071444 -0.0124147 0)
(-0.0694634 -0.0136962 0)
(-0.06729 -0.0148978 0)
(-0.0649358 -0.016009 0)
(-0.0624145 -0.0170197 0)
(-0.0597408 -0.0179201 0)
(-0.0569312 -0.0187012 0)
(-0.0540032 -0.0193546 0)
(-0.0509755 -0.0198726 0)
(-0.0478679 -0.0202487 0)
(-0.0447013 -0.0204774 0)
(-0.0414969 -0.0205545 0)
(-0.038277 -0.020477 0)
(-0.0350638 -0.0202438 0)
(-0.03188 -0.019855 0)
(-0.028748 -0.0193127 0)
(-0.0256901 -0.0186208 0)
(-0.0227278 -0.0177851 0)
(-0.0198821 -0.0168136 0)
(-0.0171725 -0.0157165 0)
(-0.0146174 -0.0145062 0)
(-0.0122336 -0.0131979 0)
(-0.0100361 -0.0118093 0)
(-0.00803756 -0.0103607 0)
(-0.00624876 -0.00887596 0)
(-0.00467793 -0.00738186 0)
(-0.00333094 -0.00590896 0)
(-0.00221135 -0.00449172 0)
(-0.00131984 -0.0031689 0)
(-0.000653909 -0.00198375 0)
(-0.000217265 -0.000984215 0)
(-2.88464e-05 -0.000225844 0)
(-5.00114e-05 0.000672707 0)
(-0.000346626 0.0022216 0)
(-0.00100267 0.00390247 0)
(-0.00196315 0.00565737 0)
(-0.00319958 0.00743912 0)
(-0.00469674 0.00920782 0)
(-0.00643774 0.0109303 0)
(-0.00840469 0.0125797 0)
(-0.0105796 0.0141345 0)
(-0.0129444 0.0155781 0)
(-0.0154806 0.0168978 0)
(-0.0181696 0.0180847 0)
(-0.0209926 0.0191324 0)
(-0.0239307 0.0200372 0)
(-0.0269649 0.0207972 0)
(-0.0300765 0.0214119 0)
(-0.0332468 0.0218825 0)
(-0.0364572 0.0222106 0)
(-0.0396896 0.0223989 0)
(-0.0429261 0.0224504 0)
(-0.0461491 0.0223685 0)
(-0.0493415 0.022157 0)
(-0.0524865 0.0218196 0)
(-0.0555679 0.0213604 0)
(-0.0585699 0.0207833 0)
(-0.061477 0.0200925 0)
(-0.0642746 0.0192921 0)
(-0.0669483 0.0183863 0)
(-0.0694843 0.0173797 0)
(-0.0718696 0.0162765 0)
(-0.0740915 0.0150818 0)
(-0.0761382 0.0138003 0)
(-0.0779985 0.0124375 0)
(-0.0796618 0.0109989 0)
(-0.0811185 0.00949076 0)
(-0.0823598 0.00791946 0)
(-0.0833776 0.00629203 0)
(-0.0841649 0.00461599 0)
(-0.0847159 0.0028994 0)
(-0.0850256 0.00115088 0)
(-0.0850902 -0.000620411 0)
(-0.0849072 -0.00240476 0)
(-0.0844755 -0.00419193 0)
(-0.0837952 -0.00597119 0)
(-0.0828677 -0.00773136 0)
(-0.081696 -0.00946087 0)
(-0.0802848 -0.0111478 0)
(-0.0786399 -0.0127801 0)
(-0.0767692 -0.0143455 0)
(-0.0746816 -0.0158317 0)
(-0.0723882 -0.0172265 0)
(-0.0699012 -0.0185179 0)
(-0.0672347 -0.0196943 0)
(-0.064404 -0.0207445 0)
(-0.0614261 -0.0216582 0)
(-0.0583192 -0.0224255 0)
(-0.055103 -0.0230378 0)
(-0.0517979 -0.0234874 0)
(-0.0484259 -0.023768 0)
(-0.0450092 -0.0238747 0)
(-0.0415712 -0.0238042 0)
(-0.0381354 -0.0235546 0)
(-0.0347256 -0.0231264 0)
(-0.0313657 -0.0225216 0)
(-0.0280793 -0.0217446 0)
(-0.0248894 -0.0208019 0)
(-0.0218183 -0.0197024 0)
(-0.0188873 -0.0184575 0)
(-0.0161162 -0.0170812 0)
(-0.0135236 -0.0155902 0)
(-0.0111259 -0.0140041 0)
(-0.00893778 -0.0123455 0)
(-0.00697167 -0.0106404 0)
(-0.00523773 -0.00891789 0)
(-0.00374383 -0.00721095 0)
(-0.00249566 -0.0055563 0)
(-0.0014961 -0.00399477 0)
(-0.000744817 -0.00257134 0)
(-0.000248994 -0.0013352 0)
(-3.3489e-05 -0.000342336 0)
(-5.53932e-05 0.00085646 0)
(-0.000382166 0.00274852 0)
(-0.0011027 0.0047504 0)
(-0.00215439 0.00680561 0)
(-0.00350396 0.00886783 0)
(-0.00513306 0.0108976 0)
(-0.00702181 0.0128621 0)
(-0.00914959 0.0147344 0)
(-0.011496 0.0164929 0)
(-0.014041 0.018121 0)
(-0.0167641 0.0196059 0)
(-0.0196452 0.0209385 0)
(-0.0226642 0.0221124 0)
(-0.0258009 0.0231239 0)
(-0.0290353 0.0239712 0)
(-0.0323477 0.0246541 0)
(-0.0357186 0.0251738 0)
(-0.0391285 0.0255324 0)
(-0.0425586 0.0257326 0)
(-0.0459903 0.025778 0)
(-0.0494055 0.0256724 0)
(-0.0527862 0.0254198 0)
(-0.0561153 0.0250246 0)
(-0.0593758 0.0244912 0)
(-0.0625514 0.0238241 0)
(-0.0656262 0.0230279 0)
(-0.0685848 0.0221072 0)
(-0.0714125 0.0210669 0)
(-0.0740949 0.019912 0)
(-0.0766185 0.0186476 0)
(-0.0789701 0.0172789 0)
(-0.0811375 0.0158119 0)
(-0.0831089 0.0142523 0)
(-0.0848735 0.0126068 0)
(-0.086421 0.0108821 0)
(-0.0877423 0.00908572 0)
(-0.088829 0.00722552 0)
(-0.0896737 0.00531003 0)
(-0.09027 0.00334839 0)
(-0.0906128 0.00135035 0)
(-0.090698 -0.000673717 0)
(-0.0905228 -0.00271283 0)
(-0.0900858 -0.00475542 0)
(-0.0893867 -0.00678934 0)
(-0.0884272 -0.00880197 0)
(-0.0872099 -0.0107802 0)
(-0.0857393 -0.0127106 0)
(-0.0840215 -0.0145795 0)
(-0.0820642 -0.016373 0)
(-0.0798766 -0.0180772 0)
(-0.0774698 -0.0196782 0)
(-0.0748564 -0.0211626 0)