/*--------------------------------*- C++ -*----------------------------------*\
  =========                 |
  \\      /  F ield         | OpenFOAM: The Open Source CFD Toolbox
   \\    /   O peration     | Website:  https://openfoam.org
    \\  /    A nd           | Version:  7
     \\/     M anipulation  |
\*---------------------------------------------------------------------------*/
FoamFile
{
    version     2.0;
    format      ascii;
    class       surfaceScalarField;
    location    "2.225";
    object      phi;
}
// * * * * * * * * * * * * * * * * * * * * * * * * * * * * * * * * * * * * * //

dimensions      [0 3 -1 0 0 0 0];

internalField   nonuniform List<scalar> 
12640
(
3.93944e-10
-3.93786e-10
1.49914e-09
-1.10517e-09
2.85061e-09
-1.35148e-09
4.09571e-09
-1.24509e-09
5.03536e-09
-9.39685e-10
5.5698e-09
-5.34399e-10
5.65918e-09
-8.93886e-11
5.29805e-09
3.61153e-10
4.49793e-09
8.00124e-10
3.27657e-09
1.22134e-09
1.65149e-09
1.62508e-09
-3.63553e-10
2.01503e-09
-2.75986e-09
2.3963e-09
-5.53398e-09
2.77413e-09
-8.68692e-09
3.15295e-09
-1.22229e-08
3.53599e-09
-1.61479e-08
3.92496e-09
-2.04678e-08
4.31995e-09
-2.51873e-08
4.71942e-09
-3.03075e-08
5.12024e-09
-3.58254e-08
5.51788e-09
-4.17318e-08
5.90641e-09
-4.80105e-08
6.27866e-09
-5.46368e-08
6.62636e-09
-6.15772e-08
6.94031e-09
-6.87877e-08
7.21057e-09
-7.62143e-08
7.42657e-09
-8.37918e-08
7.57745e-09
-9.1444e-08
7.65226e-09
-9.90843e-08
7.6403e-09
-1.06616e-07
7.5314e-09
-1.13932e-07
7.31639e-09
-1.2092e-07
6.98741e-09
-1.27458e-07
6.53838e-09
-1.33423e-07
5.96535e-09
-1.3869e-07
5.26691e-09
-1.43135e-07
4.44455e-09
-1.46638e-07
3.50297e-09
-1.49088e-07
2.45025e-09
-1.50386e-07
1.29783e-09
-1.50452e-07
6.60591e-11
-1.49212e-07
-1.23951e-09
-1.4663e-07
-2.58234e-09
-1.42686e-07
-3.94363e-09
-1.37391e-07
-5.29509e-09
-1.30784e-07
-6.60721e-09
-1.22934e-07
-7.84966e-09
-1.13942e-07
-8.9921e-09
-1.03937e-07
-1.00053e-08
-9.3075e-08
-1.08621e-08
-8.15363e-08
-1.15387e-08
-6.95207e-08
-1.20156e-08
-5.72419e-08
-1.22788e-08
-4.49219e-08
-1.23201e-08
-3.27838e-08
-1.21381e-08
-2.10455e-08
-1.17383e-08
-9.91273e-09
-1.11328e-08
4.27752e-10
-1.03405e-08
9.81517e-09
-9.38741e-09
1.81132e-08
-8.29798e-09
2.52213e-08
-7.10818e-09
3.10719e-08
-5.85052e-09
3.56313e-08
-4.55941e-09
3.8899e-08
-3.26775e-09
4.09049e-08
-2.0059e-09
4.17057e-08
-8.00745e-10
4.13805e-08
3.25168e-10
4.00268e-08
1.35371e-09
3.77558e-08
2.27099e-09
3.46895e-08
3.06626e-09
3.09592e-08
3.73037e-09
2.67058e-08
4.25335e-09
2.20846e-08
4.62115e-09
1.72732e-08
4.81147e-09
1.24843e-08
4.78888e-09
7.98332e-09
4.50094e-09
4.10452e-09
3.87881e-09
1.25958e-09
2.84495e-09
-1.09592e-10
1.36918e-09
-1.09587e-10
1.11899e-09
-1.51275e-09
3.28938e-09
-3.2756e-09
5.68538e-09
-3.74744e-09
7.71081e-09
-3.27055e-09
8.96673e-09
-2.19553e-09
9.216e-09
-7.83705e-10
8.33807e-09
7.88552e-10
6.28698e-09
2.41226e-09
3.06023e-09
4.02687e-09
-1.32366e-09
5.60524e-09
-6.84014e-09
7.14155e-09
-1.34673e-08
8.64216e-09
-2.11901e-08
1.01191e-08
-3.00013e-08
1.15854e-08
-3.99008e-08
1.30524e-08
-5.08924e-08
1.45276e-08
-6.29808e-08
1.60133e-08
-7.61675e-08
1.75067e-08
-9.04473e-08
1.89992e-08
-1.05804e-07
2.04771e-08
-1.22207e-07
2.19212e-08
-1.39609e-07
2.33079e-08
-1.5794e-07
2.46095e-08
-1.77108e-07
2.57947e-08
-1.96997e-07
2.68293e-08
-2.17463e-07
2.76769e-08
-2.38337e-07
2.83001e-08
-2.59421e-07
2.8661e-08
-2.80491e-07
2.87225e-08
-3.013e-07
2.84494e-08
-3.21578e-07
2.78097e-08
-3.41038e-07
2.67758e-08
-3.59376e-07
2.53258e-08
-3.76282e-07
2.34448e-08
-3.91443e-07
2.11263e-08
-4.04549e-07
1.83729e-08
-4.15302e-07
1.51975e-08
-4.23423e-07
1.16239e-08
-4.2866e-07
7.68733e-09
-4.30797e-07
3.43472e-09
-4.29658e-07
-1.07308e-09
-4.2512e-07
-5.77711e-09
-4.17114e-07
-1.05885e-08
-4.05634e-07
-1.5424e-08
-3.90739e-07
-2.01904e-08
-3.72556e-07
-2.47899e-08
-3.51283e-07
-2.91229e-08
-3.27183e-07
-3.30914e-08
-3.00587e-07
-3.66012e-08
-2.71883e-07
-3.95661e-08
-2.41512e-07
-4.19103e-08
-2.09955e-07
-4.35723e-08
-1.77727e-07
-4.45072e-08
-1.45358e-07
-4.4689e-08
-1.13383e-07
-4.41126e-08
-8.23273e-08
-4.27942e-08
-5.26885e-08
-4.07715e-08
-2.49265e-08
-3.81026e-08
5.49954e-10
-3.48638e-08
2.34004e-08
-3.11484e-08
4.33474e-08
-2.70552e-08
6.01944e-08
-2.26976e-08
7.38236e-08
-1.81886e-08
8.4195e-08
-1.36391e-08
9.13434e-08
-9.15425e-09
9.53724e-08
-4.82972e-09
9.6447e-08
-7.49427e-10
9.47852e-08
3.01549e-09
9.06499e-08
6.40631e-09
8.43424e-08
9.37368e-09
7.61994e-08
1.18734e-08
6.65932e-08
1.38595e-08
5.59382e-08
1.52762e-08
4.47024e-08
1.60473e-08
3.34234e-08
1.60679e-08
2.27236e-08
1.52008e-08
1.33133e-08
1.32891e-08
5.96003e-09
1.01982e-08
1.38053e-09
5.94869e-09
1.27094e-09
1.37996e-09
-2.89273e-09
3.76693e-09
-5.66255e-09
6.11247e-09
-6.09305e-09
7.7069e-09
-4.86492e-09
8.06653e-09
-2.55518e-09
6.88812e-09
3.94731e-10
4.00244e-09
3.67424e-09
-6.69375e-10
7.08406e-09
-7.1503e-09
1.05078e-08
-1.54339e-08
1.38889e-08
-2.5502e-08
1.72096e-08
-3.73357e-08
2.04759e-08
-5.09211e-08
2.37045e-08
-6.62505e-08
2.69148e-08
-8.3321e-08
3.01228e-08
-1.0213e-07
3.3337e-08
-1.22673e-07
3.65562e-08
-1.44935e-07
3.97682e-08
-1.68886e-07
4.29501e-08
-1.94476e-07
4.60678e-08
-2.21633e-07
4.90773e-08
-2.5025e-07
5.19254e-08
-2.80192e-07
5.45509e-08
-3.11283e-07
5.68864e-08
-3.43313e-07
5.88592e-08
-3.7603e-07
6.03939e-08
-4.09144e-07
6.14137e-08
-4.42326e-07
6.18432e-08
-4.75213e-07
6.16099e-08
-5.07411e-07
6.06474e-08
-5.38499e-07
5.88975e-08
-5.68036e-07
5.63128e-08
-5.9557e-07
5.28593e-08
-6.20643e-07
4.85181e-08
-6.42805e-07
4.32881e-08
-6.61619e-07
3.71872e-08
-6.76675e-07
3.02541e-08
-6.876e-07
2.25484e-08
-6.94065e-07
1.41519e-08
-6.95798e-07
5.1678e-09
-6.92589e-07
-4.28218e-09
-6.84307e-07
-1.40582e-08
-6.70899e-07
-2.39971e-08
-6.52395e-07
-3.39276e-08
-6.28919e-07
-4.36671e-08
-6.00682e-07
-5.30264e-08
-5.6799e-07
-6.18149e-08
-5.31236e-07
-6.98457e-08
-4.90896e-07
-7.6941e-08
-4.47524e-07
-8.29377e-08
-4.01741e-07
-8.76936e-08
-3.54221e-07
-9.10923e-08
-3.0568e-07
-9.30483e-08
-2.56858e-07
-9.35113e-08
-2.08501e-07
-9.2469e-08
-1.61347e-07
-8.99488e-08
-1.161e-07
-8.60182e-08
-7.34196e-08
-8.07831e-08
-3.38987e-08
-7.43847e-08
1.94736e-09
-6.69945e-08
3.36998e-08
-5.88077e-08
6.10348e-08
-5.00326e-08
8.374e-08
-4.08938e-08
1.01709e-07
-3.16086e-08
1.14944e-07
-2.23887e-08
1.23546e-07
-1.34314e-08
1.27711e-07
-4.91442e-09
1.2772e-07
3.00648e-09
1.23928e-07
1.01975e-08
1.1676e-07
1.65419e-08
1.067e-07
2.19334e-08
9.42943e-08
2.62655e-08
8.01528e-08
2.94177e-08
6.49585e-08
3.12416e-08
4.9477e-08
3.15494e-08
3.45642e-08
3.01136e-08
2.11614e-08
2.66919e-08
1.02672e-08
2.10924e-08
2.88104e-09
1.33349e-08
4.15198e-09
1.25427e-09
-4.14699e-09
3.16409e-09
-7.57241e-09
4.59119e-09
-7.52008e-09
4.7873e-09
-5.06106e-09
3.25059e-09
-1.01845e-09
-3.36757e-10
3.98211e-09
-6.15971e-09
9.49719e-09
-1.43124e-08
1.52368e-08
-2.48327e-08
2.10281e-08
-3.77271e-08
2.67832e-08
-5.29881e-08
3.24707e-08
-7.06053e-08
3.8093e-08
-9.05694e-08
4.36687e-08
-1.12874e-07
4.92191e-08
-1.37511e-07
5.476e-08
-1.64469e-07
6.02947e-08
-1.93723e-07
6.5811e-08
-2.25235e-07
7.12793e-08
-2.58937e-07
7.66523e-08
-2.94734e-07
8.18654e-08
-3.32495e-07
8.68382e-08
-3.72046e-07
9.14763e-08
-4.13169e-07
9.56736e-08
-4.55597e-07
9.93149e-08
-4.99017e-07
1.02279e-07
-5.43065e-07
1.04442e-07
-5.87331e-07
1.0568e-07
-6.31361e-07
1.05874e-07
-6.74665e-07
1.04914e-07
-7.16719e-07
1.02702e-07
-7.56977e-07
9.91549e-08
-7.94876e-07
9.42117e-08
-8.2985e-07
8.78334e-08
-8.6134e-07
8.00077e-08
-8.88803e-07
7.07513e-08
-9.11727e-07
6.01115e-08
-9.29641e-07
4.8168e-08
-9.42125e-07
3.50327e-08
-9.48824e-07
2.08502e-08
-9.49453e-07
5.79709e-09
-9.43807e-07
-9.92861e-09
-9.31773e-07
-2.60917e-08
-9.13332e-07
-4.24379e-08
-8.88564e-07
-5.86961e-08
-8.57649e-07
-7.45818e-08
-8.20872e-07
-8.98032e-08
-7.78619e-07
-1.04068e-07
-7.31374e-07
-1.17091e-07
-6.79713e-07
-1.28602e-07
-6.24299e-07
-1.38352e-07
-5.65867e-07
-1.46125e-07
-5.05218e-07
-1.51742e-07
-4.43197e-07
-1.55069e-07
-3.80681e-07
-1.56027e-07
-3.18561e-07
-1.54589e-07
-2.57718e-07
-1.50791e-07
-1.99008e-07
-1.44728e-07
-1.43237e-07
-1.36554e-07
-9.11465e-08
-1.26476e-07
-4.339e-08
-1.14751e-07
-5.22334e-10
-1.01675e-07
3.70213e-08
-8.75763e-08
6.89196e-08
-7.27921e-08
9.49838e-08
-5.76728e-08
1.15154e-07
-4.25588e-08
1.29496e-07
-2.77733e-08
1.38196e-07
-1.36143e-08
1.41552e-07
-3.50133e-10
1.39967e-07
1.1783e-08
1.33936e-07
2.25733e-08
1.24041e-07
3.18279e-08
1.1095e-07
3.9357e-08
9.54098e-08
4.49574e-08
7.82562e-08
4.83953e-08
6.0413e-08
4.93926e-08
4.28987e-08
4.76279e-08
2.68263e-08
4.27643e-08
1.3401e-08
3.45177e-08
3.9347e-09
2.28012e-08
8.08669e-09
8.64874e-10
-5.0119e-09
1.736e-09
-8.44346e-09
1.51759e-09
-7.30171e-09
-5.0213e-10
-3.04134e-09
-4.79065e-09
3.27009e-09
-1.16415e-08
1.08329e-08
-2.12265e-08
1.90822e-08
-3.36372e-08
2.76475e-08
-4.89164e-08
3.63073e-08
-6.70798e-08
4.49465e-08
-8.81304e-08
5.35214e-08
-1.12067e-07
6.20295e-08
-1.38886e-07
7.04875e-08
-1.6858e-07
7.89136e-08
-2.01136e-07
8.7316e-08
-2.36526e-07
9.56847e-08
-2.74702e-07
1.03987e-07
-3.15589e-07
1.12166e-07
-3.59074e-07
1.20138e-07
-4.05006e-07
1.27797e-07
-4.53184e-07
1.35016e-07
-5.03355e-07
1.41648e-07
-5.55213e-07
1.47531e-07
-6.08392e-07
1.52495e-07
-6.62474e-07
1.56361e-07
-7.16984e-07
1.58952e-07
-7.714e-07
1.60095e-07
-8.25155e-07
1.59628e-07
-8.77646e-07
1.57405e-07
-9.28245e-07
1.53301e-07
-9.76307e-07
1.47217e-07
-1.02118e-06
1.39086e-07
-1.06223e-06
1.28878e-07
-1.09882e-06
1.166e-07
-1.13037e-06
1.02299e-07
-1.15632e-06
8.60665e-08
-1.17619e-06
6.8037e-08
-1.18955e-06
4.83876e-08
-1.19603e-06
2.73379e-08
-1.19538e-06
5.14836e-09
-1.18741e-06
-1.78994e-08
-1.17204e-06
-4.14665e-08
-1.14928e-06
-6.52008e-08
-1.11924e-06
-8.87274e-08
-1.08217e-06
-1.11656e-07
-1.03838e-06
-1.33589e-07
-9.88323e-07
-1.5413e-07
-9.32523e-07
-1.72891e-07
-8.71619e-07
-1.89506e-07
-8.06335e-07
-2.03636e-07
-7.37474e-07
-2.14986e-07
-6.65909e-07
-2.23307e-07
-5.92567e-07
-2.28411e-07
-5.18415e-07
-2.3018e-07
-4.44438e-07
-2.28566e-07
-3.71624e-07
-2.23605e-07
-3.00941e-07
-2.15412e-07
-2.33313e-07
-2.04181e-07
-1.69603e-07
-1.90185e-07
-1.1059e-07
-1.73764e-07
-5.69493e-08
-1.55316e-07
-9.2396e-09
-1.35286e-07
3.21144e-08
-1.14146e-07
6.68261e-08
-9.23844e-08
9.47538e-08
-7.04866e-08
1.15902e-07
-4.89214e-08
1.30417e-07
-2.81292e-08
1.38581e-07
-8.51389e-09
1.40804e-07
9.55953e-09
1.37616e-07
2.57615e-08
1.29655e-07
3.97882e-08
1.17666e-07
5.13466e-08
1.02489e-07
6.01344e-08
8.50645e-08
6.58196e-08
6.64316e-08
6.80256e-08
4.77321e-08
6.63274e-08
3.02225e-08
6.02739e-08
1.52976e-08
4.94426e-08
4.55329e-09
3.35456e-08
1.264e-08
2.8813e-10
-5.30001e-09
-3.27561e-10
-7.8278e-09
-2.79631e-09
-4.83294e-09
-7.72566e-09
1.88802e-09
-1.55012e-08
1.10456e-08
-2.63569e-08
2.16886e-08
-4.04267e-08
3.3152e-08
-5.77829e-08
4.50037e-08
-7.84623e-08
5.69867e-08
-1.02484e-07
6.89683e-08
-1.29859e-07
8.08959e-08
-1.60592e-07
9.27627e-08
-1.94684e-07
1.0458e-07
-2.32127e-07
1.16356e-07
-2.72895e-07
1.28084e-07
-3.16941e-07
1.3973e-07
-3.64185e-07
1.51231e-07
-4.14509e-07
1.62489e-07
-4.67747e-07
1.73376e-07
-5.23681e-07
1.83732e-07
-5.82035e-07
1.9337e-07
-6.42471e-07
2.02083e-07
-7.04588e-07
2.09648e-07
-7.67923e-07
2.1583e-07
-8.31955e-07
2.20393e-07
-8.96107e-07
2.23104e-07
-9.59755e-07
2.23744e-07
-1.02224e-06
2.22111e-07
-1.08286e-06
2.18031e-07
-1.14092e-06
2.11361e-07
-1.19571e-06
2.01999e-07
-1.24651e-06
1.89886e-07
-1.29264e-06
1.75011e-07
-1.33345e-06
1.57412e-07
-1.36834e-06
1.37184e-07
-1.39674e-06
1.14471e-07
-1.41818e-06
8.94723e-08
-1.43223e-06
6.24381e-08
-1.43856e-06
3.36687e-08
-1.43692e-06
3.51513e-09
-1.42716e-06
-2.76631e-08
-1.40921e-06
-5.94163e-08
-1.38311e-06
-9.12972e-08
-1.34901e-06
-1.22829e-07
-1.30715e-06
-1.53517e-07
-1.25788e-06
-1.8286e-07
-1.20165e-06
-2.10357e-07
-1.13903e-06
-2.35518e-07
-1.07065e-06
-2.57878e-07
-9.97282e-07
-2.77007e-07
-9.19748e-07
-2.9252e-07
-8.3896e-07
-3.04095e-07
-7.55892e-07
-3.11479e-07
-6.7157e-07
-3.14502e-07
-5.87048e-07
-3.13088e-07
-5.03395e-07
-3.07258e-07
-4.21671e-07
-2.97135e-07
-3.42905e-07
-2.82947e-07
-2.68071e-07
-2.6502e-07
-1.98064e-07
-2.43771e-07
-1.33681e-07
-2.19699e-07
-7.5601e-08
-1.93366e-07
-2.43659e-08
-1.65381e-07
1.96303e-08
-1.36381e-07
5.61503e-08
-1.07007e-07
8.51172e-08
-7.78883e-08
1.06616e-07
-4.96276e-08
1.20887e-07
-2.2785e-08
1.28322e-07
2.12426e-09
1.29454e-07
2.463e-08
1.24946e-07
4.42962e-08
1.15585e-07
6.0707e-08
1.02275e-07
7.34444e-08
8.60293e-08
8.20656e-08
6.79722e-08
8.60827e-08
4.9346e-08
8.49535e-08
3.15294e-08
7.80905e-08
1.60779e-08
6.48942e-08
4.80675e-09
4.48167e-08
1.74468e-08
-4.32143e-10
-4.8679e-09
-2.89355e-09
-5.36639e-09
-8.11647e-09
3.89988e-10
-1.65421e-08
1.03136e-08
-2.84316e-08
2.29351e-08
-4.39282e-08
3.71852e-08
-6.31057e-08
5.23295e-08
-8.60012e-08
6.78993e-08
-1.12636e-07
8.36213e-08
-1.43025e-07
9.93573e-08
-1.77182e-07
1.15053e-07
-2.15117e-07
1.30697e-07
-2.5683e-07
1.46294e-07
-3.02308e-07
1.61834e-07
-3.5151e-07
1.77286e-07
-4.04362e-07
1.92583e-07
-4.60747e-07
2.07616e-07
-5.20497e-07
2.22239e-07
-5.83386e-07
2.36265e-07
-6.49123e-07
2.49469e-07
-7.17352e-07
2.61599e-07
-7.87648e-07
2.72379e-07
-8.59519e-07
2.81518e-07
-9.32407e-07
2.88718e-07
-1.0057e-06
2.93683e-07
-1.07873e-06
2.96132e-07
-1.15078e-06
2.95802e-07
-1.22114e-06
2.92463e-07
-1.28903e-06
2.85922e-07
-1.3537e-06
2.76033e-07
-1.4144e-06
2.62702e-07
-1.4704e-06
2.45889e-07
-1.52101e-06
2.25617e-07
-1.56557e-06
2.01968e-07
-1.60347e-06
1.75089e-07
-1.63419e-06
1.45186e-07
-1.65724e-06
1.12528e-07
-1.67224e-06
7.74389e-08
-1.67887e-06
4.02999e-08
-1.67692e-06
1.56091e-09
-1.66621e-06
-3.83734e-08
-1.64671e-06
-7.89201e-08
-1.61845e-06
-1.19552e-07
-1.58158e-06
-1.59695e-07
-1.53634e-06
-1.98757e-07
-1.48307e-06
-2.36136e-07
-1.4222e-06
-2.71227e-07
-1.35428e-06
-3.0344e-07
-1.27995e-06
-3.32208e-07
-1.19995e-06
-3.57002e-07
-1.11513e-06
-3.77345e-07
-1.0264e-06
-3.92826e-07
-9.34758e-07
-4.03117e-07
-8.41275e-07
-4.07985e-07
-7.47057e-07
-4.07306e-07
-6.53242e-07
-4.01073e-07
-5.60974e-07
-3.89403e-07
-4.7138e-07
-3.72541e-07
-3.85544e-07
-3.50856e-07
-3.04481e-07
-3.24833e-07
-2.29115e-07
-2.95065e-07
-1.6025e-07
-2.62231e-07
-9.85543e-08
-2.27077e-07
-4.45424e-08
-1.90393e-07
1.43893e-09
-1.52988e-07
3.92179e-08
-1.15667e-07
6.87991e-08
-7.92088e-08
9.03637e-08
-4.43497e-08
1.04263e-07
-1.17755e-08
1.11013e-07
1.78809e-08
1.11277e-07
4.40316e-08
1.05865e-07
6.61189e-08
9.57174e-08
8.35921e-08
8.19007e-08
9.58823e-08
6.56066e-08
1.02377e-07
4.81591e-08
1.02401e-07
3.10373e-08
9.52123e-08
1.59206e-08
8.00109e-08
4.76968e-09
5.59676e-08
2.22164e-08
-1.26566e-09
-3.60223e-09
-5.87028e-09
-7.61785e-10
-1.42655e-08
8.78523e-09
-2.66811e-08
2.27292e-08
-4.32132e-08
3.94672e-08
-6.38868e-08
5.78588e-08
-8.86959e-08
7.71386e-08
-1.17629e-07
9.68322e-08
-1.50681e-07
1.16674e-07
-1.87858e-07
1.36534e-07
-2.2917e-07
1.56365e-07
-2.74629e-07
1.76156e-07
-3.2423e-07
1.95895e-07
-3.77949e-07
2.15553e-07
-4.35725e-07
2.35062e-07
-4.97451e-07
2.54309e-07
-5.62968e-07
2.73133e-07
-6.32053e-07
2.91324e-07
-7.04412e-07
3.08624e-07
-7.79683e-07
3.2474e-07
-8.57427e-07
3.39344e-07
-9.37136e-07
3.52088e-07
-1.01823e-06
3.62612e-07
-1.10007e-06
3.70556e-07
-1.18196e-06
3.75572e-07
-1.26316e-06
3.77335e-07
-1.34291e-06
3.7555e-07
-1.42042e-06
3.69971e-07
-1.49489e-06
3.60399e-07
-1.56556e-06
3.46697e-07
-1.63164e-06
3.2879e-07
-1.69243e-06
3.06673e-07
-1.74722e-06
2.80409e-07
-1.79539e-06
2.50133e-07
-1.83635e-06
2.16047e-07
-1.86958e-06
1.78423e-07
-1.89465e-06
1.37595e-07
-1.91117e-06
9.39599e-08
-1.91884e-06
4.79664e-08
-1.91747e-06
1.93419e-10
-1.90685e-06
-4.89956e-08
-1.88695e-06
-9.88152e-08
-1.8578e-06
-1.48702e-07
-1.81951e-06
-1.9799e-07
-1.77227e-06
-2.45994e-07
-1.71639e-06
-2.92012e-07
-1.65228e-06
-3.35344e-07
-1.58042e-06
-3.75294e-07
-1.50144e-06
-4.11191e-07
-1.41604e-06
-4.42401e-07
-1.32504e-06
-4.68342e-07
-1.22936e-06
-4.88507e-07
-1.13001e-06
-5.02474e-07
-1.02806e-06
-5.0993e-07
-9.24681e-07
-5.10686e-07
-8.21069e-07
-5.04685e-07
-7.18451e-07
-4.92022e-07
-6.18052e-07
-4.7294e-07
-5.21072e-07
-4.47835e-07
-4.28655e-07
-4.17251e-07
-3.41856e-07
-3.81864e-07
-2.61622e-07
-3.42465e-07
-1.88759e-07
-2.9994e-07
-1.23914e-07
-2.55238e-07
-6.75574e-08
-2.09344e-07
-1.99736e-08
-1.63251e-07
1.87489e-08
-1.17931e-07
4.87157e-08
-7.43165e-08
7.02235e-08
-3.32832e-08
8.3752e-08
4.35237e-09
8.99533e-08
3.78303e-08
8.9641e-08
6.64312e-08
8.37784e-08
8.94548e-08
7.34709e-08
1.0619e-07
5.99631e-08
1.15885e-07
4.46454e-08
1.17719e-07
2.90753e-08
1.10782e-07
1.50177e-08
9.40685e-08
4.51241e-09
6.64729e-08
2.67289e-08
-2.19556e-09
-1.40666e-09
-9.188e-09
6.23062e-09
-2.11061e-08
2.07033e-08
-3.79206e-08
3.95437e-08
-5.95318e-08
6.10784e-08
-8.58223e-08
8.41492e-08
-1.16689e-07
1.08005e-07
-1.52059e-07
1.32203e-07
-1.91896e-07
1.5651e-07
-2.36186e-07
1.80825e-07
-2.84936e-07
2.05115e-07
-3.38149e-07
2.29369e-07
-3.95815e-07
2.53561e-07
-4.57891e-07
2.77629e-07
-5.24291e-07
3.01462e-07
-5.94873e-07
3.24891e-07
-6.69427e-07
3.47687e-07
-7.4767e-07
3.69567e-07
-8.29244e-07
3.90198e-07
-9.13711e-07
4.09206e-07
-1.00055e-06
4.26188e-07
-1.08919e-06
4.40722e-07
-1.17896e-06
4.52382e-07
-1.26915e-06
4.60752e-07
-1.35902e-06
4.65439e-07
-1.44777e-06
4.66084e-07
-1.5346e-06
4.62377e-07
-1.61869e-06
4.54063e-07
-1.69924e-06
4.40955e-07
-1.77548e-06
4.22934e-07
-1.84665e-06
3.99958e-07
-1.91204e-06
3.72062e-07
-1.97099e-06
3.39357e-07
-2.02288e-06
3.0203e-07
-2.06718e-06
2.60343e-07
-2.10338e-06
2.14625e-07
-2.13106e-06
1.65275e-07
-2.14985e-06
1.12752e-07
-2.15946e-06
5.75717e-08
-2.15963e-06
3.65436e-10
-2.15023e-06
-5.8402e-08
-2.13113e-06
-1.17906e-07
-2.10234e-06
-1.77493e-07
-2.06391e-06
-2.36419e-07
-2.016e-06
-2.93912e-07
-1.95883e-06
-3.49181e-07
-1.89275e-06
-4.01424e-07
-1.8182e-06
-4.49845e-07
-1.73573e-06
-4.93663e-07
-1.646e-06
-5.3213e-07
-1.54979e-06
-5.64551e-07
-1.44799e-06
-5.90304e-07
-1.34161e-06
-6.08859e-07
-1.23173e-06
-6.19802e-07
-1.11957e-06
-6.22854e-07
-1.00636e-06
-6.17892e-07
-8.93423e-07
-6.04958e-07
-7.82087e-07
-5.84276e-07
-6.73671e-07
-5.56251e-07
-5.69457e-07
-5.21466e-07
-4.70649e-07
-4.80671e-07
-3.78349e-07
-4.34765e-07
-2.93518e-07
-3.84771e-07
-2.16955e-07
-3.31801e-07
-1.49272e-07
-2.77027e-07
-9.08795e-08
-2.21644e-07
-4.19766e-08
-1.66834e-07
-2.54785e-09
-1.13745e-07
2.76348e-08
-6.34658e-08
4.90039e-08
-1.70167e-08
6.21862e-08
2.46479e-08
6.79895e-08
6.0628e-08
6.73897e-08
9.00546e-08
6.15211e-08
1.12059e-07
5.16706e-08
1.25735e-07
3.92816e-08
1.30108e-07
2.59696e-08
1.24094e-07
1.35523e-08
1.06486e-07
4.09681e-09
7.59285e-08
3.08257e-08
-3.20731e-09
1.80063e-09
-1.2794e-08
1.58173e-08
-2.85212e-08
3.64305e-08
-5.00665e-08
6.1089e-08
-7.7106e-08
8.81179e-08
-1.09359e-07
1.16402e-07
-1.46612e-07
1.45258e-07
-1.88722e-07
1.74313e-07
-2.3561e-07
2.03398e-07
-2.87244e-07
2.32458e-07
-3.43616e-07
2.61487e-07
-4.0472e-07
2.90473e-07
-4.70532e-07
3.19373e-07
-5.40988e-07
3.48086e-07
-6.15972e-07
3.76446e-07
-6.95297e-07
4.04216e-07
-7.78703e-07
4.31093e-07
-8.65848e-07
4.56712e-07
-9.56305e-07
4.80655e-07
-1.04957e-06
5.02467e-07
-1.14505e-06
5.21668e-07
-1.24209e-06
5.37764e-07
-1.33998e-06
5.50273e-07
-1.43796e-06
5.58728e-07
-1.53522e-06
5.62704e-07
-1.63096e-06
5.61821e-07
-1.72435e-06
5.55765e-07
-1.81457e-06
5.44288e-07
-1.90084e-06
5.27224e-07
-1.98239e-06
5.04483e-07
-2.0585e-06
4.76064e-07
-2.12848e-06
4.42045e-07
-2.19171e-06
4.02587e-07
-2.24761e-06
3.57929e-07
-2.29565e-06
3.08384e-07
-2.33536e-06
2.54338e-07
-2.36633e-06
1.9624e-07
-2.38818e-06
1.34604e-07
-2.40061e-06
7.00029e-08
-2.40332e-06
3.08137e-09
-2.39619e-06
-6.55366e-08
-2.37903e-06
-1.35067e-07
-2.35177e-06
-2.04752e-07
-2.31441e-06
-2.73777e-07
-2.26703e-06
-3.41294e-07
-2.20979e-06
-4.06423e-07
-2.14294e-06
-4.68271e-07
-2.06685e-06
-5.25936e-07
-1.98199e-06
-5.78524e-07
-1.88895e-06
-6.25168e-07
-1.78845e-06
-6.65047e-07
-1.68135e-06
-6.9741e-07
-1.56861e-06
-7.21599e-07
-1.45133e-06
-7.37077e-07
-1.33073e-06
-7.43452e-07
-1.20812e-06
-7.40502e-07
-1.08488e-06
-7.28196e-07
-9.62452e-07
-7.06709e-07
-8.42274e-07
-6.76428e-07
-7.25781e-07
-6.37959e-07
-6.14342e-07
-5.9211e-07
-5.09231e-07
-5.39876e-07
-4.11587e-07
-4.82415e-07
-3.22382e-07
-4.21006e-07
-2.42391e-07
-3.57018e-07
-1.72174e-07
-2.91861e-07
-1.12058e-07
-2.2695e-07
-6.2135e-08
-1.63668e-07
-2.22597e-08
-1.03341e-07
7.94157e-09
-4.7218e-08
2.90598e-08
3.52968e-09
4.18888e-08
4.77991e-08
4.741e-08
8.45333e-08
4.67795e-08
1.12689e-07
4.13189e-08
1.31196e-07
3.25139e-08
1.38913e-07
2.20216e-08
1.34587e-07
1.16884e-08
1.16819e-07
3.5757e-09
8.40412e-08
3.44014e-08
-4.28947e-09
6.0901e-09
-1.6639e-08
2.81668e-08
-3.64042e-08
5.61957e-08
-6.29386e-08
8.76233e-08
-9.56705e-08
1.2085e-07
-1.3414e-07
1.54872e-07
-1.78012e-07
1.89129e-07
-2.27065e-07
2.23366e-07
-2.81174e-07
2.57507e-07
-3.40282e-07
2.91566e-07
-4.04362e-07
3.25567e-07
-4.73396e-07
3.59507e-07
-5.47339e-07
3.93316e-07
-6.26103e-07
4.26849e-07
-7.09533e-07
4.59876e-07
-7.974e-07
4.92083e-07
-8.89388e-07
5.23082e-07
-9.85096e-07
5.5242e-07
-1.08403e-06
5.79593e-07
-1.18563e-06
6.04063e-07
-1.28924e-06
6.25276e-07
-1.39415e-06
6.42674e-07
-1.4996e-06
6.55724e-07
-1.60479e-06
6.63924e-07
-1.70892e-06
6.66825e-07
-1.81114e-06
6.64044e-07
-1.91064e-06
6.5527e-07
-2.00663e-06
6.40279e-07
-2.09834e-06
6.1893e-07
-2.18503e-06
5.91174e-07
-2.26602e-06
5.57049e-07
-2.34065e-06
5.16681e-07
-2.40834e-06
4.70277e-07
-2.46854e-06
4.18123e-07
-2.52073e-06
3.60579e-07
-2.56447e-06
2.98074e-07
-2.59933e-06
2.31102e-07
-2.62494e-06
1.60218e-07
-2.64098e-06
8.60381e-08
-2.64713e-06
9.23724e-09
-2.64319e-06
-6.94783e-08
-2.62895e-06
-1.49311e-07
-2.60426e-06
-2.29436e-07
-2.56906e-06
-3.08979e-07
-2.52334e-06
-3.8702e-07
-2.46716e-06
-4.62602e-07
-2.40069e-06
-5.34739e-07
-2.3242e-06
-6.02429e-07
-2.23805e-06
-6.64665e-07
-2.14277e-06
-7.20453e-07
-2.03898e-06
-7.68838e-07
-1.92746e-06
-8.08925e-07
-1.80915e-06
-8.3991e-07
-1.68512e-06
-8.61109e-07
-1.55659e-06
-8.71989e-07
-1.42489e-06
-8.722e-07
-1.29148e-06
-8.61603e-07
-1.1579e-06
-8.40293e-07
-1.02572e-06
-8.08609e-07
-8.96525e-07
-7.6715e-07
-7.71873e-07
-7.16761e-07
-6.53229e-07
-6.5852e-07
-5.41934e-07
-5.9371e-07
-4.39158e-07
-5.23782e-07
-3.4587e-07
-4.50306e-07
-2.62803e-07
-3.74928e-07
-1.9044e-07
-2.99313e-07
-1.28999e-07
-2.25109e-07
-7.84381e-08
-1.53902e-07
-3.84554e-08
-8.72007e-08
-8.50639e-09
-2.64193e-08
1.2181e-08
2.71116e-08
2.45879e-08
7.21265e-08
2.98871e-08
1.0739e-07
2.94295e-08
1.31653e-07
2.47356e-08
1.43607e-07
1.74943e-08
1.41828e-07
9.56668e-09
1.24747e-07
2.99314e-09
9.06147e-08
3.73945e-08
-5.43e-09
1.15201e-08
-2.06747e-08
4.34115e-08
-4.46503e-08
8.01713e-08
-7.63598e-08
1.19333e-07
-1.14965e-07
1.59455e-07
-1.59815e-07
1.99722e-07
-2.10443e-07
2.39757e-07
-2.66545e-07
2.79468e-07
-3.27947e-07
3.18909e-07
-3.94559e-07
3.58178e-07
-4.66337e-07
3.97345e-07
-5.43241e-07
4.3641e-07
-6.25204e-07
4.75279e-07
-7.12105e-07
5.13751e-07
-8.03752e-07
5.51523e-07
-8.99868e-07
5.88199e-07
-1.00008e-06
6.23298e-07
-1.10394e-06
6.56276e-07
-1.21089e-06
6.86543e-07
-1.32031e-06
7.13481e-07
-1.4315e-06
7.36464e-07
-1.54371e-06
7.54885e-07
-1.65615e-06
7.68166e-07
-1.76801e-06
7.75783e-07
-1.87846e-06
7.7728e-07
-1.9867e-06
7.72276e-07
-2.09191e-06
7.60482e-07
-2.19333e-06
7.41699e-07
-2.29022e-06
7.15823e-07
-2.38189e-06
6.82845e-07
-2.46769e-06
6.42847e-07
-2.54701e-06
5.95997e-07
-2.61928e-06
5.42546e-07
-2.68397e-06
4.82821e-07
-2.74061e-06
4.17219e-07
-2.78875e-06
3.46206e-07
-2.82795e-06
2.70309e-07
-2.85785e-06
1.90117e-07
-2.87809e-06
1.06277e-07
-2.88835e-06
1.94928e-08
-2.88834e-06
-6.94821e-08
-2.87783e-06
-1.59824e-07
-2.85661e-06
-2.50662e-07
-2.82452e-06
-3.41069e-07
-2.78147e-06
-4.30069e-07
-2.72743e-06
-5.16633e-07
-2.66248e-06
-5.99696e-07
-2.58675e-06
-6.78157e-07
-2.50052e-06
-7.50898e-07
-2.40417e-06
-8.16801e-07
-2.29824e-06
-8.74769e-07
-2.18341e-06
-9.23753e-07
-2.06054e-06
-9.62783e-07
-1.93064e-06
-9.91007e-07
-1.79491e-06
-1.00772e-06
-1.65469e-06
-1.01241e-06
-1.51149e-06
-1.0048e-06
-1.36693e-06
-9.84857e-07
-1.2227e-06
-9.52835e-07
-1.08056e-06
-9.0929e-07
-9.42252e-07
-8.55072e-07
-8.09452e-07
-7.9132e-07
-6.83731e-07
-7.19431e-07
-5.66495e-07
-6.41018e-07
-4.58935e-07
-5.57866e-07
-3.61997e-07
-4.71866e-07
-2.76348e-07
-3.84962e-07
-2.02365e-07
-2.99091e-07
-1.4013e-07
-2.16138e-07
-8.94329e-08
-1.37898e-07
-4.97898e-08
-6.60624e-08
-2.04597e-08
-2.21846e-09
-4.68142e-10
5.21349e-08
1.13706e-08
9.55511e-08
1.64334e-08
1.2659e-07
1.62726e-08
1.43767e-07
1.26045e-08
1.45496e-07
7.30199e-09
1.30049e-07
2.38437e-09
9.55323e-08
3.97789e-08
-6.61533e-09
1.81354e-08
-2.48502e-08
6.16464e-08
-5.31514e-08
1.08473e-07
-9.01503e-08
1.56332e-07
-1.34728e-07
2.04033e-07
-1.86032e-07
2.51026e-07
-2.4346e-07
2.97185e-07
-3.06623e-07
3.42631e-07
-3.75291e-07
3.87578e-07
-4.49344e-07
4.3223e-07
-5.2871e-07
4.76711e-07
-6.13328e-07
5.21028e-07
-7.03102e-07
5.65053e-07
-7.97879e-07
6.08527e-07
-8.97423e-07
6.51067e-07
-1.00141e-06
6.92185e-07
-1.10942e-06
7.31307e-07
-1.22094e-06
7.67795e-07
-1.33537e-06
8.00975e-07
-1.45204e-06
8.30154e-07
-1.57023e-06
8.54647e-07
-1.68914e-06
8.738e-07
-1.80799e-06
8.8701e-07
-1.92594e-06
8.9374e-07
-2.0422e-06
8.93536e-07
-2.15596e-06
8.86036e-07
-2.26645e-06
8.70973e-07
-2.37294e-06
8.48185e-07
-2.47472e-06
8.17607e-07
-2.57115e-06
7.7927e-07
-2.6616e-06
7.33297e-07
-2.7455e-06
6.79898e-07
-2.82231e-06
6.19361e-07
-2.89154e-06
5.52048e-07
-2.95271e-06
4.78389e-07
-3.00538e-06
3.98878e-07
-3.04914e-06
3.14069e-07
-3.0836e-06
2.24575e-07
-3.10839e-06
1.31066e-07
-3.12316e-06
3.42691e-08
-3.12761e-06
-6.50332e-08
-3.12144e-06
-1.65995e-07
-3.10439e-06
-2.67714e-07
-3.07623e-06
-3.69227e-07
-3.03679e-06
-4.6951e-07
-2.98594e-06
-5.6748e-07
-2.92364e-06
-6.62001e-07
-2.84991e-06
-7.51889e-07
-2.76488e-06
-8.35922e-07
-2.66882e-06
-9.12862e-07
-2.56212e-06
-9.81468e-07
-2.44534e-06
-1.04053e-06
-2.31922e-06
-1.08891e-06
-2.18468e-06
-1.12555e-06
-2.04284e-06
-1.14955e-06
-1.89504e-06
-1.16022e-06
-1.74279e-06
-1.15706e-06
-1.58775e-06
-1.13989e-06
-1.43175e-06
-1.10883e-06
-1.27669e-06
-1.06435e-06
-1.1245e-06
-1.00726e-06
-9.77105e-07
-9.38717e-07
-8.36324e-07
-8.60213e-07
-7.03828e-07
-7.73514e-07
-5.81078e-07
-6.80616e-07
-4.69271e-07
-5.83674e-07
-3.69301e-07
-4.84931e-07
-2.81743e-07
-3.8665e-07
-2.06834e-07
-2.91046e-07
-1.44485e-07
-2.00247e-07
-9.42898e-08
-1.16258e-07
-5.55525e-08
-4.09558e-08
-2.73132e-08
2.38956e-08
-8.3775e-09
7.66153e-08
2.65616e-09
1.15557e-07
7.37213e-09
1.39051e-07
7.51706e-09
1.45351e-07
4.98098e-09
1.32585e-07
1.77571e-09
9.87376e-08
4.15546e-08
-7.83039e-09
2.59658e-08
-2.91106e-08
8.29266e-08
-6.17939e-08
1.41156e-07
-1.04124e-07
1.98662e-07
-1.5469e-07
2.546e-07
-2.12435e-07
3.0877e-07
-2.76617e-07
3.61367e-07
-3.46757e-07
4.12772e-07
-4.22573e-07
4.63394e-07
-5.03906e-07
5.13562e-07
-5.90658e-07
5.63463e-07
-6.8274e-07
6.1311e-07
-7.80026e-07
6.6234e-07
-8.82325e-07
7.10826e-07
-9.89359e-07
7.58101e-07
-1.10076e-06
8.03582e-07
-1.21605e-06
8.46598e-07
-1.33467e-06
8.86422e-07
-1.456e-06
9.22298e-07
-1.57931e-06
9.53466e-07
-1.70385e-06
9.79192e-07
-1.82884e-06
9.98788e-07
-1.95347e-06
1.01163e-06
-2.07692e-06
1.01719e-06
-2.19841e-06
1.01503e-06
-2.31716e-06
1.00479e-06
-2.43244e-06
9.86252e-07
-2.54354e-06
9.59289e-07
-2.64981e-06
9.23875e-07
-2.75062e-06
8.80081e-07
-2.8454e-06
8.28071e-07
-2.93359e-06
7.68091e-07
-3.01469e-06
7.00464e-07
-3.08823e-06
6.25584e-07
-3.15375e-06
5.43907e-07
-3.21082e-06
4.55954e-07
-3.25905e-06
3.623e-07
-3.29806e-06
2.63577e-07
-3.32746e-06
1.60473e-07
-3.34692e-06
5.37275e-08
-3.3561e-06
-5.58594e-08
-3.35466e-06
-1.67429e-07
-3.34232e-06
-2.80061e-07
-3.31877e-06
-3.92771e-07
-3.28377e-06
-5.04508e-07
-3.2371e-06
-6.14149e-07
-3.1786e-06
-7.20508e-07
-3.10815e-06
-8.22332e-07
-3.02576e-06
-9.18314e-07
-2.93152e-06
-1.0071e-06
-2.82566e-06
-1.08732e-06
-2.70859e-06
-1.15761e-06
-2.58087e-06
-1.21663e-06
-2.44329e-06
-1.26312e-06
-2.29687e-06
-1.29597e-06
-2.14286e-06
-1.31423e-06
-1.98273e-06
-1.31719e-06
-1.81817e-06
-1.30445e-06
-1.65109e-06
-1.27592e-06
-1.48351e-06
-1.23193e-06
-1.31756e-06
-1.1732e-06
-1.15541e-06
-1.10087e-06
-9.99153e-07
-1.01647e-06
-8.50763e-07
-9.21904e-07
-7.1201e-07
-8.19368e-07
-5.84395e-07
-7.11289e-07
-4.69094e-07
-6.00233e-07
-3.66924e-07
-4.8882e-07
-2.78326e-07
-3.79644e-07
-2.03363e-07
-2.75209e-07
-1.4174e-07
-1.77881e-07
-9.28228e-08
-8.98729e-08
-5.56787e-08
-1.32485e-08
-2.91101e-08
5.00467e-08
-1.16913e-08
9.81381e-08
-1.80238e-09
1.29162e-07
2.34142e-09
1.41207e-07
2.66135e-09
1.32265e-07
1.18448e-09
1.00214e-07
4.27391e-08
-9.05837e-09
3.50242e-08
-3.33968e-08
1.07265e-07
-7.04577e-08
1.78217e-07
-1.18086e-07
2.4629e-07
-1.74578e-07
3.11091e-07
-2.38663e-07
3.72856e-07
-3.09464e-07
4.32168e-07
-3.86411e-07
4.89719e-07
-4.69164e-07
5.46147e-07
-5.57526e-07
6.01925e-07
-6.51372e-07
6.57309e-07
-7.50579e-07
7.12318e-07
-8.5499e-07
7.6675e-07
-9.64372e-07
8.20209e-07
-1.07841e-06
8.72136e-07
-1.19668e-06
9.2185e-07
-1.31867e-06
9.68588e-07
-1.44378e-06
1.01154e-06
-1.57134e-06
1.04986e-06
-1.70062e-06
1.08275e-06
-1.83085e-06
1.10942e-06
-1.96122e-06
1.12917e-06
-2.09095e-06
1.14136e-06
-2.21924e-06
1.14548e-06
-2.34532e-06
1.1411e-06
-2.46844e-06
1.12791e-06
-2.58791e-06
1.10572e-06
-2.70304e-06
1.07443e-06
-2.81323e-06
1.03406e-06
-2.91787e-06
9.84722e-07
-3.01642e-06
9.26622e-07
-3.10837e-06
8.6004e-07
-3.19323e-06
7.85333e-07
-3.27058e-06
7.02925e-07
-3.33997e-06
6.133e-07
-3.40102e-06
5.17002e-07
-3.45334e-06
4.14627e-07
-3.49659e-06
3.06821e-07
-3.5304e-06
1.94284e-07
-3.55444e-06
7.77649e-08
-3.56836e-06
-4.19329e-08
-3.57184e-06
-1.63947e-07
-3.56455e-06
-2.87358e-07
-3.54614e-06
-4.11177e-07
-3.51631e-06
-5.34343e-07
-3.47474e-06
-6.5572e-07
-3.42115e-06
-7.74093e-07
-3.35532e-06
-8.88163e-07
-3.27708e-06
-9.96559e-07
-3.18634e-06
-1.09784e-06
-3.08315e-06
-1.19051e-06
-2.96771e-06
-1.27305e-06
-2.8404e-06
-1.34394e-06
-2.7018e-06
-1.40172e-06
-2.55276e-06
-1.44501e-06
-2.3944e-06
-1.4726e-06
-2.22808e-06
-1.48351e-06
-2.05548e-06
-1.47705e-06
-1.87851e-06
-1.45289e-06