/*--------------------------------*- C++ -*----------------------------------*\
  =========                 |
  \\      /  F ield         | OpenFOAM: The Open Source CFD Toolbox
   \\    /   O peration     | Website:  https://openfoam.org
    \\  /    A nd           | Version:  7
     \\/     M anipulation  |
\*---------------------------------------------------------------------------*/
FoamFile
{
    version     2.0;
    format      ascii;
    class       volScalarField;
    location    "1.075";
    object      p;
}
// * * * * * * * * * * * * * * * * * * * * * * * * * * * * * * * * * * * * * //

dimensions      [0 2 -2 0 0 0 0];

internalField   nonuniform List<scalar> 
6400
(
3.80076e-06
2.9606e-06
-0.000109464
-0.00032924
-0.00062982
-0.000987328
-0.00138065
-0.00179147
-0.00220441
-0.0026068
-0.00298833
-0.00334066
-0.00365712
-0.0039324
-0.0041624
-0.00434394
-0.00447468
-0.00455294
-0.00457763
-0.00454812
-0.00446418
-0.0043259
-0.0041337
-0.00388822
-0.00359037
-0.00324124
-0.00284214
-0.00239457
-0.00190024
-0.00136106
-0.000779147
-0.000156847
0.000503272
0.00119841
0.00192551
0.00268127
0.00346214
0.00426431
0.00508371
0.00591604
0.00675677
0.00760114
0.00844422
0.00928092
0.010106
0.0109141
0.0117
0.0124582
0.0131835
0.0138707
0.0145149
0.0151111
0.0156551
0.0161427
0.0165703
0.0169348
0.0172336
0.0174648
0.017627
0.0177199
0.0177435
0.017699
0.0175884
0.0174143
0.0171807
0.0168922
0.0165545
0.0161743
0.0157593
0.0153185
0.0148619
0.0144009
0.013948
0.0135174
0.0131247
0.0127869
0.0125214
0.0123455
0.0122748
0.0122985
9.8556e-06
6.89143e-06
-9.29839e-05
-0.000279601
-0.00053139
-0.000831258
-0.00116314
-0.00151223
-0.00186551
-0.00221184
-0.00254184
-0.00284773
-0.00312312
-0.00336283
-0.00356273
-0.00371957
-0.00383087
-0.00389478
-0.00391
-0.00387572
-0.00379151
-0.00365729
-0.00347327
-0.00323994
-0.00295803
-0.00262849
-0.00225248
-0.00183137
-0.00136672
-0.000860309
-0.000314121
0.000269649
0.00088858
0.00154003
0.00222113
0.00292876
0.00365957
0.00440999
0.0051762
0.00595417
0.00673966
0.00752824
0.00831531
0.00909613
0.00986586
0.0106196
0.0113523
0.0120592
0.0127354
0.013376
0.0139767
0.0145329
0.0150408
0.0154966
0.0158971
0.0162395
0.0165215
0.0167415
0.0168985
0.0169921
0.0170227
0.0169914
0.0169002
0.0167519
0.01655
0.0162991
0.0160046
0.0156728
0.0153108
0.014927
0.0145305
0.0141315
0.0137412
0.0133717
0.0130361
0.0127479
0.01252
0.0123649
0.0122979
0.0123219
0.00012342
0.000107044
6.69103e-06
-0.000165537
-0.000391546
-0.0006578
-0.000951428
-0.00126016
-0.00157293
-0.00188002
-0.00217308
-0.00244501
-0.00268987
-0.00290275
-0.00307969
-0.0032175
-0.0033137
-0.00336639
-0.00337421
-0.00333622
-0.0032519
-0.00312104
-0.00294374
-0.00272037
-0.00245153
-0.00213804
-0.00178095
-0.0013815
-0.000941139
-0.00046152
5.55022e-05
0.000607862
0.00119328
0.00180927
0.0024531
0.00312183
0.0038123
0.00452113
0.00524471
0.00597924
0.00672071
0.00746496
0.00820765
0.00894433
0.00967045
0.0103814
0.0110726
0.0117393
0.0123771
0.0129816
0.0135484
0.0140737
0.0145536
0.0149848
0.0153643
0.0156895
0.0159586
0.0161698
0.0163225
0.0164164
0.0164519
0.0164302
0.0163533
0.0162237
0.0160451
0.0158217
0.0155586
0.0152617
0.0149377
0.0145943
0.0142399
0.0138836
0.0135354
0.0132059
0.0129064
0.012648
0.0124415
0.0122969
0.0122304
0.0122518
0.000344368
0.000294385
0.000178164
4.75168e-06
-0.000212716
-0.000462946
-0.000735171
-0.00101914
-0.00130545
-0.00158573
-0.00185263
-0.00209982
-0.00232194
-0.00251449
-0.00267376
-0.00279676
-0.00288112
-0.00292499
-0.00292701
-0.00288625
-0.0028021
-0.00267432
-0.00250292
-0.00228818
-0.00203061
-0.00173094
-0.0013901
-0.00100923
-0.000589677
-0.000132962
0.000359175
0.000884797
0.00144176
0.00202771
0.00264007
0.00327607
0.0039327
0.00460676
0.00529483
0.00599329
0.00669836
0.00740607
0.00811232
0.00881289
0.00950346
0.0101797
0.0108371
0.0114715
0.0120784
0.0126538
0.0131936
0.0136941
0.0141517
0.0145633
0.0149261
0.0152377
0.0154963
0.0157004
0.0158494
0.0159431
0.015982
0.0159671
0.0159006
0.0157848
0.0156231
0.0154197
0.0151792
0.0149074
0.0146103
0.0142952
0.0139695
0.0136418
0.0133208
0.0130159
0.0127369
0.0124936
0.0122953
0.012151
0.0120751
0.0120777
0.000648563
0.000548578
0.000404286
0.000219137
-3.287e-07
-0.000244793
-0.000505253
-0.000773302
-0.00104112
-0.0013016
-0.00154843
-0.00177609
-0.00197986
-0.00215571
-0.00230031
-0.00241091
-0.0024853
-0.00252178
-0.00251905
-0.00247618
-0.0023926
-0.002268
-0.00210236
-0.0018959
-0.00164903
-0.00136242
-0.00103689
-0.000673482
-0.00027342
0.000161878
0.0006308
0.00113154
0.00166208
0.00222022
0.00280353
0.0034094
0.00403497
0.00467722
0.0053329
0.00599859
0.00667068
0.00734542
0.00801889
0.00868708
0.00934589
0.00999115
0.0106187
0.0112244
0.0118041
0.0123539
0.01287
0.0133487
0.0137868
0.0141813
0.0145294
0.014829
0.0150784
0.0152762
0.0154217
0.0155148
0.0155561
0.0155466
0.0154882
0.0153833
0.0152351
0.0150474
0.0148248
0.0145724
0.0142961
0.0140022
0.0136978
0.0133905
0.0130881
0.0127989
0.0125314
0.0122941
0.0120951
0.0119426
0.0118469
0.0118149
0.00101387
0.000853669
0.000672372
0.000467091
0.000237052
-1.01561e-05
-0.000267015
-0.000526793
-0.000783131
-0.00103013
-0.00126248
-0.0014755
-0.00166511
-0.00182781
-0.00196069
-0.00206131
-0.00212769
-0.00215829
-0.00215192
-0.00210773
-0.00202517
-0.00190393
-0.00174398
-0.00154547
-0.00130878
-0.00103447
-0.000723305
-0.00037621
5.69312e-06
0.000421103
0.000868529
0.00134629
0.00185252
0.00238513
0.00294188
0.00352026
0.00411762
0.00473108
0.00535755
0.0059938
0.00663638
0.00728172
0.00792609
0.00856564
0.00919646
0.00981456
0.0104159
0.0109966
0.0115527
0.0120804
0.012576
0.0130361
0.0134574
0.0138372
0.0141728
0.0144621
0.0147034
0.0148956
0.0150379
0.0151302
0.0151731
0.0151675
0.0151152
0.0150185
0.0148805
0.0147047
0.0144953
0.0142572
0.0139957
0.0137168
0.0134268
0.0131326
0.0128411
0.0125597
0.0122957
0.0120564
0.0118491
0.0116807
0.0115566
0.0114792
0.00142078
0.00119468
0.00097031
0.000738422
0.000490897
0.000233873
-2.63557e-05
-0.000284537
-0.000535635
-0.00077488
-0.00099792
-0.00120087
-0.00138032
-0.00153334
-0.00165741
-0.00175048
-0.00181082
-0.0018371
-0.00182828
-0.00178361
-0.00170258
-0.00158494
-0.00143063
-0.00123979
-0.00101274
-0.000749982
-0.000452198
-0.000120229
0.000244909
0.000642027
0.00106975
0.00152654
0.00201064
0.00252013
0.00305287
0.00360656
0.00417865
0.00476643
0.00536698
0.0059772
0.00659383
0.00721343
0.00783244
0.00844717
0.00905385
0.00964864
0.0102277
0.0107872
0.0113232
0.0118323
0.0123107
0.0127552
0.0131626
0.0135301
0.0138553
0.0141361
0.0143707
0.0145581
0.0146976
0.0147889
0.0148326
0.0148296
0.0147816
0.0146906
0.0145596
0.014392
0.0141915
0.0139629
0.0137109
0.013441
0.0131591
0.0128712
0.0125836
0.0123028
0.0120352
0.011787
0.0115646
0.0113741
0.0112153
0.0110857
0.00185228
0.00155765
0.00128635
0.00102319
0.000752964
0.00048062
0.00021145
-5.05959e-05
-0.000301667
-0.000538022
-0.000756208
-0.000953113
-0.00112598
-0.00127242
-0.00139038
-0.00147816
-0.00153434
-0.00155781
-0.0015477
-0.00150339
-0.00142446
-0.00131069
-0.00116203
-0.000978632
-0.000760768
-0.000508891
-0.000223605
9.43322e-05
0.000444001
0.00082432
0.00123404
0.00167172
0.00213578
0.00262439
0.00313559
0.00366719
0.0042168
0.00478186
0.00535959
0.00594703
0.00654107
0.0071384
0.00773561
0.00832912
0.0089153
0.00949042
0.0100507
0.0105925
0.0111121
0.0116058
0.0120702
0.012502
0.0128981
0.0132559
0.0135728
0.0138467
0.014076
0.0142595
0.0143966
0.0144869
0.0145308
0.0145294
0.0144839
0.0143966
0.01427
0.0141072
0.013912
0.0136884
0.0134412
0.0131752
0.0128958
0.0126084
0.0123187
0.0120324
0.0117552
0.0114922
0.0112492
0.0110317
0.0108338
0.0106481
0.00229384
0.00192997
0.00160961
0.00131199
0.00101525
0.000723402
0.000440926
0.00017063
-8.46927e-05
-0.000322231
-0.00053936
-0.000733696
-0.000903115
-0.00104576
-0.00116003
-0.0012446
-0.00129836
-0.00132044
-0.00131017
-0.00126705
-0.00119078
-0.00108118
-0.000938259
-0.000762131
-0.000553068
-0.00031147
-3.78769e-05
0.000267033
0.000602435
0.00096735
0.00136064
0.001781
0.00222696
0.00269684
0.0031888
0.00370079
0.00423057
0.0047757
0.00533355
0.00590129
0.00647592
0.00705427
0.00763303
0.00820875
0.00877788
0.0093368
0.00988184
0.0104093
0.0109156
0.0113972
0.0118506
0.0122726
0.0126601
0.0130104
0.013321
0.0135898
0.0138152
0.0139958
0.014131
0.0142204
0.0142643
0.0142635
0.0142194
0.0141338
0.0140093
0.0138486
0.0136553
0.0134332
0.0131865
0.0129199
0.0126382
0.0123463
0.0120494
0.0117525
0.0114604
0.0111779
0.01091
0.0106617
0.0104218
0.0101782
0.00273316
0.00230055
0.00193014
0.00159603
0.00127009
0.000955614
0.000656458
0.000374427
0.000111374
-0.000130726
-0.000350005
-0.000544758
-0.000713457
-0.000854761
-0.00096752
-0.00105077
-0.00110372
-0.00112574
-0.00111636
-0.00107525
-0.00100219
-0.000897096
-0.000759993
-0.000591017
-0.000390419
-0.000158561
0.000104077
0.000396894
0.000719152
0.00106998
0.00144834
0.00185305
0.00228277
0.00273595
0.00321087
0.00370562
0.00421809
0.00474596
0.00528673
0.0058377
0.00639597
0.00695849
0.00752203
0.00808324
0.00863864
0.00918468
0.00971774
0.0102342
0.0107305
0.011203
0.0116484
0.0120633
0.0124448
0.0127899
0.0130964
0.0133619
0.0135847
0.0137635
0.0138975
0.0139863
0.01403
0.0140294
0.0139855
0.0139003
0.0137758
0.0136149
0.0134207
0.0131968
0.0129472
0.012676
0.0123878
0.0120871
0.0117785
0.0114666
0.0111556
0.0108495
0.0105533
0.0102714
0.00998763
0.00968549
0.00315973
0.00265957
0.00223893
0.00186715
0.0015102
0.00117085
0.000852457
0.000555967
0.000282399
3.29749e-05
-0.000191127
-0.000388827
-0.000559158
-0.000701269
-0.000814437
-0.000898062
-0.000951656
-0.000974845
-0.000967356
-0.000929007
-0.000859705
-0.000759436
-0.000628268
-0.000466353
-0.000273929
-5.13225e-05
0.000201041
0.00048263
0.000792797
0.00113076
0.00149561
0.00188627
0.00230151
0.00273991
0.00319989
0.00367965
0.00417722
0.00469039
0.00521678
0.00575378
0.00629862
0.00684832
0.00739974
0.0079496
0.00849447
0.00903085
0.00955515
0.0100638
0.0105531
0.0110196
0.0114599
0.0118705
0.0122485
0.0125909
0.0128953
0.0131593
0.0133812
0.0135594
0.0136931
0.0137818
0.0138254
0.0138246
0.0137803
0.0136942
0.0135683
0.0134051
0.0132076
0.0129792
0.0127235
0.0124445
0.0121463
0.0118331
0.011509
0.0111784
0.0108449
0.0105121
0.0101848
0.00986717
0.00953835
0.00917788
0.00356446
0.0029983
0.00252782
0.00211781
0.00172873
0.00136294
0.00102343
0.000710398
0.000424121
0.000165148
-6.59723e-05
-0.000268737
-0.000442697
-0.000587466
-0.000702726
-0.000788225
-0.000843773
-0.000869241
-0.000864552
-0.000829681
-0.00076465
-0.000669522
-0.000544414
-0.000389492
-0.000204986
8.80841e-06
0.000251519
0.000522684
0.000821741
0.00114801
0.00150067
0.00187877
0.0022812
0.00270667
0.0031537
0.00362063
0.00410559
0.0046065
0.00512108
0.00564682
0.00618104
0.00672083
0.00726312
0.00780469
0.00834213
0.00887198
0.00939066
0.00989456
0.01038
0.0108435
0.0112815
0.0116907
0.0120678
0.0124099
0.0127144
0.0129789
0.0132014
0.0133805
0.0135149
0.0136042
0.013648
0.013647
0.0136018
0.013514
0.0133854
0.0132184
0.0130157
0.0127805
0.0125161
0.0122264
0.0119151
0.0115862
0.0112435
0.010891
0.0105321
0.0101699
0.00980932
0.00945439
0.00907987
0.00866158
0.00393936
0.00330898
0.00278936
0.00234102
0.0019192
0.00152596
0.00116401
0.000832882
0.000532204
0.000261919
2.20029e-05
-0.000187571
-0.000366837
-0.000515842
-0.000634648
-0.000723335
-0.000781997
-0.000810739
-0.00080968
-0.000778943
-0.000718661
-0.00062898
-0.000510058
-0.000362082
-0.000185271
2.01106e-05
0.00025374
0.000515225
0.000804084
0.00111973
0.00146146
0.00182843
0.00221963
0.00263389
0.00306988
0.00352602
0.00400057
0.00449156
0.0049968
0.00551388
0.00604018
0.00657287
0.00710894
0.00764518
0.00817823
0.00870461
0.00922075
0.00972298
0.0102077
0.0106711
0.0111098
0.0115202
0.0118991
0.0122434
0.0125503
0.0128174
0.0130425
0.0132238
0.0133603
0.013451
0.0134957
0.0134946
0.0134484
0.0133584
0.0132263
0.0130542
0.0128447
0.0126007
0.0123256
0.0120227
0.0116958
0.0113484
0.0109845
0.0106075
0.0102206
0.00982689
0.00943118
0.00903771
0.00861706
0.00814155
0.00427734
0.00358458
0.00301674
0.00253031
0.00207553
0.00165425
0.00126897
0.000918628
0.000602279
0.000319313
6.9186e-05
-0.000148617
-0.000334578
-0.000489145
-0.000612739
-0.000705752
-0.000768544
-0.000801447
-0.00080476
-0.000778753
-0.000723666
-0.000639717
-0.00052711
-0.000386046
-0.000216734
-1.94081e-05
0.000205662
0.00045815
0.00073766
0.0010437
0.00137567
0.00173282
0.00211429
0.002519
0.00294573
0.00339305
0.00385929
0.00434259
0.00484086
0.00535177
0.00587277
0.00640109
0.00693375
0.00746756
0.00799918
0.00852512
0.00904175
0.00954538
0.0100323
0.0104987
0.010941
0.0113556
0.011739
0.0120881
0.0123998
0.0126717
0.0129012
0.0130867
0.0132266
0.01332
0.0133663
0.0133657
0.0133187
0.0132263
0.0130901
0.012912
0.0126945
0.0124403
0.0121525
0.0118346
0.0114898
0.0111218
0.0107342
0.0103304
0.0099135
0.00948634
0.00905403
0.00862099
0.00815388
0.00762169
0.00457197
0.00381868
0.0032037
0.00267962
0.00219195
0.00174237
0.00133322
0.000962916
0.000629975
0.000333293
7.18511e-05
-0.000155317
-0.000349105
-0.000510338
-0.000639769
-0.000738082
-0.000805889
-0.000843731
-0.00085208
-0.000831341
-0.000781853
-0.000703905
-0.000597739
-0.000463567
-0.000301587
-0.000111998
0.000104984
0.000349102
0.000620043
0.00091741
0.0012407
0.0015893
0.00196243
0.00235914
0.00277833
0.00321867
0.0036786
0.00415636
0.00464994
0.00515709
0.00567532
0.00620191
0.00673391
0.00726814
0.00780124
0.00832971
0.00884986
0.00935794
0.00985012
0.0103226
0.0107715
0.0111931
0.0115839
0.0119404
0.0122596
0.0125386
0.0127749
0.0129663
0.0131114
0.0132088
0.013258
0.0132587
0.0132112
0.0131166
0.0129761
0.0127915
0.0125651
0.0122995
0.0119978
0.011663
0.0112986
0.010908
0.0104948
0.0100623
0.0096135
0.00915129
0.00868105
0.00820751
0.00769357
0.00710503
0.00481741
0.00400538
0.0033444
0.00278329
0.00226301
0.00178513
0.00135184
0.000961104
0.000610941
0.000299789
2.61913e-05
-0.000211232
-0.000413758
-0.000582561
-0.000718705
-0.000823145
-0.000896728
-0.000940189
-0.000954162
-0.000939173
-0.000895657
-0.000823961
-0.000724361
-0.000597076
-0.000442288
-0.000260155
-5.08402e-05
0.000185475
0.00044856
0.000738115
0.00105375
0.00139494
0.00176104
0.00215122
0.00256447
0.00299959
0.00345511
0.00392938
0.00442045
0.00492617
0.00544409
0.00597152
0.00650554
0.00704297
0.00758045
0.00811439
0.00864109
0.00915667
0.00965723
0.0101388
0.0105974
0.0110291
0.0114302
0.0117971
0.0121264
0.0124151
0.0126605
0.0128601
0.0130123
0.0131155
0.0131688
0.0131719
0.0131248
0.0130284
0.0128836
0.0126924
0.0124566
0.0121789
0.011862
0.0115092
0.0111236
0.0107088
0.0102683
0.00980532
0.00932307
0.00882434
0.00831495
0.0078
0.00723876
0.00659391
0.0050082
0.00413919
0.00343338
0.00283596
0.00228352
0.00177752
0.00132006
0.000908644
0.000540859
0.000214715
-7.16538e-05
-0.000320013
-0.000531997
-0.000709102
-0.000852682
-0.000963946
-0.00104395
-0.00109363
-0.00111374
-0.00110494
-0.00106773
-0.00100253
-0.000909619
-0.000789232
-0.000641523
-0.000466609
-0.000264591
-3.55764e-05
0.000220295
0.000502821
0.000811715
0.00114658
0.00150686
0.00189187
0.0023007
0.00273225
0.00318518
0.0036579
0.00414857
0.00465509
0.00517507
0.00570585
0.00624452
0.00678791
0.00733261
0.00787499
0.00841125
0.00893743
0.00944949
0.0099433
0.0104147
0.0108597
0.0112742
0.0116545
0.0119969
0.0122981
0.0125551
0.0127655
0.0129269
0.0130378
0.013097
0.0131039
0.0130583
0.0129608
0.0128124
0.0126145
0.0123691
0.0120787
0.0117461
0.0113741
0.0109663
0.0105259
0.0100565
0.00956168
0.00904446
0.00850786
0.00795811
0.00740079
0.00679161
0.00609018
0.00513926
0.00421495
0.00346549
0.00283256
0.00224852
0.00171473
0.00123322
0.000801076
0.000415463
7.39942e-05
-0.000225577
-0.000485376
-0.000707372
-0.000893363
-0.00104497
-0.00116364
-0.00125063
-0.00130703
-0.00133374
-0.00133151
-0.00130093
-0.00124245
-0.00115636
-0.00104291
-0.000902197
-0.000734309
-0.000539274
-0.00031712
-6.78949e-05
0.000208304
0.000511298
0.000840802
0.0011964
0.00157749
0.00198331
0.00241285
0.00286489
0.00333793
0.0038302
0.00433967
0.00486401
0.00540058
0.00594649
0.00649854
0.00705329
0.00760705
0.00815592
0.00869584
0.0092226
0.00973192
0.0102195
0.010681
0.0111121
0.011509
0.0118676
0.0121843
0.0124559
0.0126796
0.0128528
0.0129737
0.0130408
0.0130532
0.0130105
0.0129131
0.0127617
0.0125577
0.012303
0.0119997
0.0116507
0.011259
0.0108279
0.0103608
0.0098614
0.00933329
0.00877976
0.00820395
0.00761264
0.00701191
0.00635393
0.00559525
0.00520575
0.00422776
0.00343585
0.00276825
0.00215325
0.00159212
0.00108681
0.000634031
0.000230535
-0.000126434
-0.000439484
-0.000711081
-0.000943506
-0.00113884
-0.00129895
-0.00142551
-0.00151995
-0.00158352
-0.00161724
-0.00162195
-0.0015983
-0.00154675
-0.00146764
-0.00136116
-0.00122741
-0.0010664
-0.0008781
-0.000662439
-0.000419371
-0.000148887
0.000148951
0.000473977
0.000825893
0.00120423
0.00160834
0.00203733
0.00249008
0.00296518
0.00346097
0.00397546
0.00450638
0.00505112
0.00560679
0.00617018
0.0067378
0.00730589
0.00787044
0.00842727
0.00897201
0.00950018
0.0100073
0.0104887
0.01094
0.0113568
0.0117349
0.0120704
0.0123598
0.0125998
0.0127877
0.0129211
0.0129984
0.0130184
0.0129804
0.0128846
0.0127314
0.0125221
0.0122584
0.0119424
0.011577
0.011165
0.0107099
0.0102152
0.00968463
0.00912206
0.00853092
0.00791461
0.00728046
0.00663513
0.00592725
0.00511026
0.00520307
0.00417297
0.00333976
0.00263839
0.00199312
0.00140519
0.000876441
0.000403229
-1.808e-05
-0.000390601
-0.000717283
-0.00100091
-0.00124407
-0.00144909
-0.0016181
-0.00175294
-0.00185525
-0.00192638
-0.00196748
-0.00197946
-0.00196301
-0.00191863
-0.00184665
-0.00174724
-0.00162045
-0.00146623
-0.00128447
-0.00107501
-0.000837697
-0.000572407
-0.000279081
4.22389e-05
0.000391383
0.000768013
0.0011716
0.00160137
0.00205632
0.00253515
0.00303626
0.00355776
0.00409739
0.00465261
0.00522052
0.00579789
0.00638118
0.00696654
0.00754988
0.00812685
0.00869292
0.0092434
0.00977352
0.0102785
0.0107535
0.0111939
0.0115952
0.0119531
0.0122636
0.0125233
0.0127289
0.0128778
0.012968
0.012998
0.0129669
0.0128744
0.012721
0.0125075
0.0122356
0.0119075
0.0115257
0.0110933
0.0106137
0.0100906
0.00952801
0.00892986
0.00829987
0.00764173
0.00696338
0.00627212
0.00551297
0.0046362
0.00512676
0.00404607
0.00317275
0.0024385
0.00176372
0.00114957
0.000597824
0.000104477
-0.00033448
-0.000722503
-0.00106287
-0.00135867
-0.00161276
-0.00182775
-0.00200595
-0.00214942
-0.00225993
-0.00233897
-0.00238779
-0.00240735
-0.00239839
-0.00236142
-0.00229675
-0.00220454
-0.00208476
-0.0019373
-0.00176196
-0.00155849
-0.00132662
-0.0010661
-0.000776753
-0.000458479
-0.000111318
0.000264528
0.000668657
0.00110043
0.00155896
0.00204304
0.00255119
0.00308156
0.00363198
0.00419991
0.00478248
0.00537642
0.00597816
0.00658377
0.00718902
0.00778943
0.00838026
0.00895662
0.00951347
0.0100457
0.0105483
0.0110162
0.0114445
0.0118285
0.012164
0.012447
0.0126738
0.0128416
0.0129479
0.0129907
0.0129689
0.0128821
0.0127302
0.0125141
0.0122352
0.0118956
0.0114979
0.0110451
0.0105408
0.00998886
0.00939336
0.00875858
0.00808853
0.00738719
0.00666319
0.00592449
0.0051124
0.00417396
0.00497255
0.00384275
0.00293048
0.00216426
0.00146075
0.000821019
0.000246781
-0.000266336
-0.000722698
-0.00112609
-0.00148011
-0.00178814
-0.0020533
-0.00227844
-0.00246609
-0.00261846
-0.00273748
-0.00282476
-0.00288161
-0.00290906
-0.00290788
-0.00287857
-0.00282143
-0.00273657
-0.0026239
-0.00248325
-0.0023143
-0.00211669
-0.00189005
-0.00163399
-0.00134819
-0.00103243
-0.000686588
-0.000310729
9.48841e-05
0.00052975
0.000993097
0.00148385
0.00200062
0.00254164
0.0031048
0.00368761
0.00428719
0.00490027
0.00552322
0.00615203
0.00678236
0.00740954
0.00802867
0.00863459
0.00922202
0.00978554
0.0103197
0.0108192
0.0112787
0.011693
0.0120576
0.0123678
0.0126198
0.0128102
0.0129359
0.0129948
0.0129854
0.0129067
0.0127587
0.0125418
0.0122575
0.0119076
0.0114946
0.0110219
0.0104929
0.00991165
0.00928257
0.00861021
0.00789888
0.00715292
0.00638169
0.00559384
0.00472687
0.00372444
0.00473625
0.00355882
0.00260874
0.00181149
0.00108005
0.000415423
-0.000180765
-0.000713234
-0.0011867
-0.00160527
-0.00197285
-0.0022931
-0.00256941
-0.00280484
-0.00300212
-0.00316364
-0.00329145
-0.00338726
-0.00345245
-0.0034881
-0.00349499
-0.00347362
-0.00342427
-0.00334697
-0.00324158
-0.00310783
-0.00294532
-0.00275355
-0.00253203
-0.00228023
-0.00199769
-0.00168402
-0.00133897
-0.000962444
-0.000554549
-0.000115645
0.000353634
0.000852341
0.00137919
0.00193251
0.00251028
0.00311003
0.0037289
0.00436363
0.00501052
0.00566548
0.00632406
0.00698144
0.00763247
0.00827178
0.00889377
0.0094927
0.0100628
0.0105982
0.0110933
0.0115425
0.0119405
0.0122825
0.0125639
0.0127809
0.0129301
0.0130089
0.0130151
0.0129478
0.0128063
0.012591
0.0123031
0.0119443
0.0115172
0.0110251
0.0104715
0.00986087
0.00919767
0.00848683
0.00773301
0.00694097
0.0061208
0.00528191
0.00435781
0.00328864
0.00441383
0.00319021
0.00220347
0.00137612
0.000617589
-7.12371e-05
-0.000688796
-0.00124015
-0.00173037
-0.00216388
-0.00254487
-0.0028773
-0.00316478
-0.00341061
-0.00361768
-0.00378856
-0.0039254
-0.00403002
-0.00410385
-0.00414802
-0.0041633
-0.00415018
-0.0041089
-0.00403943
-0.00394156
-0.00381491
-0.00365896
-0.00347311
-0.00325671
-0.0030091
-0.00272964
-0.0024178
-0.00207316
-0.00169545
-0.00128463
-0.000840891
-0.000364721
0.00014307
0.000681319
0.00124847
0.00184257
0.00246123
0.0031016
0.00376041
0.00443394
0.00511801
0.00580804
0.00649904
0.00718568
0.00786231
0.00852301
0.00916171
0.00977219
0.0103482
0.0108837
0.0113725
0.0118089
0.0121874
0.012503
0.0127513
0.0129284
0.0130311
0.013057
0.0130044
0.0128726
0.0126617
0.0123725
0.0120067
0.0115669
0.0110563
0.0104787
0.0098386
0.00914085
0.0083907
0.00759321
0.00675352
0.00588258
0.00499056
0.00400679
0.00286771
0.00400133
0.00273296
0.00171072
0.000854217
6.94252e-05
-0.00064287
-0.00128119
-0.00185095
-0.00235754
-0.00280571
-0.00319994
-0.00354444
-0.00384309
-0.00409937
-0.00431637
-0.00449678
-0.0046429
-0.0047566
-0.00483938
-0.00489239
-0.0049164
-0.00491188
-0.00487901
-0.0048177
-0.00472765
-0.00460837
-0.00445923
-0.00427948
-0.00406832
-0.00382494
-0.00354854
-0.00323841
-0.00289394
-0.0025147
-0.00210047
-0.00165126
-0.00116741
-0.00064956
-9.87407e-05
0.00048362
0.00109566
0.00173506
0.00239903
0.00308429
0.00378709
0.00450318
0.00522787
0.005956
0.00668201
0.0074
0.00810373
0.00878673
0.0094424
0.010064
0.0106449
0.0111785
0.0116585
0.0120788
0.0124338
0.0127185
0.0129283
0.0130597
0.0131095
0.0130759
0.0129575
0.0127541
0.0124664
0.012096
0.0116452
0.0111173
0.0105164
0.00984708
0.00911451
0.00832432
0.00748195
0.00659303
0.00566934
0.00472191
0.00367562
0.00246303
0.0034949
0.00218323
0.00112665
0.000241946
-0.000568258
-0.00130328
-0.00196174
-0.00254938
-0.00307194
-0.00353446
-0.00394171
-0.00429817
-0.00460794
-0.00487472
-0.00510176
-0.00529189
-0.00544749
-0.00557055
-0.00566259
-0.00572478
-0.00575789
-0.00576235
-0.00573828
-0.00568552
-0.00560367
-0.00549212
-0.00535012
-0.00517676
-0.0049711
-0.00473214
-0.00445892
-0.00415052
-0.00380616
-0.00342521
-0.00300726
-0.00255213
-0.00205998
-0.00153127
-0.000966885
-0.000368103
0.000263328
0.000925181
0.00161472
0.0023287
0.00306334
0.00381433
0.00457687
0.00534563
0.00611486
0.00687835
0.00762956
0.00836162
0.00906746
0.00973989
0.0103717
0.0109557
0.0114849
0.0119527
0.0123527
0.0126794
0.0129275
0.0130927
0.0131715
0.0131614
0.0130606
0.0128686
0.0125857
0.0122132
0.0117537
0.0112102
0.010587
0.00988883
0.00912132
0.00829043
0.00740203
0.00646221
0.00548369
0.00447836
0.00336643
0.00207631
0.00289081
0.00153728
0.000447528
-0.000464417
-0.00129918
-0.00205618
-0.00273413
-0.00333913
-0.00387722
-0.00435376
-0.0047738
-0.00514208
-0.00546292
-0.0057402
-0.00597737
-0.00617737
-0.00634269
-0.00647537
-0.006577
-0.00664873
-0.00669132
-0.00670518
-0.00669036
-0.0066466
-0.00657341
-0.00647005
-0.00633562
-0.00616907
-0.00596928
-0.00573507
-0.00546529
-0.00515882
-0.00481468
-0.00443202
-0.00401022
-0.00354891
-0.00304803
-0.00250786
-0.00192909
-0.00131286
-0.000660752
2.51024e-05
0.000742055
0.00148689
0.00225584
0.00304455
0.0038481
0.00466102
0.00547734
0.00629058
0.00709385
0.00787989
0.00864115
0.00936991
0.0100583
0.0106987
0.0112832
0.0118047
0.012256
0.0126308
0.0129232
0.0131281
0.0132415
0.0132601
0.0131818
0.0130054
0.012731
0.0123599
0.0118941
0.011337
0.0106928
0.0099666
0.00916423
0.00829211
0.00735654
0.00636415
0.00532858
0.0042627
0.00308169
0.0017096
0.00218541
0.000791499
-0.000330265
-0.00126849
-0.00212694
-0.00290516
-0.00360196
-0.00422376
-0.00477695
-0.00526717
-0.00569974
-0.00607967
-0.00641149
-0.00669929
-0.00694666
-0.00715667
-0.00733192
-0.0074745
-0.00758603
-0.00766768
-0.00772019
-0.00774391
-0.00773882
-0.00770458
-0.00764058
-0.00754595
-0.00741963
-0.00726042
-0.007067
-0.00683803
-0.00657211
-0.00626794
-0.0059243
-0.00554012
-0.00511455
-0.00464699
-0.00413716
-0.00358513
-0.00299138
-0.00235685
-0.00168298
-0.000971754
-0.000225716
0.000551989
0.0013576
0.00218674
0.00303441
0.003895
0.00476232
0.00562962
0.00648967
0.00733477
0.00815691
0.0089478
0.00969899
0.010402
0.0110485
0.0116303
0.0121397
0.0125693
0.0129126
0.0131637
0.0133179
0.0133711
0.0133206
0.0131648
0.0129035
0.0125373
0.0120685
0.0115002
0.0108368
0.0100835
0.00924657
0.00833281
0.00734901
0.00630232
0.00520741
0.00407812
0.00282433
0.00136543
0.00137518
-5.7636e-05
-0.00121024
-0.00217377
-0.00305505
-0.00385372
-0.00456872
-0.00520677
-0.0057746
-0.00627813
-0.00672297
-0.00711436
-0.00745706
-0.00775536
-0.00801298
-0.00823313
-0.00841851
-0.00857125
-0.00869302
-0.00878498
-0.00884785
-0.00888192
-0.0088871
-0.00886296
-0.00880875
-0.00872348
-0.00860592
-0.00845469
-0.0082683
-0.00804517
-0.00778371
-0.00748238
-0.00713971
-0.0067544
-0.00632534
-0.00585168
-0.0053329
-0.00476882
-0.0041597
-0.00350626
-0.00280976
-0.00207199
-0.00129538
-0.000482971
0.000361514
0.00123369
0.00212851
0.00304022
0.00396245
0.00488817
0.0058098
0.00671923
0.00760792
0.00846701
0.0092874
0.0100599
0.0107753
0.0114246
0.0119993
0.0124911
0.0128927
0.0131972
0.0133989
0.0134933
0.0134768
0.0133473
0.013104
0.0127472
0.012279
0.0117025
0.0110219
0.010243
0.00937205
0.00841643
0.00738341
0.0062807
0.00512405
0.00392835
0.00259779
0.00104683
0.000456733
-0.00101351
-0.00219577
-0.00318366
-0.0040869
-0.00490527
-0.0056378
-0.00629154
-0.00687353
-0.00739
-0.00784681
-0.00824946
-0.00860292
-0.00891166
-0.00917957
-0.00940998
-0.00960567
-0.00976883
-0.00990117
-0.0100038
-0.0100775
-0.0101225
-0.0101385
-0.0101251
-0.0100813
-0.0100061
-0.00989806
-0.00975558
-0.00957698
-0.00936046
-0.00910421
-0.00880642
-0.00846539
-0.00807954
-0.00764748
-0.0071681
-0.0066406
-0.00606453
-0.00543989
-0.00476717
-0.00404738
-0.00328213
-0.00247368
-0.00162493
-0.00073954
0.000178141
0.00112301
0.00208923
0.00307023
0.00405875
0.00504684
0.00602597
0.00698709
0.00792071
0.00881704
0.00966611
0.0104579
0.0111825
0.0118304
0.0123925
0.0128602
0.0132259
0.0134829
0.0136258
0.0136502
0.0135533
0.0133337
0.0129915
0.0125282
0.0119468
0.0112518
0.0104489
0.00954483
0.00854735
0.00746424
0.0063038
0.00508296
0.00381768
0.00240611
0.00075742
-0.000573212
-0.0020794
-0.00329015
-0.00430143
-0.00522577
-0.00606308
-0.00681248
-0.00748135
-0.00807703
-0.00860603
-0.0090745
-0.00948817
-0.00985224
-0.0101713
-0.0104495
-0.0106903
-0.0108964
-0.0110703
-0.0112135
-0.0113272
-0.0114122
-0.0114685
-0.011496
-0.011494
-0.0114614
-0.0113971
-0.0112994
-0.0111665
-0.0109966
-0.0107876
-0.0105374
-0.0102441
-0.00990555
-0.00951995
-0.00908562
-0.00860113
-0.00806537
-0.00747762
-0.00683758
-0.00614544
-0.00540198
-0.00460857
-0.00376723
-0.00288074
-0.00195262
-0.000987155
1.05315e-05
0.00103453
0.00207811
0.00313378
0.00419325
0.00524756
0.00628713
0.00730184
0.00828118
0.00921436
0.0100905
0.0108986
0.0116282
0.0122691
0.0128117
0.0132472
0.013568
0.0137675
0.0138405
0.0137834
0.0135941
0.0132721
0.0128187
0.0122366
0.0115303
0.0107056
0.0097696
0.00873048
0.00759657
0.00637677
0.00508922
0.00375107
0.00225397
0.000501512
-0.00171778
-0.00325844
-0.00449653
-0.00553025
-0.00647486
-0.00733034
-0.00809595
-0.00877937
-0.00938824
-0.00992936
-0.0104091
-0.0108336
-0.011208
-0.0115374
-0.0118258
-0.0120769
-0.0122937
-0.0124784
-0.0126327
-0.0127579
-0.0128546
-0.0129229
-0.0129625
-0.0129725
-0.0129519
-0.0128993
-0.0128128
-0.0126905
-0.0125303
-0.0123298
-0.0120869
-0.011799
-0.011464
-0.0110797
-0.010644
-0.0101552
-0.00961196
-0.00901309
-0.00835802
-0.00764663
-0.00687939
-0.00605738
-0.00518241
-0.00425703
-0.00328458
-0.00226928
-0.0012162
-0.00013131
0.000978553
0.00210566
0.00324142
0.00437645
0.00550063
0.0066032
0.00767289
0.00869805
0.00966681
0.0105673
0.0113877
0.0121167
0.0127436
0.0132583
0.0136521
0.0139172
0.0140474
0.0140382
0.0138865
0.0135914
0.0131536
0.0125756
0.0118617
0.0110179
0.0100516
0.00897139
0.00778614
0.00650542
0.00514865
0.00373421
0.00214684
0.000284162
-0.00297994
-0.00455363
-0.00581792
-0.00687318
-0.00783721
-0.00871013
-0.0094913
-0.0101887
-0.0108102
-0.011363
-0.0118537
-0.0122886
-0.0126732
-0.0130126
-0.0133112
-0.0135727
-0.0138
-0.0139957
-0.0141614
-0.0142984
-0.0144073
-0.014488
-0.0145402
-0.0145631
-0.0145553
-0.0145152
-0.0144409
-0.0143302
-0.0141808
-0.0139901
-0.0137555
-0.0134744
-0.0131441
-0.0127622
-0.0123264
-0.0118344
-0.0112846
-0.0106755
-0.010006
-0.00927584
-0.00848499
-0.00763428
-0.0067252
-0.00576006
-0.00474199
-0.00367505
-0.00256425
-0.00141553
-0.000235845
0.00096689
0.0021838
0.0034051
0.00462013
0.00581748
0.0069851
0.00811046
0.00918066
0.0101827
0.0111036
0.0119308
0.0126521
0.0132563
0.0137332
0.0140738
0.0142708
0.0143183
0.0142127
0.0139519
0.0135363
0.0129678
0.0122508
0.0113912
0.0103967
0.00927631
0.00803945
0.00669637
0.00526786
0.00377362
0.00209101
0.000111282
-0.00436253
-0.00596785
-0.00725725
-0.00833315
-0.00931581
-0.0102054
-0.0110015
-0.0117122
-0.0123459
-0.0129099
-0.0134111
-0.013856
-0.0142504
-0.0145997
-0.0149082
-0.0151799