/*--------------------------------*- C++ -*----------------------------------*\
  =========                 |
  \\      /  F ield         | OpenFOAM: The Open Source CFD Toolbox
   \\    /   O peration     | Website:  https://openfoam.org
    \\  /    A nd           | Version:  7
     \\/     M anipulation  |
\*---------------------------------------------------------------------------*/
FoamFile
{
    version     2.0;
    format      ascii;
    class       volVectorField;
    location    "2.275";
    object      U;
}
// * * * * * * * * * * * * * * * * * * * * * * * * * * * * * * * * * * * * * //

dimensions      [0 1 -1 0 0 0 0];

internalField   nonuniform List<vector> 
6400
(
(1.13688e-05 -1.15149e-05 0)
(4.95859e-05 -2.40038e-05 0)
(0.000102107 -2.43521e-05 0)
(0.000142714 -1.78135e-05 0)
(0.000158391 -8.39406e-06 0)
(0.000144675 1.75997e-06 0)
(0.000100728 1.1622e-05 0)
(2.76983e-05 2.0632e-05 0)
(-7.22127e-05 2.86537e-05 0)
(-0.000196457 3.56839e-05 0)
(-0.000342445 4.1803e-05 0)
(-0.00050776 4.71352e-05 0)
(-0.000690266 5.18176e-05 0)
(-0.000888138 5.59829e-05 0)
(-0.00109986 5.9747e-05 0)
(-0.00132416 6.32043e-05 0)
(-0.00156001 6.64242e-05 0)
(-0.00180651 6.9451e-05 0)
(-0.00206281 7.23048e-05 0)
(-0.0023281 7.49832e-05 0)
(-0.0026015 7.74641e-05 0)
(-0.00288205 7.97085e-05 0)
(-0.00316862 8.16628e-05 0)
(-0.00345991 8.32628e-05 0)
(-0.00375439 8.44364e-05 0)
(-0.00405032 8.51064e-05 0)
(-0.00434571 8.51928e-05 0)
(-0.00463836 8.46161e-05 0)
(-0.00492581 8.32996e-05 0)
(-0.0052054 8.11706e-05 0)
(-0.00547428 7.81641e-05 0)
(-0.00572944 7.42247e-05 0)
(-0.00596775 6.93089e-05 0)
(-0.006186 6.33873e-05 0)
(-0.00638096 5.64473e-05 0)
(-0.00654942 4.84949e-05 0)
(-0.00668828 3.95571e-05 0)
(-0.00679459 2.96831e-05 0)
(-0.00686564 1.89462e-05 0)
(-0.00689901 7.44387e-06 0)
(-0.00689267 -4.70299e-06 0)
(-0.00684502 -1.7348e-05 0)
(-0.006755 -3.03223e-05 0)
(-0.00662209 -4.34367e-05 0)
(-0.00644642 -5.64847e-05 0)
(-0.00622877 -6.92463e-05 0)
(-0.00597062 -8.1493e-05 0)
(-0.00567413 -9.29928e-05 0)
(-0.0053422 -0.000103517 0)
(-0.00497836 -0.000112845 0)
(-0.00458681 -0.000120774 0)
(-0.0041723 -0.000127123 0)
(-0.0037401 -0.00013174 0)
(-0.00329585 -0.000134506 0)
(-0.00284551 -0.000135344 0)
(-0.0023952 -0.000134215 0)
(-0.00195109 -0.000131129 0)
(-0.00151925 -0.000126136 0)
(-0.00110556 -0.000119333 0)
(-0.000715538 -0.000110855 0)
(-0.00035424 -0.000100876 0)
(-2.61663e-05 -8.95972e-05 0)
(0.000264834 -7.72473e-05 0)
(0.00051564 -6.40694e-05 0)
(0.000723905 -5.03204e-05 0)
(0.000888095 -3.62608e-05 0)
(0.00100751 -2.2151e-05 0)
(0.00108229 -8.25008e-06 0)
(0.00111345 5.18359e-06 0)
(0.00110285 1.78863e-05 0)
(0.00105328 2.95789e-05 0)
(0.00096851 3.99417e-05 0)
(0.000853411 4.85826e-05 0)
(0.000714193 5.49817e-05 0)
(0.00055874 5.84089e-05 0)
(0.000397122 5.7829e-05 0)
(0.000242134 5.18305e-05 0)
(0.000109692 3.85835e-05 0)
(1.94637e-05 1.68027e-05 0)
(-6.18753e-06 -6.15541e-06 0)
(2.43161e-05 -5.01302e-05 0)
(9.01839e-05 -8.97062e-05 0)
(0.000163574 -8.13235e-05 0)
(0.000200699 -4.42865e-05 0)
(0.000177209 7.108e-06 0)
(8.24859e-05 6.39015e-05 0)
(-8.71515e-05 0.000120802 0)
(-0.000330719 0.000174884 0)
(-0.000644324 0.00022471 0)
(-0.00102284 0.000269777 0)
(-0.00146056 0.00031014 0)
(-0.00195184 0.000346167 0)
(-0.0024914 0.00037838 0)
(-0.00307453 0.000407334 0)
(-0.00369708 0.000433549 0)
(-0.00435541 0.000457461 0)
(-0.00504634 0.000479393 0)
(-0.00576692 0.000499547 0)
(-0.00651437 0.000517998 0)
(-0.00728588 0.000534704 0)
(-0.00807848 0.000549512 0)
(-0.00888892 0.000562178 0)
(-0.00971356 0.00057238 0)
(-0.0105483 0.000579737 0)
(-0.0113884 0.000583825 0)
(-0.0122288 0.000584198 0)
(-0.0130636 0.000580401 0)
(-0.0138864 0.000571987 0)
(-0.0146902 0.000558536 0)
(-0.0154677 0.000539662 0)
(-0.016211 0.000515038 0)
(-0.0169118 0.000484401 0)
(-0.0175618 0.000447571 0)
(-0.0181523 0.000404461 0)
(-0.018675 0.000355091 0)
(-0.0191214 0.000299597 0)
(-0.0194837 0.000238244 0)
(-0.0197542 0.000171426 0)
(-0.0199264 9.9678e-05 0)
(-0.0199942 2.36712e-05 0)
(-0.0199529 -5.57914e-05 0)
(-0.0197989 -0.000137766 0)
(-0.0195299 -0.000221195 0)
(-0.0191452 -0.000304916 0)
(-0.0186457 -0.000387681 0)
(-0.0180339 -0.000468176 0)
(-0.0173142 -0.000545055 0)
(-0.0164926 -0.000616966 0)
(-0.0155772 -0.000682586 0)
(-0.0145774 -0.000740655 0)
(-0.0135042 -0.000790012 0)
(-0.0123702 -0.000829629 0)
(-0.0111892 -0.000858646 0)
(-0.00997582 -0.000876396 0)
(-0.0087455 -0.000882433 0)
(-0.0075141 -0.000876546 0)
(-0.00629759 -0.000858774 0)
(-0.00511175 -0.000829407 0)
(-0.00397184 -0.00078898 0)
(-0.00289225 -0.000738265 0)
(-0.0018863 -0.000678244 0)
(-0.000965869 -0.000610088 0)
(-0.00014124 -0.000535124 0)
(0.000579138 -0.000454801 0)
(0.0011888 -0.00037066 0)
(0.00168339 -0.000284303 0)
(0.00206075 -0.000197371 0)
(0.00232096 -0.000111536 0)
(0.00246648 -2.84974e-05 0)
(0.00250214 4.99843e-05 0)
(0.00243529 0.000122046 0)
(0.00227595 0.000185633 0)
(0.00203708 0.00023838 0)
(0.00173492 0.000277451 0)
(0.00138948 0.000299335 0)
(0.00102507 0.000299713 0)
(0.000670285 0.000273573 0)
(0.00035724 0.000215799 0)
(0.000124288 0.000124527 0)
(1.66078e-05 1.93497e-05 0)
(2.52128e-05 -0.000103612 0)
(8.26358e-05 -0.000163566 0)
(0.000124194 -0.000124054 0)
(0.00010131 -2.36038e-05 0)
(-1.38529e-05 0.000110234 0)
(-0.000234593 0.00025851 0)
(-0.000565956 0.000408868 0)
(-0.00100719 0.000553972 0)
(-0.0015537 0.000689686 0)
(-0.00219881 0.000814186 0)
(-0.00293486 0.000927113 0)
(-0.00375401 0.00102899 0)
(-0.0046487 0.00112081 0)
(-0.00561195 0.00120373 0)
(-0.0066374 0.00127888 0)
(-0.00771931 0.00134724 0)
(-0.00885241 0.00140953 0)
(-0.0100317 0.00146616 0)
(-0.0112524 0.00151727 0)
(-0.0125094 0.00156268 0)
(-0.0137976 0.00160195 0)
(-0.0151113 0.0016344 0)
(-0.016444 0.00165915 0)
(-0.017789 0.00167519 0)
(-0.0191382 0.00168139 0)
(-0.0204832 0.00167659 0)
(-0.0218144 0.00165961 0)
(-0.0231214 0.00162931 0)
(-0.0243934 0.00158461 0)
(-0.0256184 0.00152459 0)
(-0.0267843 0.00144846 0)
(-0.0278783 0.00135563 0)
(-0.0288876 0.00124575 0)
(-0.0297992 0.00111873 0)
(-0.0306002 0.00097477 0)
(-0.0312783 0.000814395 0)
(-0.0318217 0.000638461 0)
(-0.0322197 0.00044818 0)
(-0.0324625 0.000245121 0)
(-0.0325417 3.12085e-05 0)
(-0.0324509 -0.000191291 0)
(-0.0321851 -0.000419773 0)
(-0.0317418 -0.00065135 0)
(-0.0311204 -0.000882876 0)
(-0.030323 -0.00111101 0)
(-0.029354 -0.00133225 0)
(-0.0282204 -0.00154306 0)
(-0.026932 -0.00173987 0)
(-0.0255007 -0.00191925 0)
(-0.0239412 -0.0020779 0)
(-0.0222701 -0.00221281 0)
(-0.0205063 -0.00232133 0)
(-0.0186704 -0.00240124 0)
(-0.0167842 -0.0024508 0)
(-0.0148707 -0.00246885 0)
(-0.0129536 -0.00245484 0)
(-0.0110566 -0.00240887 0)
(-0.00920316 -0.00233165 0)
(-0.0074162 -0.00222456 0)
(-0.00571733 -0.00208958 0)
(-0.0041266 -0.00192926 0)
(-0.00266209 -0.00174664 0)
(-0.00133952 -0.00154522 0)
(-0.000171976 -0.00132883 0)
(0.000830368 -0.00110158 0)
(0.00166047 -0.000867818 0)
(0.00231456 -0.000632019 0)
(0.00279233 -0.000398795 0)
(0.003097 -0.000172886 0)
(0.00323548 4.07946e-05 0)
(0.00321849 0.000237059 0)
(0.00306079 0.000410307 0)
(0.00278139 0.000554312 0)
(0.0024039 0.000661985 0)
(0.00195684 0.000725177 0)
(0.00147395 0.000734705 0)
(0.000993539 0.00068099 0)
(0.000557071 0.0005558 0)
(0.000215869 0.000357424 0)
(3.82844e-05 0.000109191 0)
(1.88276e-05 -0.000145464 0)
(4.37872e-05 -0.000199652 0)
(1.6284e-05 -9.9918e-05 0)
(-0.00010809 9.48991e-05 0)
(-0.000355769 0.000343545 0)
(-0.000739999 0.000616595 0)
(-0.00126554 0.000894064 0)
(-0.00193108 0.00116334 0)
(-0.00273121 0.00141709 0)
(-0.00365806 0.00165169 0)
(-0.00470254 0.00186607 0)
(-0.00585521 0.00206072 0)
(-0.00710681 0.00223703 0)
(-0.00844854 0.00239675 0)
(-0.00987224 0.00254164 0)
(-0.0113703 0.00267319 0)
(-0.0129355 0.00279253 0)
(-0.014561 0.00290027 0)
(-0.0162397 0.00299648 0)
(-0.0179646 0.00308076 0)
(-0.0197281 0.00315219 0)
(-0.0215219 0.00320949 0)
(-0.0233371 0.003251 0)
(-0.0251638 0.00327485 0)
(-0.026991 0.00327899 0)
(-0.0288067 0.00326128 0)
(-0.0305981 0.00321962 0)
(-0.0323512 0.00315198 0)
(-0.0340511 0.00305651 0)
(-0.0356824 0.0029316 0)
(-0.0372287 0.00277597 0)
(-0.0386736 0.00258871 0)
(-0.0400004 0.00236936 0)
(-0.0411925 0.00211798 0)
(-0.0422335 0.00183514 0)
(-0.0431081 0.00152205 0)
(-0.0438014 0.0011805 0)
(-0.0443002 0.000812934 0)
(-0.0445927 0.000422443 0)
(-0.044669 1.27437e-05 0)
(-0.0445213 -0.000411818 0)
(-0.0441444 -0.000846365 0)
(-0.0435355 -0.0012855 0)
(-0.0426949 -0.00172339 0)
(-0.0416258 -0.00215388 0)
(-0.0403344 -0.00257058 0)
(-0.0388302 -0.00296703 0)
(-0.0371259 -0.00333678 0)
(-0.0352372 -0.00367359 0)
(-0.0331827 -0.00397153 0)
(-0.0309837 -0.00422521 0)
(-0.0286642 -0.00442981 0)
(-0.02625 -0.00458134 0)
(-0.023769 -0.00467668 0)
(-0.0212499 -0.00471372 0)
(-0.0187227 -0.00469144 0)
(-0.0162174 -0.00460995 0)
(-0.0137637 -0.00447051 0)
(-0.0113907 -0.00427555 0)
(-0.00912588 -0.00402858 0)
(-0.00699506 -0.00373416 0)
(-0.00502152 -0.0033978 0)
(-0.00322576 -0.00302581 0)
(-0.00162499 -0.0026252 0)
(-0.000232816 -0.00220355 0)
(0.000941049 -0.00176888 0)
(0.00189107 -0.00132954 0)
(0.00261606 -0.000894198 0)
(0.0031194 -0.000471783 0)
(0.00340916 -7.15516e-05 0)
(0.00349826 0.000296789 0)
(0.00340469 0.000622904 0)
(0.00315164 0.000895585 0)
(0.00276776 0.00110251 0)
(0.00228729 0.00123012 0)
(0.00175024 0.00126384 0)
(0.00120138 0.00118908 0)
(0.000689064 0.000993528 0)
(0.000275875 0.000672267 0)
(5.17309e-05 0.00024168 0)
(8.74311e-06 -0.000160686 0)
(-1.4231e-05 -0.00016849 0)
(-0.000137886 2.69831e-05 0)
(-0.000395414 0.000348625 0)
(-0.000808092 0.000742416 0)
(-0.00138694 0.00116912 0)
(-0.0021349 0.00160147 0)
(-0.00304913 0.00202173 0)
(-0.00412289 0.00241926 0)
(-0.00534707 0.00278857 0)
(-0.00671134 0.00312771 0)
(-0.00820491 0.00343704 0)
(-0.00981714 0.00371823 0)
(-0.0115378 0.00397354 0)
(-0.0133572 0.00420526 0)
(-0.015266 0.00441538 0)
(-0.0172554 0.00460528 0)
(-0.0193166 0.00477565 0)
(-0.0214405 0.00492641 0)
(-0.0236181 0.00505674 0)
(-0.0258392 0.00516513 0)
(-0.0280933 0.00524947 0)
(-0.0303687 0.00530717 0)
(-0.0326526 0.00533529 0)
(-0.034931 0.00533069 0)
(-0.037189 0.00529014 0)
(-0.0394103 0.00521046 0)
(-0.0415775 0.00508864 0)
(-0.0436724 0.00492198 0)
(-0.0456761 0.00470821 0)
(-0.047569 0.00444556 0)
(-0.0493314 0.0041329 0)
(-0.0509432 0.00376981 0)
(-0.052385 0.00335666 0)
(-0.0536377 0.00289468 0)
(-0.0546833 0.002386 0)
(-0.055505 0.00183373 0)
(-0.0560876 0.00124192 0)
(-0.0564179 0.000615598 0)
(-0.056485 -3.92797e-05 0)
(-0.0562805 -0.000715834 0)
(-0.0557989 -0.0014064 0)
(-0.055038 -0.00210255 0)
(-0.0539984 -0.00279528 0)
(-0.0526848 -0.00347511 0)
(-0.051105 -0.00413225 0)
(-0.0492706 -0.00475683 0)
(-0.0471966 -0.00533904 0)
(-0.0449018 -0.0058694 0)
(-0.042408 -0.00633894 0)
(-0.0397403 -0.00673944 0)
(-0.0369265 -0.00706365 0)
(-0.0339969 -0.00730547 0)
(-0.0309837 -0.00746014 0)
(-0.0279208 -0.00752443 0)
(-0.0248429 -0.00749668 0)
(-0.0217851 -0.00737699 0)
(-0.0187823 -0.00716716 0)
(-0.0158687 -0.00687075 0)
(-0.013077 -0.00649301 0)
(-0.0104376 -0.00604078 0)
(-0.00797851 -0.00552237 0)
(-0.00572455 -0.00494736 0)
(-0.00369673 -0.00432649 0)
(-0.001912 -0.00367142 0)
(-0.000382744 -0.00299456 0)
(0.000883449 -0.00230895 0)
(0.00188412 -0.00162811 0)
(0.00262213 -0.000966058 0)
(0.00310589 -0.000337284 0)
(0.00334947 0.000243107 0)
(0.00337277 0.000759214 0)
(0.00320166 0.00119412 0)
(0.00286803 0.00152967 0)
(0.00240994 0.00174644 0)
(0.00187167 0.00182404 0)
(0.00130276 0.00174218 0)
(0.000757263 0.00148279 0)
(0.000307123 0.00103402 0)
(5.84201e-05 0.000398413 0)
(-3.28678e-06 -0.000141783 0)
(-8.41321e-05 -5.19177e-05 0)
(-0.000323218 0.000281091 0)
(-0.000737814 0.000765188 0)
(-0.00134107 0.00133532 0)
(-0.00213996 0.00194367 0)
(-0.00313423 0.00255653 0)
(-0.00431848 0.00315161 0)
(-0.00568407 0.00371531 0)
(-0.00722036 0.00424039 0)
(-0.00891565 0.00472413 0)
(-0.0107579 0.00516673 0)
(-0.0127354 0.00557011 0)
(-0.0148365 0.00593695 0)
(-0.0170502 0.00627 0)
(-0.0193659 0.00657156 0)
(-0.021773 0.0068432 0)
(-0.0242611 0.00708551 0)
(-0.0268193 0.0072981 0)
(-0.0294362 0.00747957 0)
(-0.0320998 0.0076276 0)
(-0.0347969 0.00773913 0)
(-0.0375133 0.00781045 0)
(-0.0402335 0.00783743 0)
(-0.0429407 0.00781568 0)
(-0.0456169 0.00774077 0)
(-0.0482428 0.00760837 0)
(-0.0507981 0.00741448 0)
(-0.0532616 0.00715554 0)
(-0.0556112 0.00682865 0)
(-0.0578245 0.00643166 0)
(-0.0598789 0.00596334 0)
(-0.061752 0.00542349 0)
(-0.0634216 0.00481301 0)
(-0.0648668 0.00413403 0)
(-0.0660674 0.00338993 0)
(-0.0670051 0.00258541 0)
(-0.0676635 0.00172649 0)
(-0.0680282 0.000820492 0)
(-0.0680877 -0.000124003 0)
(-0.0678334 -0.00109722 0)
(-0.0672597 -0.0020883 0)
(-0.0663646 -0.00308543 0)
(-0.0651498 -0.004076 0)
(-0.0636205 -0.00504685 0)
(-0.0617861 -0.00598443 0)
(-0.0596598 -0.00687508 0)
(-0.0572586 -0.0077053 0)
(-0.0546034 -0.00846202 0)
(-0.0517187 -0.00913291 0)
(-0.0486324 -0.00970664 0)
(-0.0453754 -0.0101732 0)
(-0.0419813 -0.0105241 0)
(-0.0384861 -0.0107528 0)
(-0.0349274 -0.0108547 0)
(-0.031344 -0.0108274 0)
(-0.0277753 -0.0106707 0)
(-0.0242606 -0.0103871 0)
(-0.0208383 -0.00998111 0)
(-0.0175456 -0.00945991 0)
(-0.0144173 -0.00883273 0)
(-0.0114857 -0.00811091 0)
(-0.00877953 -0.00730764 0)
(-0.00632351 -0.00643777 0)
(-0.00413791 -0.00551751 0)
(-0.00223801 -0.00456424 0)
(-0.000633696 -0.00359629 0)
(0.00067083 -0.00263274 0)
(0.00167735 -0.00169339 0)
(0.00239383 -0.000798695 0)
(0.0028346 3.01283e-05 0)
(0.00302043 0.000770956 0)
(0.00297864 0.00140057 0)
(0.00274313 0.00189447 0)
(0.00235444 0.0022269 0)
(0.00185986 0.00237107 0)
(0.00131262 0.00230007 0)
(0.000771491 0.00198846 0)
(0.000315398 0.00141482 0)
(6.03133e-05 0.000565176 0)
(-1.63168e-05 -8.42862e-05 0)
(-0.000161519 0.000162636 0)
(-0.000529727 0.00068051 0)
(-0.00111921 0.00136587 0)
(-0.00193285 0.00214481 0)
(-0.00297212 0.00296255 0)
(-0.0042323 0.00378017 0)
(-0.00570458 0.00457172 0)
(-0.00737774 0.00532124 0)
(-0.00923921 0.0060202 0)
(-0.0112758 0.0066653 0)
(-0.0134741 0.00725674 0)
(-0.0158213 0.0077967 0)
(-0.0183046 0.00828826 0)
(-0.0209119 0.00873451 0)
(-0.0236312 0.009138 0)
(-0.0264505 0.00950026 0)
(-0.0293579 0.00982167 0)
(-0.0323406 0.0101013 0)
(-0.0353855 0.0103371 0)
(-0.0384782 0.0105256 0)
(-0.0416034 0.0106627 0)
(-0.0447444 0.0107435 0)
(-0.0478831 0.0107625 0)
(-0.0510001 0.0107139 0)
(-0.0540748 0.0105921 0)
(-0.057085 0.0103916 0)
(-0.0600078 0.0101073 0)
(-0.0628192 0.009735 0)
(-0.0654946 0.00927114 0)
(-0.0680092 0.00871336 0)
(-0.070338 0.00806049 0)
(-0.0724564 0.00731271 0)
(-0.0743404 0.00647172 0)
(-0.0759673 0.00554076 0)
(-0.0773156 0.00452474 0)
(-0.0783656 0.00343023 0)
(-0.0791 0.00226549 0)
(-0.0795036 0.00104042 0)
(-0.0795646 -0.000233469 0)
(-0.0792739 -0.00154321 0)
(-0.0786262 -0.00287448 0)
(-0.0776196 -0.00421179 0)
(-0.0762561 -0.00553868 0)
(-0.0745419 -0.00683802 0)
(-0.0724872 -0.00809223 0)
(-0.0701062 -0.00928362 0)
(-0.0674174 -0.0103947 0)
(-0.0644433 -0.0114086 0)
(-0.0612101 -0.0123093 0)
(-0.057748 -0.0130822 0)
(-0.0540901 -0.0137141 0)
(-0.0502728 -0.0141942 0)
(-0.0463348 -0.0145135 0)
(-0.042317 -0.014666 0)
(-0.0382615 -0.0146483 0)
(-0.0342113 -0.01446 0)
(-0.0302095 -0.0141038 0)
(-0.0262986 -0.0135854 0)
(-0.0225197 -0.0129136 0)
(-0.0189118 -0.0121003 0)
(-0.0155112 -0.0111598 0)
(-0.0123505 -0.0101092 0)
(-0.0094582 -0.00896779 0)
(-0.00685805 -0.00775662 0)
(-0.0045684 -0.0064985 0)
(-0.00260182 -0.00521754 0)
(-0.000964672 -0.00393895 0)
(0.000343165 -0.00268889 0)
(0.00132858 -0.0014944 0)
(0.00200537 -0.000383392 0)
(0.00239435 0.000615222 0)
(0.0025234 0.00147139 0)
(0.00242749 0.00215379 0)
(0.00214871 0.00262978 0)
(0.00173648 0.00286555 0)
(0.00124682 0.00282673 0)
(0.000742224 0.00247931 0)
(0.00030613 0.00179098 0)
(5.89129e-05 0.00073116 0)
(-2.99059e-05 1.47224e-05 0)
(-0.000243787 0.000483924 0)
(-0.000750803 0.00123853 0)
(-0.00152829 0.00216685 0)
(-0.00256738 0.00318845 0)
(-0.00386286 0.00424346 0)
(-0.00540457 0.00528923 0)
(-0.00717942 0.00629728 0)
(-0.00917306 0.00725016 0)
(-0.0113706 0.00813863 0)
(-0.013757 0.00895926 0)
(-0.0163176 0.00971245 0)
(-0.0190382 0.0104008 0)
(-0.0219051 0.0110277 0)
(-0.0249051 0.0115967 0)
(-0.028025 0.0121104 0)
(-0.0312516 0.0125701 0)
(-0.0345713 0.0129758 0)
(-0.03797 0.0133259 0)
(-0.0414325 0.0136173 0)
(-0.0449427 0.0138457 0)
(-0.048483 0.0140055 0)
(-0.0520344 0.0140903 0)
(-0.0555767 0.0140934 0)
(-0.059088 0.0140076 0)
(-0.0625451 0.0138259 0)
(-0.0659236 0.0135417 0)
(-0.069198 0.013149 0)
(-0.0723422 0.0126427 0)
(-0.0753293 0.012019 0)
(-0.0781325 0.0112754 0)
(-0.0807248 0.010411 0)
(-0.0830799 0.00942647 0)
(-0.0851725 0.00832452 0)
(-0.0869783 0.00710976 0)
(-0.0884746 0.00578882 0)
(-0.0896409 0.00437036 0)
(-0.0904591 0.00286511 0)
(-0.0909134 0.00128577 0)
(-0.0909915 -0.000353056 0)
(-0.090684 -0.00203499 0)
(-0.0899855 -0.00374206 0)
(-0.0888941 -0.00545493 0)
(-0.087412 -0.00715311 0)
(-0.0855456 -0.00881531 0)
(-0.0833053 -0.0104198 0)
(-0.0807063 -0.0119445 0)
(-0.0777675 -0.0133679 0)
(-0.0745126 -0.0146691 0)
(-0.0709689 -0.0158281 0)
(-0.0671679 -0.0168266 0)
(-0.0631447 -0.0176484 0)
(-0.0589374 -0.0182795 0)
(-0.0545872 -0.0187088 0)
(-0.0501375 -0.0189282 0)
(-0.0456333 -0.0189332 0)
(-0.0411209 -0.0187229 0)
(-0.0366469 -0.0182999 0)
(-0.0322574 -0.0176711 0)
(-0.0279975 -0.0168468 0)
(-0.0239101 -0.0158413 0)
(-0.0200357 -0.0146723 0)
(-0.0164108 -0.0133607 0)
(-0.0130678 -0.0119302 0)
(-0.0100343 -0.0104072 0)
(-0.00733188 -0.00882038 0)
(-0.00497629 -0.00719988 0)
(-0.00297653 -0.00557757 0)
(-0.00133464 -0.00398647 0)
(-4.54109e-05 -0.00246071 0)
(0.000903796 -0.00103546 0)
(0.00153315 0.000253093 0)
(0.00187041 0.00136755 0)
(0.00195089 0.00226924 0)
(0.00181757 0.00291813 0)
(0.00152125 0.00327283 0)
(0.00111997 0.0032908 0)
(0.000678901 0.0029288 0)
(0.000283834 0.00214334 0)
(5.53128e-05 0.000888451 0)
(-4.38503e-05 0.000157131 0)
(-0.000329344 0.000918016 0)
(-0.000981958 0.00196471 0)
(-0.00195693 0.00318011 0)
(-0.0032326 0.00447958 0)
(-0.00479617 0.0058001 0)
(-0.00663127 0.00709694 0)
(-0.00871986 0.00834041 0)
(-0.0110439 0.00951259 0)
(-0.0135858 0.0106043 0)
(-0.0163286 0.0116125 0)
(-0.0192559 0.0125382 0)
(-0.0223526 0.0133845 0)
(-0.0256037 0.0141554 0)
(-0.0289949 0.0148545 0)
(-0.0325121 0.0154846 0)
(-0.036141 0.0160467 0)
(-0.0398665 0.0165402 0)
(-0.0436731 0.0169627 0)
(-0.047544 0.0173099 0)
(-0.0514612 0.0175762 0)
(-0.0554052 0.0177547 0)
(-0.0593552 0.0178375 0)
(-0.0632885 0.0178163 0)
(-0.0671814 0.0176825 0)
(-0.0710083 0.017428 0)
(-0.0747429 0.0170448 0)
(-0.0783576 0.0165263 0)
(-0.0818242 0.0158667 0)
(-0.0851143 0.0150618 0)
(-0.0881991 0.0141093 0)
(-0.0910503 0.0130085 0)
(-0.0936401 0.011761 0)
(-0.095942 0.0103706 0)
(-0.0979306 0.00884343 0)
(-0.0995824 0.00718803 0)
(-0.100876 0.00541531 0)
(-0.101792 0.00353859 0)
(-0.102315 0.00157349 0)
(-0.102432 -0.000462163 0)
(-0.102133 -0.00254849 0)
(-0.101411 -0.00466377 0)
(-0.100266 -0.00678471 0)
(-0.0986977 -0.0088867 0)
(-0.0967135 -0.0109442 0)
(-0.0943236 -0.0129311 0)
(-0.0915428 -0.014821 0)
(-0.0883906 -0.0165881 0)
(-0.0848906 -0.018207 0)
(-0.0810709 -0.0196538 0)
(-0.0769638 -0.0209063 0)
(-0.0726054 -0.0219447 0)
(-0.0680353 -0.0227517 0)
(-0.0632966 -0.0233136 0)
(-0.0584349 -0.0236201 0)
(-0.0534977 -0.023665 0)
(-0.0485343 -0.0234466 0)
(-0.0435946 -0.0229675 0)
(-0.0387284 -0.022235 0)
(-0.0339845 -0.021261 0)
(-0.0294102 -0.0200622 0)
(-0.0250499 -0.0186592 0)
(-0.0209446 -0.0170771 0)
(-0.0171309 -0.0153442 0)
(-0.0136403 -0.0134925 0)
(-0.0104984 -0.0115563 0)
(-0.00772427 -0.00957272 0)
(-0.00533019 -0.00758041 0)
(-0.00332086 -0.00561981 0)
(-0.00169332 -0.00373263 0)
(-0.000436634 -0.00196176 0)
(0.000468149 -0.000351216 0)
(0.00104808 0.00105378 0)
(0.0013383 0.00220671 0)
(0.0013821 0.00305963 0)
(0.00123103 0.00356306 0)
(0.000944456 0.00366585 0)
(0.000589309 0.0033153 0)
(0.000252 0.002457 0)
(5.02714e-05 0.00103138 0)
(-5.8033e-05 0.000344207 0)
(-0.000417121 0.00146909 0)
(-0.00121997 0.00286578 0)
(-0.00239901 0.00441424 0)
(-0.00391906 0.00602787 0)
(-0.00575915 0.00764253 0)
(-0.00789604 0.00921308 0)
(-0.0103063 0.0107101 0)
(-0.0129677 0.0121163 0)
(-0.0158597 0.0134234 0)
(-0.018963 0.0146295 0)
(-0.0222598 0.0157366 0)
(-0.0257334 0.0167486 0)
(-0.0293679 0.0176702 0)
(-0.0331482 0.0185053 0)
(-0.0370589 0.0192565 0)
(-0.0410846 0.0199245 0)
(-0.0452094 0.020508 0)
(-0.0494162 0.0210035 0)
(-0.0536868 0.0214055 0)
(-0.0580016 0.0217071 0)
(-0.0623394 0.0218996 0)
(-0.0666774 0.0219738 0)
(-0.0709915 0.0219198 0)
(-0.0752556 0.0217276 0)
(-0.0794428 0.0213876 0)
(-0.0835246 0.0208912 0)
(-0.087472 0.0202306 0)
(-0.0912551 0.0193997 0)
(-0.094844 0.0183942 0)
(-0.0982086 0.0172118 0)
(-0.101319 0.0158525 0)
(-0.104148 0.0143187 0)
(-0.106665 0.0126155 0)
(-0.108847 0.0107507 0)
(-0.110667 0.00873473 0)
(-0.112105 0.00658091 0)
(-0.11314 0.00430521 0)
(-0.113755 0.0019262 0)
(-0.113937 -0.000535018 0)
(-0.113675 -0.00305506 0)
(-0.112962 -0.00560845 0)
(-0.111796 -0.00816789 0)
(-0.110177 -0.0107046 0)
(-0.108112 -0.0131888 0)
(-0.105609 -0.0155899 0)
(-0.102683 -0.017877 0)
(-0.0993531 -0.0200198 0)
(-0.0956424 -0.0219884 0)
(-0.091579 -0.0237546 0)
(-0.0871954 -0.0252919 0)
(-0.0825283 -0.0265767 0)
(-0.0776185 -0.0275881 0)
(-0.0725101 -0.0283092 0)
(-0.0672508 -0.0287272 0)
(-0.0618904 -0.0288338 0)
(-0.0564811 -0.028626 0)
(-0.0510759 -0.0281059 0)
(-0.0457284 -0.0272812 0)
(-0.0404914 -0.026165 0)
(-0.0354164 -0.0247759 0)
(-0.0305524 -0.0231379 0)
(-0.025945 -0.0212796 0)
(-0.0216354 -0.0192344 0)
(-0.0176597 -0.0170397 0)
(-0.0140477 -0.0147362 0)
(-0.0108228 -0.0123678 0)
(-0.00800069 -0.00998074 0)
(-0.00558941 -0.0076231 0)
(-0.00358875 -0.00534471 0)
(-0.00199004 -0.00319671 0)
(-0.000776041 -0.00123145 0)
(7.91158e-05 0.000497505 0)
(0.000609904 0.0019353 0)
(0.000859435 0.0030256 0)
(0.000879539 0.0037104 0)
(0.000730255 0.00392967 0)
(0.000479549 0.00362127 0)
(0.000213225 0.00272047 0)
(4.43031e-05 0.0011559 0)
(-7.23746e-05 0.000576809 0)
(-0.00050632 0.00213993 0)
(-0.00146236 0.00394623 0)
(-0.00284963 0.00587502 0)
(-0.00461904 0.00783987 0)
(-0.00674095 0.00977752 0)
(-0.00918489 0.0116442 0)
(-0.0119215 0.0134122 0)
(-0.0149244 0.0150661 0)
(-0.0181694 0.0165997 0)
(-0.0216351 0.0180127 0)
(-0.0253019 0.0193086 0)
(-0.0291516 0.0204927 0)
(-0.0331674 0.0215702 0)
(-0.037333 0.0225455 0)
(-0.0416325 0.0234212 0)
(-0.0460494 0.0241973 0)
(-0.0505665 0.0248719 0)
(-0.0551658 0.0254402 0)
(-0.0598277 0.0258954 0)
(-0.0645313 0.0262289 0)
(-0.0692538 0.0264307 0)
(-0.0739709 0.0264897 0)
(-0.0786569 0.0263946 0)
(-0.0832843 0.026134 0)
(-0.0878245 0.0256972 0)
(-0.0922477 0.0250743 0)
(-0.0965234 0.0242571 0)
(-0.100621 0.023239 0)
(-0.104508 0.0220156 0)
(-0.108155 0.020585 0)
(-0.111531 0.0189478 0)
(-0.114605 0.0171074 0)
(-0.117351 0.0150703 0)
(-0.119739 0.0128458 0)
(-0.121747 0.0104466 0)
(-0.12335 0.0078882 0)
(-0.124527 0.00518921 0)
(-0.125262 0.00237119 0)
(-0.12554 -0.0005416 0)
(-0.125348 -0.0035223 0)
(-0.124679 -0.00654171 0)
(-0.123529 -0.00956861 0)
(-0.121897 -0.0125701 0)
(-0.119788 -0.015512 0)
(-0.11721 -0.0183592 0)
(-0.114177 -0.0210763 0)
(-0.110704 -0.0236283 0)
(-0.106817 -0.0259806 0)
(-0.102541 -0.0281004 0)
(-0.0979089 -0.0299567 0)
(-0.0929575 -0.0315214 0)
(-0.087728 -0.0327697 0)
(-0.0822658 -0.0336811 0)
(-0.0766199 -0.0342397 0)
(-0.0708424 -0.0344346 0)
(-0.064988 -0.0342611 0)
(-0.0591132 -0.0337202 0)
(-0.0532752 -0.0328195 0)
(-0.0475311 -0.031573 0)
(-0.041937 -0.0300011 0)
(-0.0365468 -0.0281305 0)
(-0.0314112 -0.0259939 0)
(-0.0265765 -0.0236294 0)
(-0.0220839 -0.02108 0)
(-0.0179682 -0.018393 0)
(-0.0142573 -0.0156195 0)
(-0.0109714 -0.0128135 0)
(-0.00812213 -0.0100315 0)
(-0.00571276 -0.00733175 0)
(-0.00373735 -0.00477424 0)
(-0.00218089 -0.00242018 0)
(-0.00101913 -0.000332038 0)
(-0.000218688 0.00142648 0)
(0.000262955 0.00279019 0)
(0.000477452 0.0036922 0)
(0.000485055 0.00406345 0)
(0.000354225 0.00383247 0)
(0.000169394 0.00292491 0)
(3.7756e-05 0.00125913 0)
(-8.6806e-05 0.000855459 0)
(-0.000596271 0.00293218 0)
(-0.001707 0.00520871 0)
(-0.00330462 0.0075658 0)
(-0.00532583 0.00991934 0)
(-0.00773208 0.0122089 0)
(-0.0104854 0.0143938 0)
(-0.0135503 0.0164496 0)
(-0.0168956 0.0183643 0)
(-0.0204941 0.0201343 0)
(-0.0243215 0.021762 0)
(-0.0283565 0.0232531 0)
(-0.0325795 0.0246142 0)
(-0.0369727 0.0258518 0)
(-0.041519 0.0269705 0)
(-0.0462014 0.0279729 0)
(-0.0510026 0.0288586 0)
(-0.0559048 0.0296245 0)
(-0.0608886 0.0302647 0)
(-0.0659335 0.030771 0)
(-0.0710172 0.0311332 0)
(-0.076116 0.0313394 0)
(-0.0812042 0.0313771 0)
(-0.0862547 0.0312333 0)
(-0.0912388 0.0308953 0)
(-0.0961268 0.0303512 0)
(-0.100888 0.0295904 0)
(-0.10549 0.0286038 0)
(-0.109902 0.0273848 0)
(-0.114091 0.0259289 0)
(-0.118026 0.0242346 0)
(-0.121675 0.0223031 0)
(-0.125008 0.020139 0)
(-0.127996 0.0177501 0)
(-0.13061 0.0151474 0)
(-0.132826 0.0123455 0)
(-0.134619 0.00936218 0)
(-0.135968 0.00621864 0)
(-0.136853 0.00293923 0)
(-0.13726 -0.000448685 0)
(-0.137173 -0.00391494 0)
(-0.136585 -0.00742669 0)
(-0.13549 -0.0109489 0)
(-0.133884 -0.0144445 0)
(-0.131771 -0.0178751 0)
(-0.129157 -0.0212011 0)
(-0.126052 -0.0243824 0)
(-0.122475 -0.0273789 0)
(-0.118444 -0.0301515 0)
(-0.113986 -0.0326621 0)
(-0.109134 -0.0348749 0)
(-0.103922 -0.0367572 0)
(-0.0983921 -0.0382795 0)
(-0.0925906 -0.0394171 0)
(-0.0865676 -0.0401504 0)
(-0.0803772 -0.0404655 0)
(-0.0740767 -0.0403551 0)
(-0.0677256 -0.0398187 0)
(-0.0613853 -0.0388632 0)
(-0.0551173 -0.0375031 0)
(-0.0489826 -0.0357601 0)
(-0.0430405 -0.0336635 0)
(-0.0373473 -0.0312497 0)
(-0.0319551 -0.0285615 0)
(-0.0269108 -0.0256477 0)
(-0.0222548 -0.0225625 0)
(-0.0180204 -0.0193644 0)
(-0.0142326 -0.0161156 0)
(-0.0109078 -0.0128814 0)
(-0.00805297 -0.0097292 0)
(-0.00566562 -0.00672832 0)
(-0.0037334 -0.00394946 0)
(-0.00223419 -0.00146453 0)
(-0.00113608 0.000653331 0)
(-0.000397501 0.00232966 0)
(3.2651e-05 0.0034883 0)
(0.000214499 0.00405102 0)
(0.000216669 0.0039372 0)
(0.000121831 0.0030634 0)
(3.08615e-05 0.001339 0)
(-0.000101253 0.00118037 0)
(-0.000686339 0.00384647 0)
(-0.00195197 0.00665419 0)
(-0.00376018 0.00948779 0)
(-0.00603334 0.0122675 0)
(-0.00872384 0.0149376 0)
(-0.011786 0.0174624 0)
(-0.0151782 0.0198225 0)
(-0.0188645 0.02201 0)
(-0.0228141 0.0240257 0)
(-0.0270001 0.0258751 0)
(-0.0313993 0.0275666 0)
(-0.0359908 0.029109 0)
(-0.0407558 0.0305097 0)
(-0.0456762 0.0317742 0)
(-0.0507343 0.0329048 0)
(-0.0559123 0.0339008 0)
(-0.0611911 0.0347578 0)
(-0.066551 0.0354689 0)
(-0.0719702 0.0360241 0)
(-0.0774257 0.0364115 0)
(-0.0828926 0.0366177 0)
(-0.0883443 0.0366285 0)
(-0.0937526 0.0364293 0)
(-0.0990881 0.0360062 0)
(-0.10432 0.0353462 0)
(-0.109416 0.0344377 0)
(-0.114345 0.0332714 0)
(-0.119074 0.0318402 0)
(-0.12357 0.0301399 0)
(-0.127801 0.0281692 0)
(-0.131734 0.0259302 0)
(-0.13534 0.0234286 0)
(-0.138587 0.0206732 0)
(-0.141449 0.0176769 0)
(-0.143897 0.0144561 0)
(-0.145907 0.0110306 0)
(-0.147457 0.00742405 0)
(-0.148525 0.00366342 0)
(-0.149095 -0.000221013 0)
(-0.149151 -0.00419581 0)
(-0.148682 -0.00822482 0)
(-0.14768 -0.0122693 0)
(-0.146141 -0.0162881 0)
(-0.144064 -0.0202387 0)
(-0.141453 -0.0240768 0)
(-0.138318 -0.0277577 0)
(-0.134671 -0.0312363 0)
(-0.130532 -0.0344681 0)
(-0.125926 -0.03741 0)
(-0.120881 -0.0400209 0)
(-0.115433 -0.0422625 0)
(-0.109623 -0.0441005 0)
(-0.103498 -0.0455053 0)
(-0.0971079 -0.0464528 0)
(-0.090509 -0.0469254 0)
(-0.0837611 -0.0469124 0)
(-0.076927 -0.0464114 0)
(-0.0700719 -0.0454277 0)
(-0.0632621 -0.0439755 0)
(-0.056564 -0.0420776 0)
(-0.0500427 -0.0397656 0)
(-0.0437606 -0.0370791 0)
(-0.0377763 -0.0340656 0)
(-0.0321432 -0.03078 0)
(-0.0269082 -0.0272831 0)
(-0.0221105 -0.0236414 0)
(-0.017781 -0.0199258 0)
(-0.0139412 -0.0162108 0)
(-0.0106029 -0.0125736 0)
(-0.00776736 -0.00909352 0)
(-0.00542563 -0.00585137 0)
(-0.00355809 -0.00292918 0)
(-0.00213473 -0.000410072 0)
(-0.00111529 0.00162165 0)
(-0.000449494 0.00308025 0)
(-7.75631e-05 0.0038781 0)
(6.91393e-05 0.00392549 0)
(7.14159e-05 0.0031304 0)
(2.3767e-05 0.00139402 0)
(-0.000115631 0.00155145 0)
(-0.000775889 0.0048825 0)
(-0.0021954 0.00828214 0)
(-0.00421268 0.0116402 0)
(-0.00673576 0.0148831 0)
(-0.009708 0.0179621 0)
(-0.013076 0.0208482 0)
(-0.0167918 0.0235281 0)
(-0.0208148 0.0260001 0)
(-0.0251105 0.0282698 0)
(-0.0296496 0.0303472 0)
(-0.0344067 0.0322438 0)
(-0.0393599 0.0339707 0)
(-0.044489 0.0355371 0)
(-0.0497754 0.0369491 0)
(-0.0552008 0.038209 0)
(-0.0607464 0.0393154 0)
(-0.0663928 0.0402632 0)
(-0.0721193 0.0410438 0)
(-0.0779037 0.0416458 0)
(-0.083722 0.0420555 0)
(-0.0895487 0.0422579 0)
(-0.0953564 0.0422371 0)
(-0.101116 0.0419771 0)
(-0.106798 0.0414626 0)
(-0.112371 0.0406797 0)
(-0.117801 0.039616 0)
(-0.123058 0.0382617 0)
(-0.128107 0.0366097 0)
(-0.132916 0.0346557 0)
(-0.137452 0.0323991 0)
(-0.141682 0.0298425 0)
(-0.145575 0.0269926 0)
(-0.149101 0.0238595 0)
(-0.152231 0.0204574 0)
(-0.154936 0.0168044 0)
(-0.157191 0.0129225 0)
(-0.158972 0.00883718 0)
(-0.160256 0.00457801 0)
(-0.161024 0.000177881 0)
(-0.16126 -0.00432681 0)
(-0.160949 -0.0088967 0)
(-0.160081 -0.0134895 0)
(-0.158649 -0.0180603 0)
(-0.156649 -0.0225621 0)
(-0.154083 -0.0269465 0)
(-0.150956 -0.0311638 0)
(-0.147279 -0.0351637 0)
(-0.143069 -0.0388964 0)
(-0.138347 -0.0423131 0)
(-0.13314 -0.045367 0)
(-0.127484 -0.0480141 0)
(-0.121417 -0.0502142 0)
(-0.114985 -0.0519322 0)
(-0.108241 -0.0531389 0)
(-0.10124 -0.053812 0)
(-0.0940459 -0.0539368 0)
(-0.0867236 -0.0535076 0)
(-0.0793427 -0.0525279 0)
(-0.0719742 -0.0510107 0)
(-0.0646903 -0.0489792 0)
(-0.0575624 -0.0464666 0)
(-0.0506597 -0.0435157 0)
(-0.0440479 -0.0401785 0)
(-0.0377877 -0.0365156 0)
(-0.0319333 -0.0325949 0)
(-0.0265309 -0.0284912 0)
(-0.0216181 -0.0242845 0)
(-0.0172224 -0.0200591 0)
(-0.0133611 -0.0159027 0)
(-0.01004 -0.0119052 0)
(-0.00725411 -0.00815847 0)
(-0.00498687 -0.00475522 0)
(-0.00321059 -0.0017893 0)
(-0.00188665 0.000644599 0)