/*--------------------------------*- C++ -*----------------------------------*\
  =========                 |
  \\      /  F ield         | OpenFOAM: The Open Source CFD Toolbox
   \\    /   O peration     | Website:  https://openfoam.org
    \\  /    A nd           | Version:  7
     \\/     M anipulation  |
\*---------------------------------------------------------------------------*/
FoamFile
{
    version     2.0;
    format      ascii;
    class       volScalarField;
    location    "0.075";
    object      p;
}
// * * * * * * * * * * * * * * * * * * * * * * * * * * * * * * * * * * * * * //

dimensions      [0 2 -2 0 0 0 0];

internalField   nonuniform List<scalar> 
6400
(
7.62597e-10
2.65012e-06
-2.02124e-05
-7.12411e-05
-0.000142243
-0.000219664
-0.000295095
-0.000362248
-0.000416497
-0.000454501
-0.000474096
-0.000474018
-0.000453497
-0.000412055
-0.000349519
-0.000266007
-0.000161822
-3.73527e-05
0.000106939
0.000270508
0.000452769
0.000653141
0.000871048
0.00110588
0.00135696
0.00162363
0.00190522
0.00220111
0.00251064
0.00283311
0.0031678
0.00351398
0.00387091
0.00423786
0.00461405
0.00499862
0.0053907
0.00578933
0.00619359
0.00660249
0.00701501
0.00743006
0.00784649
0.0082631
0.0086787
0.00909206
0.00950195
0.00990711
0.0103062
0.010698
0.0110811
0.0114541
0.0118159
0.012165
0.0125003
0.0128203
0.0131239
0.0134097
0.0136766
0.0139232
0.0141486
0.0143515
0.0145311
0.0146864
0.0148167
0.0149214
0.015
0.0150525
0.0150788
0.0150797
0.0150561
0.0150096
0.0149426
0.0148585
0.0147617
0.0146586
0.0145571
0.0144683
0.0144063
0.0143828
4.64388e-05
4.77333e-05
2.7976e-05
-1.19617e-05
-6.55066e-05
-0.000124383
-0.000181856
-0.000232673
-0.000272802
-0.000299144
-0.000309454
-0.000302241
-0.000276536
-0.000231714
-0.00016744
-8.36324e-05
1.96356e-05
0.000142165
0.000283622
0.000443567
0.000621523
0.000817005
0.00102951
0.00125848
0.00150329
0.0017633
0.00203789
0.00232648
0.00262841
0.00294299
0.00326951
0.00360727
0.00395555
0.00431362
0.0046807
0.00505596
0.0054385
0.00582741
0.00622176
0.0066206
0.00702292
0.00742763
0.00783359
0.00823964
0.00864459
0.00904727
0.00944646
0.00984094
0.0102294
0.0106106
0.0109833
0.011346
0.0116977
0.012037
0.0123627
0.0126736
0.0129684
0.0132461
0.0135053
0.013745
0.0139641
0.0141618
0.0143372
0.0144896
0.0146183
0.0147229
0.0148033
0.0148594
0.0148917
0.0149008
0.014888
0.0148549
0.0148042
0.0147388
0.0146631
0.0145823
0.014503
0.0144331
0.0143825
0.0143591
0.000140072
0.000123277
9.44578e-05
5.4996e-05
7.76486e-06
-4.21192e-05
-8.95577e-05
-0.000130382
-0.00016133
-0.000179736
-0.000183507
-0.000171121
-0.000141525
-9.40464e-05
-2.83009e-05
5.5907e-05
0.000158644
0.00027983
0.00041921
0.000576428
0.000751101
0.00094283
0.00115116
0.00137555
0.00161541
0.00187018
0.00213928
0.00242214
0.00271811
0.0030265
0.00334664
0.00367783
0.00401938
0.00437058
0.00473062
0.00509867
0.00547385
0.00585526
0.006242
0.00663312
0.00702761
0.00742439
0.00782233
0.00822028
0.00861709
0.00901161
0.00940267
0.00978904
0.0101695
0.0105427
0.0109075
0.0112625
0.0116067
0.0119387
0.0122574
0.0125615
0.01285
0.0131216
0.0133753
0.01361
0.0138248
0.0140188
0.0141913
0.0143416
0.0144693
0.0145741
0.0146559
0.0147148
0.0147514
0.0147664
0.0147611
0.0147372
0.0146971
0.0146437
0.0145806
0.0145123
0.014444
0.0143817
0.0143311
0.0142967
0.000256467
0.000215306
0.000172508
0.000127294
7.94087e-05
3.21204e-05
-1.087e-05
-4.63941e-05
-7.18577e-05
-8.51253e-05
-8.44389e-05
-6.83912e-05
-3.59571e-05
1.35152e-05
8.04263e-05
0.000165037
0.00026747
0.000387673
0.000525445
0.000680517
0.000852598
0.00104134
0.00124629
0.00146696
0.00170281
0.00195332
0.00221798
0.00249619
0.00278734
0.00309074
0.00340574
0.00373168
0.00406788
0.00441362
0.00476808
0.00513043
0.0054998
0.00587532
0.00625608
0.00664114
0.00702949
0.00742005
0.0078117
0.00820332
0.0085938
0.008982
0.00936676
0.00974688
0.0101211
0.0104883
0.0108471
0.0111963
0.0115348
0.0118614
0.0121748
0.0124741
0.0127578
0.0130251
0.0132748
0.0135059
0.0137175
0.0139089
0.0140794
0.0142284
0.0143555
0.0144605
0.0145434
0.0146044
0.014644
0.0146631
0.0146629
0.014645
0.0146115
0.014565
0.0145085
0.0144458
0.0143809
0.0143184
0.0142603
0.0142073
0.000377896
0.000312568
0.000254905
0.000201764
0.000150265
0.000102548
6.11506e-05
2.83732e-05
6.24046e-06
-3.58187e-06
3.22941e-07
1.91343e-05
5.37347e-05
0.000104734
0.000172558
0.000257492
0.000359653
0.000478992
0.000615355
0.000768556
0.000938368
0.00112447
0.00132643
0.00154379
0.00177609
0.00202285
0.00228358
0.00255771
0.00284461
0.00314363
0.00345417
0.00377557
0.00410716
0.00444819
0.00479785
0.00515531
0.00551972
0.00589022
0.0062659
0.00664582
0.00702895
0.00741423
0.00780056
0.00818685
0.008572
0.00895491
0.00933442
0.00970936
0.0100785
0.0104406
0.0107945
0.0111391
0.011473
0.0117952
0.0121045
0.0123998
0.0126799
0.0129437
0.0131903
0.0134186
0.0136278
0.0138172
0.0139862
0.0141342
0.0142609
0.0143662
0.01445
0.0145126
0.0145545
0.0145766
0.01458
0.0145662
0.014537
0.0144946
0.0144415
0.0143806
0.0143152
0.0142488
0.0141795
0.0141048
0.000496885
0.000408344
0.000335746
0.000273637
0.000216708
0.000166438
0.00012458
9.26375e-05
7.20838e-05
6.42337e-05
7.0203e-05
9.08962e-05
0.000127013
0.000179104
0.000247584
0.000332709
0.000434562
0.000553105
0.000688241
0.000839836
0.00100769
0.00119148
0.00139082
0.0016053
0.00183453
0.00207807
0.00233542
0.00260603
0.00288929
0.0031846
0.00349136
0.00380896
0.00413669
0.00447379
0.00481945
0.00517286
0.00553318
0.00589956
0.00627108
0.00664678
0.00702565
0.00740663
0.00778864
0.00817063
0.00855151
0.00893019
0.00930554
0.00967639
0.0100415
0.0103998
0.0107499
0.0110908
0.0114213
0.0117403
0.0120465
0.0123388
0.0126162
0.0128775
0.0131218
0.013348
0.0135556
0.0137436
0.0139116
0.014059
0.0141855
0.014291
0.0143755
0.0144393
0.0144829
0.0145071
0.0145128
0.0145015
0.0144746
0.0144341
0.0143819
0.0143201
0.0142515
0.0141786
0.0140965
0.0139999
0.000607836
0.000497536
0.000410451
0.000338974
0.000275503
0.000221177
0.000177288
0.000144694
0.000124363
0.000117279
0.00012427
0.000146
0.000183021
0.0002358
0.000304677
0.000389833
0.000491323
0.000609136
0.000743218
0.000893456
0.00105964
0.00124146
0.00143857
0.00165064
0.00187731
0.00211816
0.0023727
0.00264039
0.00292065
0.00321294
0.00351666
0.0038312
0.00415584
0.00448981
0.00483231
0.00518254
0.00553967
0.00590285
0.00627115
0.00664361
0.0070192
0.0073969
0.00777565
0.00815441
0.00853212
0.0089077
0.00928002
0.00964792
0.0100102
0.0103657
0.0107132
0.0110517
0.0113798
0.0116966
0.0120008
0.0122912
0.0125668
0.0128265
0.0130693
0.0132944
0.0135009
0.0136882
0.0138556
0.0140028
0.0141293
0.0142351
0.0143203
0.0143849
0.0144296
0.014455
0.0144621
0.0144518
0.0144257
0.0143852
0.0143318
0.0142673
0.0141936
0.0141128
0.0140174
0.0138998
0.000706432
0.000576189
0.000475357
0.000394526
0.000324046
0.000264782
0.000217767
0.000183425
0.000162316
0.000155069
0.000162241
0.000184314
0.000221723
0.000274819
0.000343828
0.000428854
0.00052994
0.000647099
0.000780289
0.000929381
0.00109415
0.00127433
0.00146962
0.00167974
0.00190435
0.00214303
0.00239531
0.00266067
0.00293859
0.00322853
0.00352993
0.00384214
0.00416444
0.00449606
0.00483621
0.00518411
0.00553894
0.00589982
0.00626583
0.00663599
0.00700929
0.00738472
0.00776125
0.00813787
0.00851351
0.00888711
0.00925752
0.0096236
0.00998417
0.0103381
0.0106841
0.0110212
0.0113481
0.0116637
0.0119669
0.0122564
0.0125311
0.0127901
0.0130323
0.0132569
0.0134631
0.0136502
0.0138176
0.0139649
0.0140917
0.0141979
0.0142835
0.0143488
0.0143942
0.0144202
0.0144277
0.0144175
0.0143909
0.0143491
0.0142932
0.0142244
0.0141446
0.0140552
0.0139467
0.0138099
0.000789459
0.000641232
0.000527526
0.000437588
0.000360018
0.000295383
0.000244575
0.000207734
0.000185083
0.000176942
0.000183651
0.000205548
0.00024293
0.000296007
0.000364895
0.000449656
0.000550329
0.000666922
0.000799364
0.000947501
0.00111112
0.00128998
0.00148386
0.00169248
0.00191552
0.00215254
0.00240311
0.00266675
0.00294296
0.00323124
0.003531
0.0038416
0.0041623
0.00449233
0.00483094
0.00517735
0.00553074
0.00589021
0.00625484
0.00662364
0.00699563
0.00736981
0.00774519
0.00812073
0.00849541
0.00886812
0.00923776
0.00960315
0.00996313
0.0103165
0.0106622
0.010999
0.0113257
0.0116412
0.0119443
0.0122338
0.0125086
0.0127678
0.0130102
0.013235
0.0134416
0.013629
0.0137969
0.0139446
0.014072
0.0141787
0.0142649
0.0143307
0.0143763
0.0144024
0.0144097
0.0143988
0.0143708
0.0143267
0.0142673
0.0141935
0.014107
0.0140088
0.013888
0.0137339
0.000854449
0.000690213
0.000564645
0.000465963
0.000381372
0.000311234
0.00025629
0.000216454
0.00019169
0.000182109
0.000187889
0.000209215
0.000246222
0.00029899
0.000367562
0.000451977
0.000552255
0.000668365
0.000800191
0.000947566
0.0011103
0.00128822
0.00148109
0.00168866
0.00191059
0.00214647
0.00239589
0.00265841
0.00293357
0.00322085
0.00351966
0.00382934
0.00414916
0.00447838
0.00481625
0.00516201
0.00551481
0.00587376
0.00623792
0.00660631
0.00697799
0.00735196
0.00772723
0.0081028
0.00847761
0.00885057
0.00922054
0.00958636
0.00994687
0.0103009
0.0106473
0.0109849
0.0113124
0.0116288
0.0119328
0.0122232
0.012499
0.0127591
0.0130025
0.0132283
0.0134358
0.0136243
0.0137931
0.0139417
0.0140699
0.0141773
0.014264
0.0143301
0.0143759
0.0144017
0.0144082
0.014396
0.014366
0.0143188
0.0142553
0.0141761
0.0140826
0.0139758
0.0138435
0.013674
0.000899494
0.000721133
0.000584791
0.000477835
0.000386418
0.000310795
0.000251549
0.000208399
0.000181149
0.000169769
0.000174287
0.00019472
0.000231063
0.000283304
0.000351445
0.000435488
0.000535406
0.000651111
0.000782457
0.000929287
0.00109145
0.00126877
0.00146105
0.00166801
0.00188931
0.00212457
0.00237341
0.00263543
0.00291017
0.0031971
0.00349563
0.00380509
0.00412477
0.00445395
0.00479189
0.00513783
0.0054909
0.00585021
0.00621483
0.00658379
0.00695616
0.00733097
0.00770723
0.00808392
0.00845997
0.00883429
0.00920572
0.0095731
0.00993526
0.010291
0.0106392
0.0109786
0.011308
0.0116263
0.0119321
0.0122244
0.012502
0.0127639
0.013009
0.0132366
0.0134457
0.0136357
0.0138059
0.0139558
0.0140851
0.0141934
0.0142807
0.0143471
0.0143927
0.014418
0.0144234
0.0144095
0.0143769
0.0143263
0.0142582
0.0141733
0.0140728
0.0139577
0.0138148
0.0136317
0.000923218
0.0007324
0.000586337
0.000471683
0.000373731
0.000292698
0.000229076
0.000182449
0.000152514
0.000139112
0.000142115
0.000161401
0.000196871
0.000248458
0.000316119
0.000399798
0.000499398
0.00061479
0.000745823
0.00089236
0.00105427
0.00123138
0.00142346
0.00163024
0.00185138
0.00208655
0.0023354
0.00259754
0.00287249
0.00315973
0.00345864
0.00376858
0.00408886
0.00441878
0.0047576
0.00510454
0.00545876
0.00581934
0.00618535
0.00655587
0.00692997
0.00730669
0.00768503
0.00806395
0.00844238
0.00881918
0.00919321
0.00956327
0.00992819
0.0102868
0.0106378
0.0109801
0.0113124
0.0116335
0.0119422
0.0122373
0.0125176
0.012782
0.0130297
0.0132597
0.0134711
0.0136632
0.0138353
0.0139869
0.0141175
0.0142269
0.0143148
0.0143815
0.0144269
0.0144514
0.0144554
0.0144394
0.0144039
0.0143495
0.0142768
0.014186
0.0140786
0.0139557
0.0138032
0.013608
0.000924743
0.000722837
0.000567982
0.000446198
0.000342034
0.000255719
0.00018774
0.000137599
0.000104882
8.93018e-05
9.06033e-05
0.000108576
0.000143062
0.000193947
0.000261121
0.000344456
0.000443802
0.000559009
0.000689938
0.000836463
0.000998448
0.0011757
0.00136798
0.00157502
0.00179651
0.00203214
0.00228158
0.00254444
0.00282023
0.00310841
0.00340837
0.0037195
0.00404114
0.00437258
0.00471309
0.00506189
0.00541812
0.00578088
0.00614926
0.00652236
0.00689925
0.00727896
0.00766049
0.00804277
0.00842469
0.00880511
0.00918286
0.00955674
0.00992554
0.0102881
0.0106431
0.0109893
0.0113255
0.0116505
0.0119629
0.0122617
0.0125456
0.0128135
0.0130645
0.0132976
0.0135119
0.0137067
0.0138812
0.0140347
0.014167
0.0142776
0.0143664
0.0144333
0.0144784
0.014502
0.0145044
0.0144861
0.0144475
0.0143892
0.0143115
0.014215
0.014101
0.0139707
0.0138093
0.0136033
0.000903512
0.000691581
0.000528679
0.00040025
0.000290185
0.000198786
0.000126558
7.29273e-05
3.73732e-05
1.95069e-05
1.89989e-05
3.55856e-05
6.906e-05
0.00011924
0.000185944
0.00026898
0.000368171
0.000483368
0.000614437
0.000761245
0.000923634
0.00110139
0.00129427
0.00150202
0.00172437
0.00196102
0.00221163
0.0024758
0.00275303
0.00304279
0.0033445
0.00365754
0.00398128
0.00431503
0.00465805
0.00500956
0.00536869
0.00573458
0.00610632
0.00648303
0.00686378
0.00724758
0.0076334
0.00802016
0.00840671
0.00879188
0.00917449
0.00955332
0.00992714
0.0102947
0.0106547
0.011006
0.0113472
0.011677
0.0119942
0.0122976
0.012586
0.0128583
0.0131134
0.0133503
0.0135682
0.0137661
0.0139434
0.0140994
0.0142336
0.0143456
0.0144353
0.0145025
0.0145473
0.01457
0.0145707
0.0145499
0.0145081
0.0144457
0.0143632
0.014261
0.0141406
0.0140032
0.0138337
0.0136179
0.000859093
0.000637947
0.000467564
0.000332896
0.000217246
0.000120987
4.46394e-05
-1.24447e-05
-5.08636e-05
-7.10597e-05
-7.34001e-05
-5.81952e-05
-2.57166e-05
2.378e-05
9.00496e-05
0.000172869
0.000272054
0.000387455
0.000518928
0.000666314
0.000829429
0.00100805
0.00120195
0.00141088
0.0016346
0.00187281
0.00212516
0.00239122
0.00267052
0.0029625
0.00326663
0.00358232
0.00390894
0.00424579
0.00459214
0.00494721
0.00531016
0.00568014
0.00605625
0.00643761
0.00682328
0.00721227
0.00760349
0.00799584
0.00838814
0.0087792
0.00916782
0.00955274
0.0099327
0.0103064
0.0106726
0.01103
0.0113772
0.011713
0.012036
0.012345
0.0126388
0.0129163
0.0131763
0.0134178
0.0136399
0.0138416
0.0140222
0.014181
0.0143174
0.0144311
0.0145218
0.0145894
0.014634
0.0146556
0.0146546
0.0146313
0.0145862
0.0145197
0.0144324
0.0143247
0.0141981
0.0140541
0.0138769
0.0136521
0.000791098
0.000561359
0.000383944
0.000243383
0.000122437
2.15106e-05
-5.88555e-05
-0.000119353
-0.000160618
-0.000183117
-0.000187251
-0.000173389
-0.000141876
-9.30244e-05
-2.7115e-05
5.56188e-05
0.000154989
0.00027083
0.000402971
0.000551225
0.000715391
0.000895251
0.00109059
0.00130119
0.0015268
0.0017671
0.00202174
0.00229028
0.00257224
0.00286712
0.00317437
0.00349344
0.0038237
0.00416445
0.00451497
0.00487448
0.00524218
0.00561721
0.0059987
0.00638575
0.00677742
0.00717266
0.00757038
0.00796942
0.0083686
0.00876669
0.00916245
0.00955461
0.00994188
0.0103229
0.0106964
0.011061
0.0114154
0.0117582
0.012088
0.0124037
0.0127039
0.0129874
0.0132532
0.0135
0.013727
0.0139331
0.0141175
0.0142795
0.0144185
0.0145342
0.0146262
0.0146943
0.0147387
0.0147594
0.0147566
0.0147308
0.0146825
0.014612
0.01452
0.0144068
0.0142742
0.0141238
0.0139393
0.013706
0.000699226
0.00046135
0.000277262
0.000131077
5.04107e-06
-0.000100418
-0.000184724
-0.000248572
-0.000292613
-0.000317342
-0.000323211
-0.000310653
-0.000280062
-0.000231788
-0.000166119
-8.3299e-05
1.64681e-05
0.000132988
0.000266058
0.00041547
0.000581023
0.000762514
0.00095974
0.00117248
0.00140048
0.00164341
0.00190088
0.00217247
0.00245773
0.00275616
0.00306726
0.00339045
0.00372512
0.00407058
0.00442611
0.00479097
0.00516434
0.0055454
0.00593329
0.00632707
0.00672578
0.00712835
0.00753364
0.00794047
0.00834762
0.00875386
0.00915792
0.00955848
0.00995421
0.0103438
0.0107257
0.0110988
0.0114614
0.0118124
0.0121502
0.0124735
0.0127811
0.0130717
0.0133441
0.0135971
0.0138296
0.0140407
0.0142295
0.0143952
0.0145373
0.0146552
0.0147487
0.0148177
0.014862
0.0148819
0.0148775
0.0148493
0.0147976
0.0147232
0.0146264
0.0145079
0.0143694
0.0142127
0.014021
0.0137794
0.000583248
0.000337533
0.000147004
-4.63619e-06
-0.000135646
-0.000245544
-0.000333703
-0.000400812
-0.00044754
-0.000474428
-0.000481986
-0.000470687
-0.000440954
-0.000393145
-0.00032756
-0.00024446
-0.000144081
-2.66491e-05
0.000107609
0.000258482
0.000425779
0.000609308
0.000808867
0.00102423
0.00125511
0.00150116
0.00176202
0.00203726
0.00232646
0.00262912
0.00294477
0.00327284
0.0036127
0.00396369
0.00432511
0.0046962
0.00507621
0.00546429
0.00585956
0.0062611
0.00666788
0.00707882
0.00749275
0.00790845
0.0083247
0.00874023
0.00915373
0.00956386
0.00996925
0.0103685
0.0107601
0.0111428
0.011515
0.0118752
0.0122222
0.0125543
0.0128704
0.013169
0.0134489
0.0137089
0.0139478
0.0141646
0.0143584
0.0145284
0.014674
0.0147946
0.0148901
0.01496
0.0150046
0.0150238
0.0150179
0.0149872
0.0149324
0.014854
0.0147525
0.0146286
0.0144842
0.0143211
0.0141223
0.0138724
0.000442933
0.000189508
-7.36297e-06
-0.000164389
-0.000300306
-0.000414562
-0.000506481
-0.000576767
-0.000626119
-0.000655126
-0.000664331
-0.000654228
-0.000625248
-0.000577759
-0.000512082
-0.00042851
-0.000327312
-0.000208737
-7.30181e-05
7.96399e-05
0.000249056
0.000435038
0.000637372
0.000855811
0.00109006
0.00133976
0.00160455
0.00188405
0.00217783
0.00248543
0.00280635
0.00314005
0.00348591
0.00384326
0.00421143
0.00458969
0.00497727
0.00537335
0.00577701
0.00618731
0.00660319
0.00702353
0.00744716
0.00787283
0.00829928
0.00872524
0.00914936
0.00957026
0.00998652
0.0103967
0.0107993
0.0111928
0.0115757
0.0119465
0.0123038
0.0126459
0.0129716
0.0132793
0.0135677
0.0138356
0.0140818
0.0143051
0.0145046
0.0146795
0.0148292
0.014953
0.0150507
0.0151221
0.015167
0.0151857
0.0151784
0.0151455
0.0150874
0.015005
0.0148987
0.0147692
0.0146188
0.0144492
0.0142432
0.0139847
0.000277982
1.68163e-05
-0.000186402
-0.000348802
-0.000489588
-0.000608145
-0.000703768
-0.000777189
-0.000829143
-0.000860239
-0.000871036
-0.000862034
-0.000833673
-0.000786346
-0.000720404
-0.000636174
-0.000533949
-0.000413985
-0.000276509
-0.00012172
5.02009e-05
0.000239049
0.00044459
0.00066656
0.000904652
0.00115853
0.00142783
0.0017122
0.00201123
0.00232445
0.00265138
0.00299147
0.00334412
0.00370868
0.00408448
0.00447083
0.00486695
0.00527199
0.00568503
0.00610508
0.00653107
0.00696187
0.00739626
0.00783299
0.00827079
0.00870835
0.00914429
0.00957719
0.0100056
0.0104279
0.0108427
0.0112484
0.0116434
0.0120261
0.0123949
0.0127482
0.0130846
0.0134025
0.0137006
0.0139774
0.0142317
0.0144624
0.0146685
0.014849
0.0150033
0.0151309
0.0152313
0.0153044
0.0153501
0.0153684
0.0153598
0.0153245
0.0152632
0.0151766
0.0150653
0.0149302
0.0147735
0.0145972
0.0143836
0.0141164
8.80275e-05
-0.000181035
-0.000390682
-0.000558484
-0.000704147
-0.000827009
-0.000926343
-0.00100291
-0.00105745
-0.0010906
-0.0011029
-0.00109488
-0.001067
-0.00101968
-0.000953309
-0.000868236
-0.000764759
-0.000643133
-0.000503579
-0.000346298
-0.000171486
2.06324e-05
0.000229804
0.000455756
0.000698186
0.000956768
0.00123117
0.00152104
0.00182597
0.00214551
0.00247917
0.00282641
0.00318665
0.00355926
0.0039436
0.00433895
0.00474453
0.00515949
0.00558288
0.00601368
0.00645081
0.00689311
0.00733935
0.00778828
0.0082386
0.00868897
0.00913797
0.00958415
0.010026
0.0104619
0.0108902
0.0113094
0.0117177
0.0121136
0.0124952
0.012861
0.0132094
0.0135387
0.0138475
0.0141343
0.0143979
0.0146369
0.0148503
0.0150373
0.015197
0.0153289
0.0154325
0.0155077
0.0155543
0.0155725
0.0155625
0.0155249
0.0154602
0.0153693
0.0152528
0.0151118
0.0149485
0.0147652
0.0145438
0.0142673
-0.000127335
-0.000404547
-0.000620782
-0.000794081
-0.000944702
-0.00107195
-0.00117505
-0.00125478
-0.0013119
-0.00134703
-0.00136074
-0.00135358
-0.00132604
-0.00127859
-0.00121163
-0.00112551
-0.00102053
-0.000896937
-0.000754969
-0.000594836
-0.000416755
-0.000220971
-7.7484e-06
0.000222642
0.000469911
0.000733749
0.00101384
0.00130982
0.00162131
0.00194784
0.00228895
0.0026441
0.00301273
0.00339424
0.00378797
0.00419322
0.00460919
0.00503501
0.00546971
0.00591225
0.00636154
0.00681641
0.00727563
0.00773793
0.00820198
0.00866642
0.0091298
0.00959059
0.0100472
0.010498
0.0109413
0.0113754
0.0117985
0.0122088
0.0126047
0.0129843
0.0133459
0.0136879
0.0140087
0.0143067
0.0145805
0.0148289
0.0150507
0.0152449
0.0154107
0.0155475
0.0156548
0.0157324
0.0157803
0.0157984
0.0157872
0.0157472
0.015679
0.0155836
0.0154617
0.0153143
0.0151442
0.0149536
0.0147239
0.0144377
-0.00036856
-0.00065427
-0.000877346
-0.00105632
-0.00121206
-0.0013438
-0.00145075
-0.00153366
-0.00159332
-0.00163036
-0.00164539
-0.00163899
-0.00161168
-0.00156395
-0.0014962
-0.0014088
-0.00130204
-0.00117617
-0.00103146
-0.000868121
-0.000686406
-0.000486568
-0.00026887
-3.35759e-05
0.000219039
0.000488677
0.000775024
0.00107773
0.00139641
0.0017306
0.00207986
0.00244366
0.00282147
0.00321268
0.00361666
0.00403268
0.00445995
0.00489755
0.0053445
0.00579978
0.00626227
0.00673081
0.00720417
0.00768104
0.0081601
0.00863992
0.00911902
0.00959581
0.0100686
0.0105358
0.0109954
0.0114459
0.0118852
0.0123115
0.012723
0.0131178
0.0134941
0.0138501
0.0141841
0.0144946
0.0147799
0.0150388
0.0152699
0.0154723
0.0156449
0.0157873
0.0158988
0.0159793
0.0160286
0.0160468
0.0160344
0.015992
0.0159201
0.0158199
0.0156923
0.0155385
0.0153611
0.0151628
0.0149243
0.0146278
-0.000636194
-0.000930855
-0.0011611
-0.00134602
-0.00150705
-0.00164343
-0.00175428
-0.00184039
-0.00190256
-0.00194146
-0.00195774
-0.00195201
-0.00192481
-0.00187663
-0.00180789
-0.00171894
-0.00161011
-0.00148167
-0.00133388
-0.001167
-0.000981297
-0.000777014
-0.000554413
-0.000313748
-5.5283e-05
0.000220688
0.000513852
0.000823866
0.00115034
0.00149284
0.00185093
0.00222411
0.00261185
0.00301357
0.00342861
0.00385626
0.00429568
0.00474597
0.00520614
0.00567515
0.00615191
0.00663525
0.00712392
0.00761663
0.00811199
0.00860856
0.00910478
0.00959902
0.0100895
0.0105745
0.011052
0.0115203
0.0119773
0.0124212
0.0128498
0.0132613
0.0136537
0.0140252
0.0143739
0.0146981
0.0149962
0.0152667
0.0155083
0.0157198
0.0159002
0.0160488
0.0161651
0.0162488
0.0162998
0.0163184
0.0163048
0.0162599
0.0161843
0.0160792
0.0159456
0.0157849
0.0155999
0.0153936
0.0151457
0.0148381
-0.00093089
-0.00123503
-0.00147284
-0.00166397
-0.00183052
-0.00197166
-0.0020865
-0.00217584
-0.00224052
-0.00228127
-0.00229874
-0.00229358
-0.00226635
-0.00221753
-0.00214756
-0.00205682
-0.00194564
-0.00181432
-0.00166315
-0.00149242
-0.00130236
-0.00109324
-0.000865308
-0.000618809
-0.000354007
-7.11915e-05
0.000229323
0.000547198
0.000882059
0.0012335
0.00160108
0.00198434
0.00238276
0.00279576
0.00322266
0.00366274
0.00411518
0.00457906
0.0050534
0.00553717
0.00602928
0.00652857
0.00703379
0.00754361
0.00805662
0.00857133
0.00908612
0.00959927
0.010109
0.0106133
0.0111103
0.011598
0.0120743
0.0125372
0.0129846
0.0134144
0.0138246
0.0142131
0.014578
0.0149174
0.0152296
0.0155131
0.0157662
0.0159878
0.0161768
0.0163325
0.0164542
0.0165416
0.0165948
0.0166138
0.0165993
0.0165518
0.0164724
0.0163622
0.0162224
0.0160545
0.0158615
0.0156464
0.0153886
0.0150689
-0.00125336
-0.00156756
-0.00181335
-0.002011
-0.00218328
-0.00232935
-0.00244828
-0.00254093
-0.00260818
-0.00265076
-0.00266938
-0.00266468
-0.00263725
-0.0025876
-0.00251618
-0.00242339
-0.0023096
-0.00217514
-0.0020203
-0.00184538
-0.00165062
-0.00143627
-0.00120258
-0.000949802
-0.000678196
-0.000388053
-7.96825e-05
0.000246591
0.000590412
0.000951394
0.00132912
0.00172315
0.00213297
0.00255798
0.00299752
0.00345086
0.00391717
0.00439555
0.00488504
0.00538461
0.00589319
0.00640962
0.00693265
0.00746091
0.00799294
0.00852721
0.00906202
0.00959558
0.010126
0.0106512
0.0111693
0.0116781
0.0121754
0.0126591
0.013127
0.0135768
0.0140064
0.0144136
0.0147963
0.0151525
0.0154803
0.015778
0.016044
0.0162769
0.0164755
0.016639
0.0167668
0.0168586
0.0169143
0.0169342
0.0169187
0.0168688
0.0167855
0.01667
0.0165237
0.0163481
0.0161465
0.0159221
0.0156534
0.0153206
-0.00160437
-0.00192926
-0.00218348
-0.00238796
-0.00256625
-0.00271745
-0.00284065
-0.00293672
-0.00300658
-0.00305099
-0.00307069
-0.00306634
-0.00303856
-0.00298788
-0.0029148
-0.00281975
-0.00270311
-0.00256524
-0.00240644
-0.00222699
-0.00202717
-0.0018072
-0.00156735
-0.00130787
-0.00102902
-0.00073109
-0.000414375
-7.91827e-05
0.000274158
0.000645284
0.0010338
0.00143926
0.00186116
0.00229892
0.00275186
0.00321926
0.00370031
0.00419413
0.00469977
0.00521622
0.00574243
0.00627723
0.00681935
0.00736738
0.00791983
0.00847508
0.00903139
0.00958689
0.0101396
0.0106874
0.0112282
0.0117598
0.0122798
0.0127862
0.0132764
0.0137481
0.0141989
0.0146266
0.0150288
0.0154035
0.0157485
0.016062
0.0163422
0.0165876
0.0167969
0.0169693
0.017104
0.0172008
0.0172595
0.0172805
0.0172644
0.0172121
0.0171247
0.0170036
0.0168504
0.0166665
0.0164556
0.0162211
0.0159405
0.0155935
-0.00198471
-0.00232097
-0.00258412
-0.00279581
-0.00298043
-0.00313704
-0.0032647
-0.00336432
-0.00343685
-0.00348308
-0.00350379
-0.00349968
-0.0034714
-0.00341953
-0.0033446
-0.00324707
-0.00312735
-0.0029858
-0.00282274
-0.00263845
-0.00243319
-0.00220724
-0.00196084
-0.00169425
-0.00140774
-0.00110158
-0.000776047
-0.000431424
-6.80139e-05
0.000313841
0.000713754
0.0011313
0.00156597
0.00201718
0.00248428
0.00296656
0.00346323
0.00397343
0.00449625
0.0050307
0.00557571
0.00613013
0.00669264
0.00726181
0.00783607
0.00841376
0.00899306
0.00957205
0.0101486
0.0107207
0.011286
0.0118421
0.0123869
0.0129177
0.0134322
0.0139277
0.0144018
0.0148519
0.0152756
0.0156705
0.0160345
0.0163653
0.0166612
0.0169205
0.0171419
0.0173242
0.0174667
0.0175692
0.0176316
0.0176541
0.0176375
0.0175828
0.0174911
0.0173641
0.0172034
0.0170106
0.0167895
0.0165439
0.0162504
0.015888
-0.00239531
-0.00274368
-0.00301632
-0.00323567
-0.00342698
-0.0035893
-0.00372163
-0.00382492
-0.00390017
-0.00394823
-0.00396989
-0.00396593
-0.00393703
-0.00388382
-0.00380687
-0.00370665
-0.0035836
-0.00343809
-0.00327045
-0.00308098
-0.00286996
-0.00263766
-0.00238435
-0.00211028
-0.00181571
-0.00150088
-0.00116606
-0.000811507
-0.000437493
-4.43435e-05
0.000367565
0.000797809
0.0012459
0.00171128
0.00219329
0.00269126
0.00320444
0.003732
0.00427305
0.00482661
0.00539162
0.00596689
0.0065511
0.00714276
0.00774025
0.00834184
0.00894567
0.00954973
0.0101519
0.01075
0.0113415
0.0119243
0.0124956
0.0130531
0.0135939
0.0141154
0.0146148
0.0150894
0.0155366
0.0159537
0.0163385
0.0166885
0.0170018
0.0172765
0.0175112
0.0177047
0.0178561
0.0179652
0.0180317
0.0180562
0.0180393
0.0179821
0.0178859
0.0177525
0.0175835
0.017381
0.0171488
0.0168911
0.0165836
0.0162044
-0.0028372
-0.0031985
-0.00348126
-0.00370875
-0.00390716
-0.00407549
-0.0042127
-0.0043198
-0.00439785
-0.00444773
-0.00447032
-0.00446642
-0.0044368
-0.00438211
-0.00430294
-0.00419981
-0.00407317
-0.00392342
-0.00375089
-0.00355592
-0.00333881
-0.00309984
-0.00283926
-0.00255735
-0.00225432
-0.00193041
-0.00158585
-0.00122088
-0.000835749
-0.000430764
-6.29378e-06
0.00043725
0.000899403
0.00137962
0.0018773
0.00239178
0.00292235
0.00346823
0.00402855
0.00460233
0.00518849
0.00578585
0.00639303
0.00700852
0.00763066
0.00825763
0.00888754
0.00951834
0.0101479
0.0107738
0.0113936
0.0120049
0.012605
0.0131912
0.0137606
0.0143103
0.0148373
0.0153387
0.0158116
0.0162531
0.0166607
0.0170319
0.0173645
0.0176564
0.0179059
0.0181119
0.0182734
0.0183899
0.0184613
0.0184881
0.0184711
0.0184112
0.0183102
0.0181698
0.0179918
0.0177786
0.0175344
0.0172636
0.0169409
0.0165434
-0.00331156
-0.00368666
-0.00398023
-0.00421637
-0.00442229
-0.00459694
-0.00473926
-0.00485033
-0.00493125
-0.004983
-0.00500649
-0.00500261
-0.00497214
-0.00491581
-0.00483422
-0.00472794
-0.00459743
-0.00444314
-0.00426544
-0.00406468
-0.00384117
-0.0035952
-0.00332704
-0.00303693
-0.00272507
-0.00239167
-0.00203693
-0.00166108
-0.00126435
-0.000847018
-0.000409449
4.7964e-05
0.000524789
0.00102053
0.0015346
0.00206638
0.00261522
0.00318036
0.00376095
0.00435601
0.00496446
0.00558507
0.00621648
0.00685711
0.00750527
0.00815913
0.00881673
0.00947598
0.0101346
0.0107904
0.0114406
0.0120826
0.0127137
0.013331
0.0139314
0.0145116
0.0150687
0.0155993
0.0161002
0.0165685
0.0170013
0.0173959
0.0177497
0.0180607
0.0183269
0.0185469
0.0187196
0.0188446
0.0189216
0.0189512
0.018934
0.0188715
0.0187652
0.0186171
0.0184295
0.0182047
0.0179474
0.0176623
0.0173231
0.0169058
-0.00381966
-0.00420951
-0.00451457
-0.00475991
-0.00497376
-0.00515507
-0.00530277
-0.00541797
-0.00550189
-0.00555554
-0.00557993
-0.00557598
-0.00554455
-0.00548638
-0.00540215
-0.00529246
-0.00515784
-0.00499874
-0.00481559
-0.00460876
-0.00437858
-0.00412532
-0.00384926
-0.0035506
-0.00322954
-0.00288625
-0.00252092
-0.00213376
-0.00172497
-0.00129482
-0.000843643
-0.000371813
0.000120277
0.000632177
0.00116336
0.00171323
0.00228116
0.00286646
0.00346827
0.00408563
0.00471742
0.00536242
0.00601923
0.00668628
0.00736186
0.00804409
0.008731
0.00942047
0.0101102
0.0107978
0.0114805
0.0121556
0.0128201
0.0134709
0.0141047
0.0147182
0.0153079
0.0158703
0.016402
0.0168996
0.0173601
0.0177805
0.018158
0.0184901
0.0187748
0.0190105
0.0191959
0.0193305
0.0194139
0.0194467
0.0194297
0.0193643
0.0192523
0.0190961
0.0188979
0.0186606
0.0183891
0.0180885
0.0177313
0.0172924
-0.00436283
-0.00476841
-0.00508572
-0.00534081
-0.00556308
-0.00575143
-0.00590478
-0.00602434
-0.00611137
-0.00616698
-0.00619223
-0.00618812
-0.00615556
-0.00609538
-0.0060083
-0.00589497
-0.00575598
-0.00559184
-0.00540299
-0.00518983
-0.0049527
-0.00469187
-0.00440759
-0.00410006
-0.00376944
-0.00341589
-0.00303958
-0.00264069
-0.00221941
-0.00177599
-0.00131072
-0.000823947
-0.000316016
0.000212677
0.000761647
0.00133035
0.00191818
0.00252447
0.0031484
0.00378899
0.00444513
0.00511557
0.00579894
0.00649366
0.00719801
0.00791014
0.00862803
0.00934953
0.0100723
0.0107938
0.0115114
0.0122219
0.0129223
0.0136092
0.0142792
0.0149286
0.0155537
0.0161508
0.0167161
0.017246
0.017737
0.0181859
0.0185895
0.0189452
0.0192506
0.0195039
0.0197036
0.0198489
0.0199397
0.0199763
0.0199596
0.0198914
0.0197735
0.0196084
0.0193989
0.019148
0.018861
0.0185435
0.0181666
0.0177039
-0.00494246
-0.00536485
-0.0056952
-0.00596067
-0.00619187
-0.00638768
-0.00654701
-0.00667113
-0.0067614
-0.00681901
-0.00684508
-0.00684071
-0.00680688
-0.0067445
-0.00665436
-0.00653718
-0.00639361
-0.00622419
-0.00602941
-0.00580967
-0.00556532
-0.00529663
-0.00500382
-0.00468708
-0.00434657
-0.0039824
-0.00359472
-0.00318372
-0.00274956
-0.00229243
-0.0018126
-0.00131037
-0.000786046
-0.000239961
0.000327451
0.000915675
0.00152414
0.00215221
0.00279908
0.00346378
0.0041452
0.0048421
0.00555313
0.00627675
0.00701126
0.00775479
0.00850533
0.00926071
0.0100185
0.0107762
0.0115308
0.0122792