/*--------------------------------*- C++ -*----------------------------------*\
  =========                 |
  \\      /  F ield         | OpenFOAM: The Open Source CFD Toolbox
   \\    /   O peration     | Website:  https://openfoam.org
    \\  /    A nd           | Version:  7
     \\/     M anipulation  |
\*---------------------------------------------------------------------------*/
FoamFile
{
    version     2.0;
    format      ascii;
    class       surfaceScalarField;
    location    "1.525";
    object      phi;
}
// * * * * * * * * * * * * * * * * * * * * * * * * * * * * * * * * * * * * * //

dimensions      [0 3 -1 0 0 0 0];

internalField   nonuniform List<scalar> 
12640
(
3.0535e-10
-3.04651e-10
8.93765e-10
-5.8835e-10
1.42885e-09
-5.35106e-10
1.71873e-09
-2.8982e-10
1.67645e-09
4.22364e-11
1.27476e-09
4.01693e-10
5.1851e-10
7.56266e-10
-5.70077e-10
1.08858e-09
-1.96115e-09
1.39108e-09
-3.62284e-09
1.66171e-09
-5.52443e-09
1.9016e-09
-7.63811e-09
2.11366e-09
-9.9397e-09
2.30158e-09
-1.24088e-08
2.46914e-09
-1.50286e-08
2.61977e-09
-1.7785e-08
2.75639e-09
-2.06662e-08
2.88119e-09
-2.36617e-08
2.99556e-09
-2.67618e-08
3.10008e-09
-2.99565e-08
3.19464e-09
-3.32348e-08
3.27839e-09
-3.65848e-08
3.34994e-09
-3.99922e-08
3.4074e-09
-4.34407e-08
3.44853e-09
-4.69115e-08
3.47078e-09
-5.03829e-08
3.47144e-09
-5.38307e-08
3.44775e-09
-5.72277e-08
3.39702e-09
-6.05444e-08
3.31665e-09
-6.37486e-08
3.20427e-09
-6.68064e-08
3.05781e-09
-6.9682e-08
2.87562e-09
-7.23385e-08
2.6565e-09
-7.47384e-08
2.39986e-09
-7.68441e-08
2.10568e-09
-7.86188e-08
1.7747e-09
-8.00271e-08
1.40836e-09
-8.10361e-08
1.00897e-09
-8.16157e-08
5.79642e-10
-8.17401e-08
1.24367e-10
-8.13879e-08
-3.52195e-10
-8.05436e-08
-8.44299e-10
-7.9198e-08
-1.34563e-09
-7.73488e-08
-1.8492e-09
-7.50013e-08
-2.34746e-09
-7.21689e-08
-2.83246e-09
-6.88729e-08
-3.29601e-09
-6.5143e-08
-3.72989e-09
-6.1017e-08
-4.12601e-09
-5.65403e-08
-4.47667e-09
-5.17656e-08
-4.77475e-09
-4.67516e-08
-5.01394e-09
-4.15627e-08
-5.18894e-09
-3.62671e-08
-5.29563e-09
-3.09358e-08
-5.33122e-09
-2.56415e-08
-5.29438e-09
-2.04562e-08
-5.18531e-09
-1.54505e-08
-5.00571e-09
-1.06916e-08
-4.75884e-09
-6.2423e-09
-4.44933e-09
-2.15914e-09
-4.08316e-09
1.50831e-09
-3.66745e-09
4.71856e-09
-3.21025e-09
7.43889e-09
-2.72033e-09
9.64598e-09
-2.20708e-09
1.13262e-08
-1.6802e-09
1.24758e-08
-1.14964e-09
1.31013e-08
-6.2551e-10
1.32194e-08
-1.18099e-10
1.28575e-08
3.61956e-10
1.20541e-08
8.0335e-10
1.08606e-08
1.19356e-09
9.34256e-09
1.51802e-09
7.58361e-09
1.75896e-09
5.68987e-09
1.89374e-09
3.79649e-09
1.89339e-09
2.07407e-09
1.72242e-09
7.34444e-10
1.33963e-09
1.88115e-11
7.15638e-10
1.8815e-11
5.95352e-10
-8.99938e-10
1.45489e-09
-1.448e-09
2.036e-09
-1.11618e-09
2.0045e-09
-2.58385e-10
1.17328e-09
8.73479e-10
-5.38121e-10
2.11315e-09
-3.13896e-09
3.35707e-09
-6.59542e-09
4.54501e-09
-1.08498e-08
5.64551e-09
-1.5834e-08
6.6459e-09
-2.14778e-08
7.54531e-09
-2.77139e-08
8.34982e-09
-3.44813e-08
9.06899e-09
-4.17258e-08
9.71359e-09
-4.93999e-08
1.02939e-08
-5.74622e-08
1.08187e-08
-6.58758e-08
1.12947e-08
-7.46062e-08
1.1726e-08
-8.36204e-08
1.21143e-08
-9.28843e-08
1.24585e-08
-1.02362e-07
1.27557e-08
-1.12012e-07
1.30006e-08
-1.21791e-07
1.31865e-08
-1.31648e-07
1.33053e-08
-1.41525e-07
1.33481e-08
-1.5136e-07
1.33055e-08
-1.6108e-07
1.3168e-08
-1.70609e-07
1.29262e-08
-1.79864e-07
1.25713e-08
-1.88755e-07
1.20955e-08
-1.97189e-07
1.14922e-08
-2.0507e-07
1.07564e-08
-2.12298e-07
9.88473e-09
-2.18775e-07
8.8761e-09
-2.24401e-07
7.73168e-09
-2.29081e-07
6.45521e-09
-2.32726e-07
5.05317e-09
-2.35252e-07
3.53487e-09
-2.36585e-07
1.9126e-09
-2.36662e-07
2.01771e-10
-2.35434e-07
-1.58033e-09
-2.32866e-07
-3.41226e-09
-2.28941e-07
-5.27101e-09
-2.23659e-07
-7.13127e-09
-2.1704e-07
-8.966e-09
-2.09126e-07
-1.07469e-08
-1.99976e-07
-1.24451e-08
-1.89675e-07
-1.40316e-08
-1.78322e-07
-1.54783e-08
-1.66041e-07
-1.67581e-08
-1.52969e-07
-1.78466e-08
-1.39261e-07
-1.87217e-08
-1.25085e-07
-1.93652e-08
-1.10618e-07
-1.97628e-08
-9.60442e-08
-1.99048e-08
-8.1552e-08
-1.97866e-08
-6.73286e-08
-1.94087e-08
-5.35574e-08
-1.87769e-08
-4.04138e-08
-1.79024e-08
-2.80621e-08
-1.68011e-08
-1.66514e-08
-1.54938e-08
-6.31362e-09
-1.40052e-08
2.83988e-09
-1.23637e-08
1.07201e-08
-1.06005e-08
1.7262e-08
-8.74899e-09
2.24261e-08
-6.84434e-09
2.61994e-08
-4.92296e-09
2.85962e-08
-3.02224e-09
2.96588e-08
-1.18068e-09
2.9459e-08
5.61709e-10
2.80996e-08
2.16272e-09
2.5717e-08
3.57618e-09
2.24847e-08
4.75037e-09
1.86182e-08
5.62548e-09
1.43807e-08
6.13122e-09
1.0088e-08
6.18607e-09
6.10845e-09
5.70199e-09
2.84971e-09
4.59838e-09
7.1252e-10
2.85283e-09
7.31338e-10
5.49387e-10
-1.44934e-09
1.12788e-09
-2.02642e-09
1.11614e-09
-1.10453e-09
1.32625e-10
7.25125e-10
-2.04632e-09
3.05246e-09
-5.52464e-09
5.59142e-09
-1.03197e-08
8.15217e-09
-1.63926e-08
1.06179e-08
-2.36704e-08
1.29233e-08
-3.20628e-08
1.50383e-08
-4.14734e-08
1.69559e-08
-5.18073e-08
1.86837e-08
-6.29753e-08
2.0237e-08
-7.4896e-08
2.16342e-08
-8.74955e-08
2.28934e-08
-1.00707e-07
2.40304e-08
-1.1447e-07
2.5057e-08
-1.28724e-07
2.59802e-08
-1.43412e-07
2.68023e-08
-1.58474e-07
2.75205e-08
-1.73846e-07
2.81279e-08
-1.89459e-07
2.86134e-08
-2.05235e-07
2.89628e-08
-2.21089e-07
2.91594e-08
-2.36926e-07
2.9185e-08
-2.52641e-07
2.90204e-08
-2.68119e-07
2.86463e-08
-2.83237e-07
2.80441e-08
-2.97863e-07
2.71967e-08
-3.11856e-07
2.60888e-08
-3.25072e-07
2.47081e-08
-3.37361e-07
2.30457e-08
-3.48573e-07
2.10964e-08
-3.58557e-07
1.88597e-08
-3.67165e-07
1.63399e-08
-3.74256e-07
1.35468e-08
-3.79699e-07
1.04955e-08
-3.83371e-07
7.2074e-09
-3.85168e-07
3.70934e-09
-3.85002e-07
3.54471e-11
-3.82804e-07
-3.77854e-09
-3.7853e-07
-7.68588e-09
-3.72162e-07
-1.16391e-08
-3.63708e-07
-1.55852e-08
-3.53205e-07
-1.94685e-08
-3.40722e-07
-2.32307e-08
-3.26354e-07
-2.68127e-08
-3.1023e-07
-3.01555e-08
-2.92507e-07
-3.32018e-08
-2.73368e-07
-3.58972e-08
-2.53023e-07
-3.81918e-08
-2.31703e-07
-4.00413e-08
-2.09659e-07
-4.14088e-08
-1.87157e-07
-4.22654e-08
-1.6447e-07
-4.25913e-08
-1.4188e-07
-4.2377e-08
-1.19665e-07
-4.16233e-08
-9.81008e-08
-4.03414e-08
-7.74497e-08
-3.85535e-08
-5.79592e-08
-3.62917e-08
-3.98555e-08
-3.35975e-08
-2.33396e-08
-3.05211e-08
-8.58301e-09
-2.71203e-08
4.27558e-09
-2.34591e-08
1.51331e-08
-1.96065e-08
2.39243e-08
-1.56356e-08
3.0624e-08
-1.16227e-08
3.52485e-08
-7.64669e-09
3.78569e-08
-3.78916e-09
3.85537e-08
-1.34998e-10
3.74894e-08
3.22702e-09
3.48647e-08
6.20083e-09
3.09332e-08
8.68189e-09
2.6005e-08
1.05537e-08
2.04504e-08
1.16859e-08
1.47004e-08
1.1936e-08
9.24273e-09
1.11597e-08
4.60671e-09
9.23441e-09
1.3373e-09
6.12225e-09
2.06864e-09
2.96197e-10
-1.74551e-09
2.15237e-10
-1.94551e-09
-8.43114e-10
-4.61625e-11
-3.25069e-09
3.13275e-09
-7.22599e-09
7.02775e-09
-1.28674e-08
1.12328e-08
-2.01864e-08
1.54712e-08
-2.91348e-08
1.95663e-08
-3.96265e-08
2.34151e-08
-5.15549e-08
2.69666e-08
-6.48046e-08
3.02056e-08
-7.926e-08
3.31392e-08
-9.48105e-08
3.57875e-08
-1.11352e-07
3.81761e-08
-1.2879e-07
4.03308e-08
-1.47033e-07
4.22739e-08
-1.65998e-07
4.40219e-08
-1.85602e-07
4.55842e-08
-2.05762e-07
4.69624e-08
-2.26392e-07
4.81507e-08
-2.47401e-07
4.91362e-08
-2.68688e-07
4.99002e-08
-2.90143e-07
5.04186e-08
-3.11648e-07
5.06639e-08
-3.33069e-07
5.0606e-08
-3.54262e-07
5.02139e-08
-3.75072e-07
4.94565e-08
-3.95333e-07
4.83043e-08
-4.14866e-07
4.67303e-08
-4.33489e-07
4.47114e-08
-4.5101e-07
4.22292e-08
-4.67235e-07
3.92712e-08
-4.81971e-07
3.58316e-08
-4.95023e-07
3.19123e-08
-5.06206e-07
2.75232e-08
-5.15343e-07
2.26832e-08
-5.22268e-07
1.74205e-08
-5.26833e-07
1.17727e-08
-5.2891e-07
5.78681e-09
-5.28395e-07
-4.80264e-10
-5.25209e-07
-6.96422e-09
-5.19305e-07
-1.35903e-08
-5.10666e-07
-2.02779e-08
-4.99311e-07
-2.69397e-08
-4.85296e-07
-3.34836e-08
-4.68712e-07
-3.98146e-08
-4.49689e-07
-4.58359e-08
-4.28393e-07
-5.14519e-08
-4.05025e-07
-5.65693e-08
-3.79822e-07
-6.11002e-08
-3.5305e-07
-6.49637e-08
-3.25003e-07
-6.80883e-08
-2.95998e-07
-7.04138e-08
-2.6637e-07
-7.18934e-08
-2.36467e-07
-7.24948e-08
-2.06642e-07
-7.22017e-08
-1.77251e-07
-7.10147e-08
-1.48641e-07
-6.89512e-08
-1.21148e-07
-6.60461e-08
-9.50895e-08
-6.23505e-08
-7.07558e-08
-5.79311e-08
-4.84078e-08
-5.28691e-08
-2.827e-08
-4.72581e-08
-1.05264e-08
-4.12027e-08
4.68359e-09
-3.48165e-08
1.72685e-08
-2.82205e-08
2.71873e-08
-2.15415e-08
3.44521e-08
-1.49115e-08
3.913e-08
-8.46706e-09
4.13451e-08
-2.35007e-09
4.12809e-08
3.29121e-09
3.91821e-08
8.2996e-09
3.53574e-08
1.25066e-08
3.01812e-08
1.57299e-08
2.40951e-08
1.7772e-08
1.7607e-08
1.84241e-08
1.12882e-08
1.74785e-08
5.76752e-09
1.47551e-08
1.73334e-09
1.01564e-08
3.80198e-09
-7.34521e-11
-1.67212e-09
-1.07503e-09
-9.43933e-10
-3.5153e-09
2.39416e-09
-7.7133e-09
7.33073e-09
-1.38468e-08
1.31612e-08
-2.19868e-08
1.93728e-08
-3.21239e-08
2.56083e-08
-4.41927e-08
3.1635e-08
-5.80913e-08
3.73137e-08
-7.36974e-08
4.25728e-08
-9.08798e-08
4.7388e-08
-1.09506e-07
5.17658e-08
-1.29449e-07
5.57301e-08
-1.50586e-07
5.93131e-08
-1.72802e-07
6.25472e-08
-1.95989e-07
6.54603e-08
-2.2004e-07
6.80727e-08
-2.4485e-07
7.03943e-08
-2.70312e-07
7.24249e-08
-2.96315e-07
7.41537e-08
-3.22739e-07
7.55602e-08
-3.49455e-07
7.66156e-08
-3.7632e-07
7.72843e-08
-4.03182e-07
7.75258e-08
-4.29873e-07
7.72966e-08
-4.56211e-07
7.6552e-08
-4.82002e-07
7.52479e-08
-5.07041e-07
7.33429e-08
-5.31111e-07
7.07999e-08
-5.53987e-07
6.75876e-08
-5.7544e-07
6.36823e-08
-5.95238e-07
5.9069e-08
-6.13149e-07
5.37429e-08
-6.28947e-07
4.77106e-08
-6.42414e-07
4.09904e-08
-6.53345e-07
3.36137e-08
-6.6155e-07
2.56253e-08
-6.6686e-07
1.70833e-08
-6.69133e-07
8.05961e-09
-6.68252e-07
-1.36091e-09
-6.64135e-07
-1.10813e-08
-6.56733e-07
-2.09925e-08
-6.46035e-07
-3.09756e-08
-6.32072e-07
-4.09036e-08
-6.14913e-07
-5.06427e-08
-5.94672e-07
-6.00553e-08
-5.71506e-07
-6.90022e-08
-5.45612e-07
-7.73456e-08
-5.1723e-07
-8.49516e-08
-4.86636e-07
-9.16941e-08
-4.54142e-07
-9.74568e-08
-4.20094e-07
-1.02137e-07
-3.84859e-07
-1.05648e-07
-3.4883e-07
-1.07922e-07
-3.12413e-07
-1.08912e-07
-2.76023e-07
-1.08592e-07
-2.40074e-07
-1.06963e-07
-2.04978e-07
-1.04047e-07
-1.71131e-07
-9.98934e-08
-1.38908e-07
-9.45729e-08
-1.08659e-07
-8.81805e-08
-8.06966e-08
-8.08317e-08
-5.52937e-08
-7.2661e-08
-3.2677e-08
-6.38193e-08
-1.30221e-08
-5.44715e-08
3.55158e-09
-4.47941e-08
1.69833e-08
-3.49732e-08
2.72746e-08
-2.52028e-08
3.44919e-08
-1.56843e-08
3.87682e-08
-6.62635e-09
4.03054e-08
1.75396e-09
3.9376e-08
9.22907e-09
3.63239e-08
1.55587e-08
3.15663e-08
2.04876e-08
2.55928e-08
2.37454e-08
1.89662e-08
2.50507e-08
1.23223e-08
2.41224e-08
6.37506e-09
2.07023e-08
1.93638e-09
1.45951e-08
5.73836e-09
-5.09176e-10
-1.16292e-09
-2.60804e-09
1.15496e-09
-6.67648e-09
6.46255e-09
-1.29439e-08
1.35981e-08
-2.1524e-08
2.17413e-08
-3.24403e-08
3.02891e-08
-4.56485e-08
3.88166e-08
-6.10569e-08
4.70434e-08
-7.85428e-08
5.47996e-08
-9.79665e-08
6.19965e-08
-1.19181e-07
6.86027e-08
-1.4204e-07
7.46244e-08
-1.664e-07
8.00898e-08
-1.92123e-07
8.50367e-08
-2.19079e-07
8.95033e-08
-2.47141e-07
9.35221e-08
-2.76183e-07
9.71151e-08
-3.06081e-07
1.00292e-07
-3.36703e-07
1.03047e-07
-3.67914e-07
1.05364e-07
-3.99567e-07
1.07213e-07
-4.31504e-07
1.08553e-07
-4.63553e-07
1.09334e-07
-4.95529e-07
1.09502e-07
-5.2723e-07
1.08998e-07
-5.5844e-07
1.07762e-07
-5.8893e-07
1.05738e-07
-6.18459e-07
1.02872e-07
-6.46774e-07
9.91152e-08
-6.73617e-07
9.44304e-08
-6.98724e-07
8.8789e-08
-7.2183e-07
8.21752e-08
-7.42674e-07
7.45873e-08
-7.61003e-07
6.60386e-08
-7.76571e-07
5.6559e-08
-7.89153e-07
4.61954e-08
-7.9854e-07
3.50125e-08
-8.04549e-07
2.30928e-08
-8.07026e-07
1.05366e-08
-8.05849e-07
-2.53887e-09
-8.00929e-07
-1.60006e-08
-7.92221e-07
-2.97005e-08
-7.79719e-07
-4.34778e-08
-7.63461e-07
-5.71613e-08
-7.43532e-07
-7.05718e-08
-7.20063e-07
-8.35251e-08
-6.93229e-07
-9.58356e-08
-6.63255e-07
-1.0732e-07
-6.30408e-07
-1.17799e-07
-5.94997e-07
-1.27105e-07
-5.57371e-07
-1.35083e-07
-5.17912e-07
-1.41596e-07
-4.77032e-07
-1.46528e-07
-4.35169e-07
-1.49785e-07
-3.92776e-07
-1.51305e-07
-3.50318e-07
-1.5105e-07
-3.08263e-07
-1.49018e-07
-2.67074e-07
-1.45236e-07
-2.27201e-07
-1.39767e-07
-1.89072e-07
-1.32702e-07
-1.53087e-07
-1.24165e-07
-1.19609e-07
-1.14309e-07
-8.89583e-08
-1.03312e-07
-6.14022e-08
-9.13754e-08
-3.71533e-08
-7.87204e-08
-1.63622e-08
-6.55852e-08
8.86602e-10
-5.22219e-08
1.45781e-08
-3.88943e-08
2.47697e-08
-2.58759e-08
3.15937e-08
-1.34504e-08
3.52592e-08
-1.91147e-09
3.60526e-08
8.43564e-09
3.43392e-08
1.72721e-08
3.0563e-08
2.42638e-08
2.5247e-08
2.90614e-08
1.89943e-08
3.13034e-08
1.24924e-08
3.06243e-08
6.5235e-09
2.66712e-08
1.99187e-09
1.91268e-08
7.73023e-09
-9.85322e-10
-1.77575e-10
-4.3001e-09
4.46971e-09
-1.01727e-08
1.23351e-08
-1.87204e-08
2.21459e-08
-2.99727e-08
3.29936e-08
-4.38895e-08
4.42059e-08
-6.03792e-08
5.53063e-08
-7.93148e-08
6.59789e-08
-1.00547e-07
7.60318e-08
-1.23915e-07
8.53649e-08
-1.49256e-07
9.39437e-08
-1.76409e-07
1.01777e-07
-2.05215e-07
1.08896e-07
-2.35525e-07
1.15347e-07
-2.67194e-07
1.21171e-07
-3.00077e-07
1.26406e-07
-3.34033e-07
1.31071e-07
-3.68918e-07
1.35176e-07
-4.04579e-07
1.38709e-07
-4.40858e-07
1.41643e-07
-4.77582e-07
1.43937e-07
-5.14567e-07
1.45537e-07
-5.51612e-07
1.46379e-07
-5.88502e-07
1.46391e-07
-6.25003e-07
1.45499e-07
-6.6087e-07
1.43629e-07
-6.95839e-07
1.40708e-07
-7.29639e-07
1.36671e-07
-7.61985e-07
1.31462e-07
-7.92589e-07
1.25034e-07
-8.21158e-07
1.17358e-07
-8.47401e-07
1.08418e-07
-8.71031e-07
9.82174e-08
-8.91771e-07
8.6779e-08
-9.09358e-07
7.41464e-08
-9.23548e-07
6.0385e-08
-9.34118e-07
4.55823e-08
-9.40873e-07
2.98481e-08
-9.43651e-07
1.33141e-08
-9.42322e-07
-3.86725e-09
-9.36799e-07
-2.15239e-08
-9.27034e-07
-3.94657e-08
-9.13024e-07
-5.74871e-08
-8.94816e-07
-7.537e-08
-8.72501e-07
-9.28868e-08
-8.46222e-07
-1.09804e-07
-8.16171e-07
-1.25886e-07
-7.82589e-07
-1.40901e-07
-7.45764e-07
-1.54623e-07
-7.0603e-07
-1.66839e-07
-6.63762e-07
-1.77351e-07
-6.19374e-07
-1.85985e-07
-5.7331e-07
-1.92591e-07
-5.26047e-07
-1.97049e-07
-4.78076e-07
-1.99275e-07
-4.29906e-07
-1.9922e-07
-3.8205e-07
-1.96874e-07
-3.35018e-07
-1.92269e-07
-2.89309e-07
-1.85476e-07
-2.45399e-07
-1.76611e-07
-2.0374e-07
-1.65825e-07
-1.6474e-07
-1.53309e-07
-1.28766e-07
-1.39286e-07
-9.61292e-08
-1.24012e-07
-6.70807e-08
-1.07769e-07
-4.18056e-08
-9.08604e-08
-2.04171e-08
-7.36105e-08
-2.95276e-09
-5.63585e-08
1.06289e-08
-3.94575e-08
2.0451e-08
-2.32725e-08
2.672e-08
-8.18045e-09
2.97265e-08
5.42911e-09
2.98459e-08
1.71526e-08
2.75386e-08
2.65712e-08
2.335e-08
3.325e-08
1.79133e-08
3.67401e-08
1.19551e-08
3.65826e-08
6.30827e-09
3.2318e-08
1.93782e-09
2.34972e-08
9.66805e-09
-1.48625e-09
1.30866e-09
-6.09782e-09
9.08127e-09
-1.39005e-08
2.01378e-08
-2.48851e-08
3.31304e-08
-3.8982e-08
4.70905e-08
-5.6075e-08
6.12989e-08
-7.60147e-08
7.5246e-08
-9.86306e-08
8.85948e-08
-1.23741e-07
1.01142e-07
-1.51162e-07
1.12785e-07
-1.8071e-07
1.23492e-07
-2.12209e-07
1.33276e-07
-2.45489e-07
1.42177e-07
-2.80387e-07
1.50245e-07
-3.16744e-07
1.57528e-07
-3.54403e-07
1.64065e-07
-3.93207e-07
1.69875e-07
-4.32992e-07
1.74962e-07
-4.7359e-07
1.79306e-07
-5.14817e-07
1.82871e-07
-5.5648e-07
1.856e-07
-5.98369e-07
1.87426e-07
-6.40256e-07
1.88266e-07
-6.81898e-07
1.88033e-07
-7.23035e-07
1.86636e-07
-7.63391e-07
1.83985e-07
-8.02676e-07
1.79993e-07
-8.40589e-07
1.74584e-07
-8.7682e-07
1.67692e-07
-9.11053e-07
1.59267e-07
-9.42972e-07
1.49277e-07
-9.72263e-07
1.37709e-07
-9.98618e-07
1.24573e-07
-1.02174e-06
1.09904e-07
-1.04136e-06
9.37605e-08
-1.0572e-06
7.62295e-08
-1.06904e-06
5.74233e-08
-1.07668e-06
3.7481e-08
-1.07993e-06
1.65677e-08
-1.07867e-06
-5.12676e-09
-1.0728e-06
-2.73895e-08
-1.06228e-06
-4.99864e-08
-1.04711e-06
-7.26653e-08
-1.02732e-06
-9.51593e-08
-1.00301e-06
-1.1719e-07
-9.74343e-07
-1.38474e-07
-9.41507e-07
-1.58722e-07
-9.04757e-07
-1.77651e-07
-8.64394e-07
-1.94986e-07
-8.20768e-07
-2.10465e-07
-7.74274e-07
-2.23846e-07
-7.25348e-07
-2.34911e-07
-6.74464e-07
-2.43475e-07
-6.22124e-07
-2.49389e-07
-5.68859e-07
-2.52541e-07
-5.15213e-07
-2.52866e-07
-4.6174e-07
-2.50347e-07
-4.08994e-07
-2.45014e-07
-3.5752e-07
-2.3695e-07
-3.07845e-07
-2.26286e-07
-2.60466e-07
-2.13204e-07
-2.15842e-07
-1.97932e-07
-1.74387e-07
-1.80741e-07
-1.36458e-07
-1.61941e-07
-1.02348e-07
-1.41878e-07
-7.22824e-08
-1.20926e-07
-4.64069e-08
-9.9486e-08
-2.4788e-08
-7.79774e-08
-7.40694e-09
-5.68386e-08
5.84301e-09
-3.65225e-08
1.5158e-08
-1.74954e-08
2.08246e-08
-2.37508e-10
2.32202e-08
1.4757e-08
2.28132e-08
2.69782e-08
2.01634e-08
3.58998e-08
1.5925e-08
4.09784e-08
1.08526e-08
4.1655e-08
5.81267e-09
3.7358e-08
1.80425e-09
2.75056e-08
1.14723e-08
-2.00365e-09
3.3123e-09
-7.96672e-09
1.50444e-08
-1.77883e-08
2.99594e-08
-3.13231e-08
4.66652e-08
-4.83924e-08
6.41598e-08
-6.8794e-08
8.17006e-08
-9.23123e-08
9.87643e-08
-1.18727e-07
1.15009e-07
-1.47818e-07
1.30234e-07
-1.79374e-07
1.44341e-07
-2.13191e-07
1.57309e-07
-2.49077e-07
1.69162e-07
-2.86849e-07
1.79948e-07
-3.26331e-07
1.89727e-07
-3.67352e-07
1.9855e-07
-4.09744e-07
2.06456e-07
-4.53334e-07
2.13465e-07
-4.97944e-07
2.19572e-07
-5.43386e-07
2.24748e-07
-5.8946e-07
2.28944e-07
-6.35949e-07
2.3209e-07
-6.82621e-07
2.34098e-07
-7.29225e-07
2.3487e-07
-7.75494e-07
2.34302e-07
-8.21141e-07
2.32283e-07
-8.65865e-07
2.28709e-07
-9.09352e-07
2.2348e-07
-9.51277e-07
2.16509e-07
-9.91307e-07
2.07722e-07
-1.0291e-06
1.97064e-07
-1.06433e-06
1.84504e-07
-1.09666e-06
1.70034e-07
-1.12575e-06
1.53671e-07
-1.15131e-06
1.35464e-07
-1.17304e-06
1.1549e-07
-1.19067e-06
9.38562e-08
-1.20395e-06
7.07025e-08
-1.21267e-06
4.61983e-08
-1.21664e-06
2.05435e-08
-1.21574e-06
-6.0338e-09
-1.20985e-06
-3.3279e-08
-1.19892e-06
-6.0913e-08
-1.18295e-06
-8.86361e-08
-1.16198e-06
-1.16132e-07
-1.1361e-06
-1.4307e-07
-1.10546e-06
-1.69112e-07
-1.07026e-06
-1.93919e-07
-1.03076e-06
-2.17152e-07
-9.87264e-07
-2.38483e-07
-9.40131e-07
-2.57599e-07
-8.89768e-07
-2.74208e-07
-8.36629e-07
-2.8805e-07
-7.81208e-07
-2.98897e-07
-7.24034e-07
-3.06563e-07
-6.65665e-07
-3.10909e-07
-6.06683e-07
-3.11849e-07
-5.47678e-07
-3.09351e-07
-4.89249e-07
-3.03444e-07
-4.31986e-07
-2.94213e-07
-3.76463e-07
-2.81809e-07
-3.2323e-07
-2.66438e-07
-2.72797e-07
-2.48365e-07
-2.25628e-07
-2.2791e-07
-1.82131e-07
-2.05439e-07
-1.42645e-07
-1.81364e-07
-1.0744e-07
-1.56132e-07
-7.67011e-08
-1.30225e-07
-5.05299e-08
-1.04149e-07
-2.89364e-08
-7.84322e-08
-1.18369e-08
-5.36219e-08
9.47609e-10
-3.028e-08
9.69306e-09
-8.98296e-09
1.47722e-08
9.67786e-09
1.66549e-08
2.50956e-08
1.59087e-08
3.6646e-08
1.32009e-08
4.36862e-08
9.30379e-09
4.55521e-08
5.10351e-09
4.15582e-08
1.61349e-09
3.09957e-08
1.30858e-08
-2.53177e-09
5.84409e-09
-9.88312e-09
2.23957e-08
-2.17841e-08
4.18603e-08
-3.79476e-08
6.28288e-08
-5.80788e-08
8.4291e-08
-8.18828e-08
1.05504e-07
-1.09071e-07
1.25953e-07
-1.39367e-07
1.45306e-07
-1.72511e-07
1.63378e-07
-2.0826e-07
1.8009e-07
-2.46387e-07
1.95436e-07
-2.86682e-07
2.09457e-07
-3.28949e-07
2.22216e-07
-3.73002e-07
2.33779e-07
-4.18658e-07
2.44205e-07
-4.65736e-07
2.53535e-07
-5.14052e-07
2.61781e-07
-5.63415e-07
2.68934e-07
-6.1362e-07
2.74953e-07
-6.6445e-07
2.79774e-07
-7.15669e-07
2.83309e-07
-7.67025e-07
2.85454e-07
-8.18247e-07
2.86092e-07
-8.69044e-07
2.85098e-07
-9.19109e-07
2.82348e-07
-9.68119e-07
2.7772e-07
-1.01574e-06
2.71101e-07
-1.06162e-06
2.62393e-07
-1.10542e-06
2.51518e-07
-1.14677e-06
2.38417e-07
-1.18533e-06
2.2306e-07
-1.22074e-06
2.05443e-07
-1.25266e-06
1.85596e-07
-1.28078e-06
1.6358e-07
-1.30478e-06
1.39492e-07
-1.32438e-06
1.13461e-07
-1.33934e-06
8.56534e-08
-1.34941e-06
5.62709e-08
-1.35441e-06
2.55476e-08
-1.3542e-06
-6.24989e-09
-1.34865e-06
-3.88252e-08
-1.33771e-06
-7.18542e-08
-1.32136e-06
-1.0499e-07
-1.29962e-06
-1.37864e-07
-1.2726e-06
-1.70095e-07
-1.24042e-06
-2.01292e-07
-1.20328e-06
-2.31057e-07
-1.16143e-06
-2.58998e-07
-1.11519e-06
-2.8473e-07
-1.0649e-06
-3.07886e-07
-1.01098e-06
-3.28122e-07
-9.53909e-07
-3.45126e-07
-8.9418e-07
-3.58625e-07
-8.32349e-07
-3.68393e-07
-7.69002e-07
-3.74257e-07
-7.0475e-07
-3.76101e-07
-6.40224e-07
-3.73877e-07
-5.76063e-07
-3.67604e-07
-5.12906e-07
-3.5737e-07
-4.51379e-07
-3.43336e-07
-3.92084e-07
-3.25733e-07
-3.35586e-07
-3.04863e-07
-2.82406e-07
-2.8109e-07
-2.33006e-07
-2.54839e-07
-1.8778e-07
-2.2659e-07
-1.47046e-07
-1.96866e-07
-1.11036e-07
-1.66234e-07
-7.98938e-08
-1.35291e-07
-5.36638e-08
-1.04662e-07
-3.22921e-08
-7.49935e-08
-1.56228e-08
-4.69493e-08
-3.39667e-09
-2.12091e-08
4.74888e-09
1.53231e-09
9.27965e-09
2.05648e-08
1.07649e-08
3.51608e-08
9.87865e-09
4.45725e-08
7.40272e-09
4.8028e-08
4.23199e-09
4.4729e-08
1.38165e-09
3.3846e-08
1.44674e-08
-3.0667e-09
8.9108e-09
-1.18292e-08
3.11582e-08
-2.58474e-08
5.58785e-08
-4.46891e-08
8.16705e-08
-6.79389e-08
1.07541e-07
-9.52039e-08
1.3277e-07
-1.26119e-07
1.56868e-07
-1.60348e-07
1.79535e-07
-1.97586e-07
2.00615e-07
-2.37556e-07
2.2006e-07
-2.80008e-07
2.37889e-07
-3.24715e-07
2.54164e-07
-3.71466e-07
2.68967e-07
-4.20063e-07
2.82376e-07
-4.70314e-07
2.94456e-07
-5.22028e-07
3.05248e-07
-5.75009e-07
3.14763e-07
-6.29054e-07
3.22979e-07
-6.83944e-07
3.29844e-07
-7.39447e-07
3.35277e-07
-7.95312e-07
3.39174e-07
-8.51269e-07
3.4141e-07
-9.07027e-07
3.4185e-07
-9.62278e-07
3.4035e-07
-1.0167e-06
3.36767e-07
-1.06994e-06
3.30966e-07
-1.12166e-06
3.22821e-07
-1.1715e-06
3.12225e-07
-1.21907e-06
2.99093e-07
-1.26402e-06
2.83365e-07
-1.30597e-06
2.65014e-07
-1.34457e-06
2.44041e-07
-1.37946e-06
2.20488e-07
-1.41031e-06
1.94429e-07
-1.4368e-06
1.6598e-07
-1.45863e-06
1.35294e-07
-1.47554e-06
1.02564e-07
-1.48729e-06
6.80213e-08
-1.49368e-06
3.19344e-08
-1.49454e-06
-5.39211e-09
-1.48974e-06
-4.36212e-08
-1.47921e-06
-8.23842e-08
-1.46292e-06
-1.21287e-07
-1.44087e-06
-1.59911e-07
-1.41314e-06
-1.97822e-07
-1.37986e-06
-2.34574e-07
-1.3412e-06
-2.69713e-07
-1.29741e-06
-3.02788e-07
-1.24879e-06
-3.33356e-07
-1.19568e-06
-3.60991e-07
-1.13851e-06
-3.85292e-07
-1.07775e-06
-4.05892e-07
-1.01391e-06
-4.22467e-07
-9.47558e-07
-4.34742e-07
-8.79311e-07
-4.42504e-07
-8.09808e-07
-4.45604e-07
-7.39718e-07
-4.43968e-07
-6.69723e-07
-4.37598e-07
-6.00512e-07
-4.26581e-07
-5.32764e-07
-4.11084e-07
-4.67139e-07
-3.91358e-07
-4.04265e-07
-3.67737e-07
-3.44722e-07
-3.40633e-07
-2.89035e-07
-3.10526e-07
-2.37659e-07
-2.77966e-07
-1.90968e-07
-2.43557e-07
-1.49249e-07
-2.07953e-07
-1.12693e-07
-1.71848e-07
-8.13859e-08
-1.35969e-07
-5.53115e-08
-1.01068e-07
-3.43424e-08
-6.79184e-08
-1.82416e-08
-3.73099e-08
-6.66193e-09
-1.00473e-08
8.53382e-10
1.30495e-08
4.87046e-09
3.11437e-08
6.06453e-09
4.33784e-08
5.22078e-09
4.88718e-08
3.23598e-09
4.67138e-08
1.12013e-09
3.59618e-08
1.55876e-08
-3.60509e-09
1.25159e-08
-1.37902e-08
4.13432e-08
-2.99444e-08
7.20327e-08
-5.14887e-08
1.03215e-07
-7.78842e-08
1.33936e-07
-1.08638e-07
1.63523e-07
-1.43303e-07
1.91533e-07
-1.81484e-07
2.17715e-07
-2.22826e-07
2.41958e-07
-2.6702e-07
2.64253e-07
-3.13789e-07
2.84658e-07
-3.62887e-07
3.03263e-07
-4.14091e-07
3.2017e-07
-4.67191e-07
3.35476e-07
-5.21985e-07
3.49251e-07
-5.78274e-07
3.61537e-07
-6.35853e-07
3.72341e-07
-6.94506e-07
3.81632e-07
-7.54004e-07
3.89343e-07
-8.14103e-07
3.95376e-07
-8.74537e-07
3.99607e-07
-9.3502e-07
4.01894e-07
-9.95249e-07
4.02079e-07
-1.0549e-06
4.00001e-07
-1.11363e-06
3.95499e-07
-1.17109e-06
3.88424e-07
-1.22691e-06
3.78637e-07
-1.2807e-06
3.66024e-07
-1.33211e-06
3.50494e-07
-1.38073e-06
3.31987e-07
-1.42619e-06
3.10477e-07
-1.46812e-06
2.85974e-07
-1.50616e-06
2.58527e-07
-1.53996e-06
2.28229e-07
-1.5692e-06
1.95211e-07
-1.59355e-06
1.59649e-07
-1.61275e-06
1.21762e-07
-1.62654e-06
8.18101e-08
-1.6347e-06
4.00942e-08
-1.63704e-06
-3.04468e-09
-1.63344e-06
-4.72304e-08
-1.62377e-06
-9.2051e-08
-1.60799e-06
-1.37066e-07
-1.58609e-06
-1.81808e-07
-1.55813e-06
-2.25789e-07
-1.52419e-06
-2.68508e-07
-1.48445e-06
-3.09454e-07
-1.43912e-06
-3.48114e-07
-1.38849e-06
-3.83985e-07
-1.33291e-06
-4.16578e-07
-1.27277e-06
-4.45429e-07
-1.20855e-06
-4.70111e-07
-1.14078e-06
-4.9024e-07
-1.07003e-06
-5.05488e-07
-9.96945e-07
-5.15593e-07
-9.22185e-07
-5.20364e-07
-8.46458e-07
-5.19694e-07
-7.70494e-07
-5.13563e-07
-6.95031e-07
-5.02044e-07
-6.20808e-07
-4.85307e-07
-5.48547e-07
-4.63619e-07
-4.78942e-07
-4.37342e-07
-4.12644e-07
-4.06931e-07
-3.50246e-07
-3.72924e-07
-2.92272e-07
-3.35941e-07
-2.39161e-07
-2.96667e-07
-1.91263e-07
-2.55851e-07
-1.48823e-07
-2.14287e-07
-1.11981e-07
-1.72811e-07
-8.076e-08
-1.32289e-07
-5.50697e-08
-9.36087e-08
-3.47009e-08
-5.76788e-08
-1.93268e-08
-2.54214e-08
-8.50399e-09
2.22669e-09
-1.67391e-09
2.43136e-08
1.83578e-09
3.98687e-08
2.8096e-09
4.7898e-08
2.14241e-09
4.7381e-08
8.36845e-10
3.72674e-08
1.64244e-08
-4.14374e-09
1.66596e-08
-1.57524e-08
5.29519e-08
-3.40444e-08
9.03247e-08
-5.82929e-08
1.27463e-07
-8.78345e-08
1.63478e-07
-1.22074e-07
1.97762e-07
-1.60484e-07
2.29943e-07
-2.02603e-07
2.59834e-07
-2.48032e-07
2.87386e-07
-2.96423e-07
3.12644e-07
-3.47474e-07
3.35709e-07
-4.00921e-07
3.5671e-07
-4.56526e-07
3.75775e-07
-5.14069e-07
3.93019e-07
-5.73341e-07
4.08523e-07
-6.34133e-07
4.22329e-07
-6.96232e-07
4.3444e-07
-7.59414e-07
4.44814e-07
-8.23441e-07
4.5337e-07
-8.88057e-07
4.59991e-07
-9.52984e-07
4.64535e-07
-1.01793e-06
4.66837e-07
-1.08257e-06
4.66721e-07
-1.14658e-06
4.64006e-07
-1.20959e-06
4.58516e-07
-1.27125e-06
4.50085e-07
-1.33118e-06
4.38566e-07
-1.38899e-06
4.23833e-07
-1.44429e-06
4.05794e-07
-1.49669e-06
3.84386e-07
-1.5458e-06
3.59587e-07
-1.59124e-06
3.31414e-07
-1.63264e-06
2.99926e-07
-1.66964e-06
2.65227e-07
-1.7019e-06
2.27469e-07
-1.72909e-06
1.86846e-07
-1.75093e-06
1.43601e-07
-1.76714e-06
9.80215e-08
-1.77749e-06
5.04389e-08
-1.78176e-06
1.22837e-09
-1.77979e-06
-4.91976e-08
-1.77146e-06
-1.00385e-07
-1.75668e-06
-1.51849e-07
-1.73541e-06
-2.03074e-07
-1.70768e-06
-2.53521e-07
-1.67356e-06
-3.02631e-07
-1.63318e-06
-3.49835e-07
-1.58673e-06
-3.94558e-07
-1.53449e-06
-4.36231e-07
-1.47676e-06
-4.74299e-07
-1.41396e-06
-5.08232e-07
-1.34654e-06
-5.37533e-07
-1.27502e-06
-5.61754e-07
-1.20001e-06
-5.80505e-07
-1.12214e-06
-5.93464e-07
-1.04211e-06
-6.0039e-07
-9.60672e-07
-6.01133e-07
-8.78594e-07
-5.95641e-07
-7.96669e-07
-5.83969e-07
-7.15698e-07
-5.66278e-07
-6.36471e-07
-5.42845e-07
-5.59758e-07
-5.14056e-07
-4.86283e-07
-4.80405e-07
-4.16721e-07
-4.42487e-07
-3.5167e-07
-4.00991e-07
-2.91647e-07
-3.5669e-07
-2.37072e-07
-3.10426e-07
-1.88256e-07
-2.63103e-07
-1.45397e-07
-2.15671e-07
-1.0857e-07
-1.69116e-07
-7.7726e-08
-1.24453e-07
-5.26903e-08
-8.27145e-08
-3.31616e-08
-4.49501e-08
-1.87144e-08
-1.22205e-08
-8.80121e-09
1.44004e-08
-2.75568e-09
3.38232e-08
2.03657e-10
4.49386e-08
9.69171e-10
4.66154e-08
5.3692e-10
3.76996e-08
1.69614e-08
-4.67936e-09
2.1339e-08
-1.77026e-08
6.59752e-08
-3.81179e-08
1.1074e-07
-6.50509e-08
1.54396e-07
-9.77139e-08
1.96141e-07
-1.35409e-07
2.35458e-07
-1.77528e-07
2.72062e-07
-2.23546e-07
3.05852e-07
-2.73013e-07
3.36853e-07
-3.25546e-07
3.65178e-07
-3.80819e-07
3.90982e-07
-4.38548e-07
4.14438e-07
-4.98481e-07
4.35709e-07
-5.6039e-07
4.54928e-07
-6.24056e-07
4.72189e-07
-6.89265e-07
4.87538e-07
-7.55796e-07
5.00971e-07
-8.23418e-07
5.12437e-07
-8.91886e-07
5.21838e-07
-9.60935e-07
5.2904e-07
-1.03028e-06
5.3388e-07
-1.09962e-06
5.36173e-07
-1.16862e-06
5.35722e-07
-1.23694e-06
5.32328e-07
-1.30422e-06
5.25798e-07
-1.37009e-06
5.15952e-07
-1.43415e-06
5.02632e-07
-1.49603e-06
4.85707e-07
-1.55531e-06
4.65076e-07
-1.6116e-06
4.4068e-07
-1.66451e-06
4.12496e-07
-1.71365e-06
3.80549e-07
-1.75863e-06
3.44906e-07
-1.79908e-06
3.05684e-07
-1.83466e-06
2.63048e-07
-1.86503e-06
2.17213e-07
-1.88987e-06
1.68443e-07
-1.9089e-06
1.17048e-07
-1.92185e-06
6.33882e-08
-1.92849e-06
7.86932e-09
-1.92862e-06
-4.90602e-08
-1.9221e-06
-1.06909e-07
-1.9088e-06
-1.6515e-07
-1.88865e-06
-2.2322e-07
-1.86164e-06
-2.80529e-07
-1.82781e-06
-3.36463e-07
-1.78725e-06
-3.90392e-07
-1.74013e-06
-4.41678e-07
-1.68668e-06
-4.89684e-07
-1.6272e-06
-5.33784e-07
-1.56206e-06
-5.73374e-07
-1.4917e-06
-6.07884e-07
-1.41667e-06
-6.36792e-07
-1.33754e-06
-6.59637e-07
-1.25497e-06
-6.76028e-07
-1.1697e-06
-6.85664e-07
-1.08249e-06
-6.8834e-07
-9.94167e-07
-6.83963e-07
-9.0558e-07
-6.72556e-07
-8.17593e-07
-6.54265e-07
-7.31071e-07
-6.29367e-07
-6.46862e-07
-5.98265e-07
-5.65779e-07
-5.61488e-07
-4.8858e-07
-5.19686e-07
-4.15955e-07
-4.73617e-07
-3.48505e-07
-4.2414e-07
-2.86732e-07
-3.72199e-07
-2.31024e-07
-3.18811e-07
-1.81645e-07
-2.65049e-07
-1.38733e-07
-2.12028e-07
-1.02288e-07
-1.60898e-07
-7.21758e-08
-1.12827e-07
-4.81267e-08
-6.89992e-08
-2.97372e-08
-3.06099e-08
-1.64744e-08
1.1376e-09
-7.68003e-09
2.50288e-08
-2.57631e-09
3.98349e-08
-2.73144e-10
4.43123e-08
2.23335e-10
3.72032e-08
1.71847e-08
-5.2084e-09
2.65474e-08
-1.96273e-08
8.03941e-08
-4.21354e-08
1.33248e-07
-7.17127e-08
1.83973e-07
-1.07448e-07
2.31876e-07
-1.48543e-07
2.76552e-07
-1.94307e-07
3.17827e-07
-2.44153e-07
3.55698e-07
-2.97582e-07
3.90283e-07
-3.54178e-07
4.21773e-07
-4.13586e-07
4.5039e-07
-4.75505e-07
4.76357e-07
-5.39671e-07
4.99875e-07
-6.05846e-07
5.21103e-07
-6.73805e-07
5.40147e-07
-7.43327e-07
5.5706e-07
-8.14186e-07
5.71831e-07
-8.86148e-07
5.84398e-07
-9.58959e-07
5.94649e-07
-1.03235e-06
6.02431e-07
-1.10603e-06
6.07559e-07
-1.17968e-06
6.09829e-07
-1.25298e-06
6.09023e-07
-1.32558e-06
6.04924e-07
-1.3971e-06
5.97322e-07
-1.46718e-06
5.86025e-07
-1.53541e-06
5.70863e-07
-1.6014e-06
5.51698e-07
-1.66475e-06
5.28426e-07
-1.72505e-06
5.00984e-07
-1.78191e-06
4.69354e-07
-1.83492e-06
4.33562e-07
-1.8837e-06
3.93686e-07
-1.92787e-06
3.49852e-07
-1.96706e-06
3.02238e-07
-2.00092e-06
2.51074e-07
-2.02912e-06
1.96641e-07
-2.05135e-06
1.39273e-07
-2.06731e-06
7.9353e-08
-2.07676e-06
1.73146e-08
-2.07946e-06
-4.63619e-08
-2.07521e-06
-1.1115e-07
-2.06388e-06
-1.76483e-07
-2.04535e-06
-2.41752e-07
-2.01956e-06
-3.06318e-07
-1.98651e-06
-3.69511e-07
-1.94626e-06
-4.30643e-07
-1.89893e-06
-4.89009e-07
-1.84471e-06
-5.43901e-07
-1.78388e-06
-5.9462e-07
-1.71677e-06
-6.40483e-07
-1.64381e-06
-6.8084e-07
-1.56552e-06
-7.15086e-07
-1.48248e-06
-7.42677e-07
-1.39536e-06
-7.63148e-07
-1.3049e-06
-7.76121e-07
-1.21191e-06
-7.81328e-07