/*--------------------------------*- C++ -*----------------------------------*\
  =========                 |
  \\      /  F ield         | OpenFOAM: The Open Source CFD Toolbox
   \\    /   O peration     | Website:  https://openfoam.org
    \\  /    A nd           | Version:  7
     \\/     M anipulation  |
\*---------------------------------------------------------------------------*/
FoamFile
{
    version     2.0;
    format      ascii;
    class       volScalarField;
    location    "1.475";
    object      p;
}
// * * * * * * * * * * * * * * * * * * * * * * * * * * * * * * * * * * * * * //

dimensions      [0 2 -2 0 0 0 0];

internalField   nonuniform List<scalar> 
6400
(
1.58026e-06
-7.53829e-07
-0.000113632
-0.000333746
-0.000634766
-0.000992798
-0.0013867
-0.00179811
-0.00221163
-0.0026146
-0.00299669
-0.00334956
-0.00366654
-0.00394233
-0.0041728
-0.00435479
-0.00448593
-0.00456455
-0.00458954
-0.00456027
-0.00447651
-0.00433837
-0.00414626
-0.00390084
-0.003603
-0.00325385
-0.00285469
-0.00240702
-0.00191256
-0.00137321
-0.000791091
-0.00016855
0.000491847
0.00118729
0.00191474
0.00267087
0.00345212
0.00425469
0.0050745
0.00590724
0.00674838
0.00759315
0.00843663
0.0092737
0.0100991
0.0109076
0.0116938
0.0124523
0.0131779
0.0138653
0.0145096
0.015106
0.01565
0.0161377
0.0165652
0.0169296
0.0172283
0.0174592
0.0176212
0.0177137
0.017737
0.0176921
0.017581
0.0174065
0.0171724
0.0168833
0.016545
0.0161642
0.0157487
0.0153073
0.0148502
0.0143886
0.0139352
0.0135042
0.0131112
0.0127731
0.0125074
0.0123315
0.0122607
0.0122843
6.11109e-06
2.95574e-06
-9.71535e-05
-0.000284088
-0.000536264
-0.000836577
-0.00116896
-0.00151858
-0.00187238
-0.0022192
-0.00254969
-0.00285606
-0.00313193
-0.00337211
-0.00357247
-0.00372973
-0.00384142
-0.00390566
-0.00392118
-0.00388714
-0.00380312
-0.00366904
-0.00348513
-0.00325188
-0.00297001
-0.00264048
-0.00226444
-0.00184327
-0.00137853
-0.000871995
-0.000325648
0.000258313
0.000877471
0.00152918
0.00221056
0.0029185
0.00364964
0.0044004
0.00516696
0.00594528
0.00673111
0.00752003
0.00830743
0.00908857
0.00985861
0.0106126
0.0113456
0.0120528
0.0127291
0.01337
0.0139707
0.0145271
0.015035
0.0154908
0.0158913
0.0162335
0.0165154
0.0167352
0.016892
0.0169853
0.0170155
0.0169839
0.0168923
0.0167435
0.0165411
0.0162897
0.0159947
0.0156623
0.0152999
0.0149156
0.0145186
0.0141191
0.0137283
0.0133585
0.0130226
0.0127341
0.0125061
0.0123509
0.0122839
0.0123079
0.00011946
0.000103111
2.59205e-06
-0.000169933
-0.000396302
-0.000662958
-0.000957027
-0.00126622
-0.00157945
-0.001887
-0.0021805
-0.00245287
-0.00269817
-0.0029115
-0.00308887
-0.00322709
-0.00332366
-0.00337667
-0.00338477
-0.00334703
-0.0032629
-0.0031322
-0.00295503
-0.00273175
-0.00246297
-0.00214951
-0.00179243
-0.00139295
-0.000952535
-0.000472828
4.43134e-05
0.000596824
0.00118243
0.00179862
0.00244269
0.00311168
0.00380244
0.00451155
0.00523543
0.00597026
0.00671203
0.00745656
0.00819954
0.00893649
0.00966287
0.0103741
0.0110654
0.0117324
0.0123704
0.012975
0.0135419
0.0140673
0.0145472
0.0149784
0.0153578
0.015683
0.0159519
0.016163
0.0163154
0.016409
0.0164442
0.0164222
0.0163448
0.0162149
0.0160358
0.0158119
0.0155483
0.0152509
0.0149265
0.0145826
0.0142277
0.013871
0.0135224
0.0131927
0.0128928
0.0126342
0.0124275
0.0122828
0.0122164
0.0122378
0.000340578
0.000290586
0.000174212
5.2462e-07
-0.000217289
-0.000467904
-0.000740534
-0.00102491
-0.00131164
-0.00159233
-0.00185965
-0.00210726
-0.0023298
-0.00252277
-0.00268246
-0.00280585
-0.00289057
-0.00293476
-0.00293706
-0.00289653
-0.00281259
-0.00268497
-0.00251371
-0.00229908
-0.00204159
-0.00174198
-0.00140117
-0.00102031
-0.000600729
-0.000143959
0.000348263
0.000873999
0.00143111
0.00201722
0.00262979
0.003266
0.00392287
0.00459717
0.00528549
0.00598421
0.00668953
0.00739749
0.00810398
0.00880478
0.00949558
0.010172
0.0108296
0.0114642
0.0120713
0.0126468
0.0131867
0.0136872
0.0141448
0.0145564
0.0149191
0.0152306
0.015489
0.015693
0.0158418
0.0159352
0.0159738
0.0159586
0.0158917
0.0157755
0.0156134
0.0154095
0.0151686
0.0148963
0.0145989
0.0142833
0.0139572
0.013629
0.0133076
0.0130025
0.0127232
0.0124798
0.0122813
0.0121368
0.012061
0.0120637
0.000645083
0.000545014
0.000400549
0.000215135
-4.66298e-06
-0.000249496
-0.000510336
-0.000778764
-0.00104696
-0.00130782
-0.00155505
-0.00178312
-0.0019873
-0.00216356
-0.00230855
-0.00241952
-0.00249426
-0.00253105
-0.0025286
-0.00248597
-0.0024026
-0.00227818
-0.00211269
-0.00190635
-0.0016596
-0.00137307
-0.00104759
-0.000684217
-0.000284159
0.000151162
0.000620135
0.00112095
0.0016516
0.00220987
0.00279334
0.00339938
0.00402515
0.0046676
0.00532349
0.0059894
0.0066617
0.00733665
0.00801033
0.00867872
0.00933771
0.00998315
0.0106109
0.0112167
0.0117965
0.0123464
0.0128626
0.0133414
0.0137795
0.0141739
0.014522
0.0148215
0.0150707
0.0152683
0.0154136
0.0155065
0.0155475
0.0155377
0.0154789
0.0153736
0.015225
0.0150369
0.0148139
0.0145611
0.0142843
0.01399
0.0136853
0.0133775
0.0130748
0.0127853
0.0125176
0.0122801
0.012081
0.0119283
0.0118326
0.0118007
0.00101082
0.000850445
0.000668925
0.000463367
0.000233006
-1.45526e-05
-0.000271773
-0.000531912
-0.00078861
-0.00103598
-0.00126871
-0.00148213
-0.00167214
-0.00183524
-0.0019685
-0.00206947
-0.00213619
-0.00216709
-0.002161
-0.00211706
-0.00203471
-0.00191367
-0.00175388
-0.00155552
-0.00131896
-0.00104476
-0.000733677
-0.000386639
-4.76807e-06
0.000410634
0.000858078
0.00133588
0.00184218
0.00237489
0.00293175
0.00351027
0.00410779
0.0047214
0.00534805
0.00598447
0.00662723
0.00727275
0.00791728
0.008557
0.00918798
0.00980624
0.0104078
0.0109886
0.0115448
0.0120725
0.0125682
0.0130283
0.0134496
0.0138293
0.0141648
0.014454
0.0146952
0.0148872
0.0150293
0.0151214
0.015164
0.0151581
0.0151055
0.0150085
0.01487
0.0146938
0.014484
0.0142455
0.0139836
0.0137044
0.013414
0.0131193
0.0128275
0.0125458
0.0122816
0.0120422
0.0118347
0.0116662
0.0115421
0.0114647
0.00141823
0.00119188
0.000967229
0.000735035
0.000487184
0.000229821
-3.07571e-05
-0.000289293
-0.000540751
-0.000780363
-0.00100378
-0.00120712
-0.00138697
-0.00154037
-0.00166482
-0.00175823
-0.0018189
-0.00184548
-0.00183693
-0.00179251
-0.00171171
-0.00159428
-0.00144015
-0.00124948
-0.00102258
-0.000759954
-0.000462278
-0.000130392
0.000234686
0.000631767
0.00105948
0.00151627
0.00200041
0.00250995
0.00304278
0.00359656
0.00416877
0.00475667
0.00535736
0.00596772
0.00658449
0.00720424
0.00782339
0.00843826
0.00904507
0.00964
0.0102192
0.0107787
0.0113149
0.011824
0.0123025
0.0127469
0.0131543
0.0135218
0.0138469
0.0141276
0.0143621
0.0145493
0.0146886
0.0147797
0.0148231
0.0148198
0.0147714
0.0146802
0.0145488
0.0143807
0.0141799
0.0139509
0.0136985
0.0134283
0.013146
0.0128577
0.0125698
0.0122887
0.0120209
0.0117724
0.0115499
0.0113593
0.0112005
0.0110708
0.00185029
0.00155532
0.0012837
0.0010202
0.00074963
0.000476937
0.000207415
-5.49885e-05
-0.000306426
-0.000543156
-0.000761726
-0.000959019
-0.00113227
-0.00127909
-0.00139741
-0.00148552
-0.00154202
-0.00156579
-0.00155596
-0.00151191
-0.00143321
-0.00131966
-0.00117121
-0.000988001
-0.00077031
-0.000518588
-0.000233434
8.43929e-05
0.000433974
0.000814228
0.0012239
0.00166157
0.00212562
0.00261426
0.0031255
0.00365716
0.00420685
0.004772
0.00534983
0.00593738
0.00653153
0.00712898
0.0077263
0.00831993
0.00890621
0.00948145
0.0100419
0.0105837
0.0111034
0.0115971
0.0120615
0.0124933
0.0128895
0.0132472
0.0135639
0.0138377
0.0140669
0.0142503
0.0143871
0.0144772
0.0145209
0.0145192
0.0144734
0.0143858
0.0142588
0.0140956
0.0139
0.0136761
0.0134285
0.0131622
0.0128824
0.0125946
0.0123046
0.0120181
0.0117405
0.0114773
0.0112342
0.0110165
0.0108186
0.0106328
0.00229245
0.00192817
0.00160742
0.00130944
0.00101232
0.000720103
0.000437256
0.000166588
-8.91131e-05
-0.000327037
-0.000544556
-0.00073928
-0.000909079
-0.00105209
-0.00116671
-0.00125161
-0.00130569
-0.00132807
-0.00131807
-0.00127522
-0.0011992
-0.00108984
-0.00094714
-0.000771224
-0.000562356
-0.000320936
-4.75001e-05
0.000257274
0.00059256
0.00095738
0.0013506
0.00177091
0.00221683
0.0026867
0.00317867
0.00369069
0.00422051
0.0047657
0.00532362
0.00589143
0.00646615
0.00704459
0.00762344
0.00819925
0.00876847
0.00932748
0.0098726
0.0104002
0.0109065
0.0113881
0.0118416
0.0122635
0.012651
0.0130012
0.0133118
0.0135805
0.0138057
0.0139861
0.0141211
0.0142103
0.014254
0.0142529
0.0142085
0.0141226
0.0139977
0.0138367
0.013643
0.0134205
0.0131735
0.0129065
0.0126244
0.0123322
0.012035
0.0117378
0.0114454
0.0111626
0.0108946
0.0106461
0.0104061
0.0101624
0.0027324
0.00229929
0.00192844
0.00159392
0.00126758
0.000952699
0.000653142
0.000370715
0.000107268
-0.000135227
-0.000354901
-0.000550042
-0.000719117
-0.00086078
-0.000973882
-0.00105746
-0.00111072
-0.00113304
-0.00112395
-0.00108312
-0.00101032
-0.000905481
-0.000768622
-0.00059988
-0.000399501
-0.000167844
9.46131e-05
0.000387267
0.000709382
0.00106008
0.00143834
0.00184297
0.00227262
0.00272576
0.00320066
0.0036954
0.00420788
0.00473579
0.0052766
0.00582761
0.00638594
0.00694852
0.00751213
0.00807341
0.00862889
0.009175
0.00970813
0.0102247
0.010721
0.0111935
0.0116389
0.0120538
0.0124352
0.0127804
0.0130867
0.0133521
0.0135748
0.0137534
0.0138872
0.0139758
0.0140193
0.0140184
0.0139743
0.0138887
0.0137639
0.0136026
0.013408
0.0131838
0.0129338
0.0126623
0.0123737
0.0120727
0.0117638
0.0114516
0.0111403
0.010834
0.0105375
0.0102554
0.0099715
0.00966924
0.00315962
0.00265886
0.00223772
0.00186548
0.00150809
0.0011683
0.000849477
0.000552564
0.000278583
2.87537e-05
-0.000195746
-0.000393834
-0.000564537
-0.000707005
-0.000820513
-0.000904463
-0.000958373
-0.000981868
-0.000974677
-0.000936617
-0.000867594
-0.000767597
-0.000636694
-0.000475035
-0.000282852
-6.04712e-05
0.000191685
0.000473086
0.000783082
0.00112089
0.00148561
0.00187615
0.00229129
0.00272962
0.00318955
0.00366928
0.00416683
0.00468
0.0052064
0.00574342
0.0062883
0.00683804
0.00738951
0.00793941
0.00848434
0.00902078
0.00954514
0.0100538
0.0105432
0.0110097
0.01145
0.0118606
0.0122386
0.0125809
0.0128852
0.0131491
0.0133708
0.0135489
0.0136824
0.0137709
0.0138143
0.0138132
0.0137686
0.0136822
0.0135559
0.0133924
0.0131946
0.0129658
0.0127097
0.0124304
0.0121318
0.0118182
0.0114939
0.011163
0.0108292
0.0104961
0.0101686
0.00985072
0.00952172
0.00916107
0.00356497
0.00299813
0.00252708
0.00211656
0.00172699
0.00136073
0.00102076
0.000707276
0.00042057
0.000161182
-7.03396e-05
-0.000273491
-0.000447823
-0.000592949
-0.00070855
-0.000794378
-0.000850247
-0.000876029
-0.000871649
-0.000837082
-0.000772347
-0.000677512
-0.000552689
-0.000398044
-0.000213804
-2.58741e-07
0.00024222
0.00051317
0.000812028
0.00113811
0.00149061
0.00186857
0.00227087
0.00269623
0.00314318
0.00361005
0.00409496
0.00459584
0.00511041
0.00563615
0.00617038
0.00671019
0.00725251
0.00779411
0.0083316
0.0088615
0.00938022
0.00988416
0.0103697
0.0108332
0.0112712
0.0116803
0.0120574
0.0123995
0.0127039
0.0129683
0.0131907
0.0133696
0.0135038
0.0135928
0.0136365
0.0136352
0.0135897
0.0135016
0.0133727
0.0132053
0.0130022
0.0127666
0.0125019
0.0122119
0.0119002
0.0115709
0.011228
0.0108752
0.0105159
0.0101535
0.00979263
0.00943745
0.0090627
0.00864418
0.00394045
0.0033093
0.00278904
0.00234014
0.00191779
0.00152404
0.0011616
0.000830007
0.000528888
0.00025818
1.78586e-05
-0.000192105
-0.000371745
-0.000521108
-0.000640259
-0.000729281
-0.000788272
-0.000817341
-0.000816604
-0.000786187
-0.000726221
-0.000636851
-0.000518236
-0.000370559
-0.000194037
1.10697e-05
0.000244441
0.000505683
0.000794316
0.00110975
0.00145129
0.00181807
0.00220912
0.00262325
0.00305912
0.00351517
0.00398965
0.00448059
0.00498579
0.00550284
0.00602913
0.00656183
0.00709791
0.00763416
0.00816725
0.00869367
0.00920984
0.00971212
0.0101968
0.0106603
0.011099
0.0115094
0.0118883
0.0122325
0.0125394
0.0128063
0.0130312
0.0132125
0.0133487
0.0134392
0.0134837
0.0134824
0.013436
0.0133457
0.0132132
0.0130407
0.0128309
0.0125865
0.012311
0.0120078
0.0116805
0.0113328
0.0109685
0.0105911
0.010204
0.00980996
0.00941397
0.00902024
0.00859932
0.00812355
0.00427893
0.00358533
0.0030168
0.00252975
0.0020744
0.00165258
0.00126678
0.000915965
0.000599164
0.000315769
6.52317e-05
-0.000152965
-0.000339304
-0.000494234
-0.000618179
-0.000711536
-0.000774669
-0.000807913
-0.000811566
-0.000785897
-0.000731144
-0.000647526
-0.000535247
-0.000394504
-0.000225506
-2.84812e-05
0.000196303
0.000448521
0.000727775
0.00103357
0.00136532
0.00172227
0.00210354
0.0025081
0.00293469
0.00338188
0.00384802
0.00433125
0.00482946
0.00534032
0.00586129
0.0063896
0.00692225
0.00745607
0.00798771
0.00851367
0.00903034
0.00953401
0.0100209
0.0104874
0.0109297
0.0113443
0.0117277
0.0120767
0.0123884
0.0126601
0.0128896
0.0130749
0.0132146
0.0133078
0.0133539
0.0133531
0.0133058
0.0132131
0.0130766
0.0128981
0.0126803
0.0124257
0.0121376
0.0118192
0.0114741
0.0111057
0.0107178
0.0103136
0.00989639
0.00946892
0.0090363
0.00860298
0.00813556
0.00760306
0.00457401
0.00381979
0.00320406
0.00267933
0.00219105
0.00174091
0.00133122
0.000960426
0.000627025
0.000329908
6.80491e-05
-0.000159519
-0.000353691
-0.000515294
-0.000645086
-0.000743755
-0.000811917
-0.000850116
-0.000858823
-0.00083844
-0.000789308
-0.000711712
-0.000605895
-0.000472069
-0.000310427
-0.000121165
9.55024e-05
0.000339322
0.000609978
0.000907075
0.00123011
0.00157847
0.00195139
0.00234791
0.00276693
0.00320712
0.00366693
0.00414459
0.00463808
0.00514517
0.00566335
0.00618991
0.00672188
0.00725611
0.00778923
0.00831771
0.0088379
0.00934601
0.00983823
0.0103107
0.0107596
0.0111812
0.011572
0.0119285
0.0122477
0.0125265
0.0127627
0.0129541
0.0130989
0.0131962
0.0132451
0.0132456
0.0131979
0.013103
0.0129621
0.0127772
0.0125505
0.0122846
0.0119824
0.0116473
0.0112825
0.0108915
0.0104779
0.010045
0.0095959
0.00913335
0.00866279
0.00818893
0.00767467
0.00708577
0.00481981
0.00400679
0.00334501
0.00278321
0.0022623
0.00178383
0.00134999
0.00095875
0.000608116
0.000296521
2.24999e-05
-0.00021533
-0.00041825
-0.000587434
-0.00072395
-0.00082876
-0.000902714
-0.000946551
-0.0009609
-0.000946288
-0.000903148
-0.000831826
-0.000732599
-0.000605684
-0.000451259
-0.000269482
-6.05097e-05
0.000175475
0.000438245
0.0007275
0.00104285
0.00138378
0.00174963
0.00213959
0.00255265
0.00298759
0.00344297
0.00391711
0.00440808
0.00491371
0.00543156
0.00595895
0.00649293
0.00703035
0.00756783
0.0081018
0.00862852
0.00914415
0.00964474
0.0101263
0.0105849
0.0110167
0.0114178
0.0117846
0.0121139
0.0124025
0.0126478
0.0128474
0.0129993
0.0131024
0.0131555
0.0131583
0.013111
0.0130143
0.0128693
0.0126777
0.0124416
0.0121635
0.0118462
0.011493
0.0111071
0.0106919
0.0102509
0.00978761
0.00930498
0.0088059
0.00829615
0.00778086
0.00721926
0.00657403
0.0050109
0.00414083
0.00343418
0.00283604
0.00228294
0.00177634
0.00131831
0.000906382
0.000538117
0.00021152
-7.52812e-05
-0.000324057
-0.000536444
-0.000713943
-0.00085791
-0.00096956
-0.00104996
-0.00110002
-0.00112053
-0.00111213
-0.00107532
-0.00101051
-0.000918002
-0.000798011
-0.000650693
-0.000476163
-0.000274519
-4.58648e-05
0.000209659
0.000491855
0.000800435
0.001135
0.00149502
0.00187978
0.00228839
0.00271974
0.00317249
0.00364507
0.00413562
0.00464203
0.00516192
0.00569264
0.00623127
0.00677464
0.00731933
0.00786172
0.00839802
0.00892425
0.00943636
0.00993021
0.0104017
0.0108466
0.0112612
0.0116414
0.0119838
0.0122849
0.0125419
0.0127521
0.0129134
0.0130242
0.0130832
0.0130898
0.013044
0.0129462
0.0127975
0.0125993
0.0123537
0.0120629
0.0117298
0.0113575
0.0109493
0.0105085
0.0100387
0.00954348
0.00902588
0.00848889
0.00793876
0.00738108
0.00677151
0.00606965
0.00514217
0.00421675
0.00346641
0.00283275
0.00224802
0.00171361
0.00123152
0.000798855
0.000412752
7.08203e-05
-0.000229193
-0.00048942
-0.000711832
-0.00089823
-0.00105024
-0.00116931
-0.00125671
-0.00131352
-0.00134065
-0.00133884
-0.00130869
-0.00125062
-0.00116496
-0.00105192
-0.000911636
-0.000744162
-0.000549532
-0.000327771
-7.89257e-05
0.000196909
0.000499559
0.000828741
0.00118404
0.00156486
0.00197043
0.00239975
0.00285158
0.00332445
0.00381658
0.00432593
0.00485017
0.00538667
0.00593252
0.00648454
0.00703928
0.00759305
0.00814196
0.00868193
0.00920875
0.00971813
0.0102057
0.0106672
0.0110984
0.0114953
0.0118538
0.0121705
0.0124421
0.0126657
0.0128388
0.0129596
0.0130264
0.0130386
0.0129957
0.0128981
0.0127464
0.0125421
0.012287
0.0119834
0.0116341
0.011242
0.0108104
0.0103429
0.00984312
0.0093146
0.00876066
0.00818445
0.00759273
0.00699161
0.00633322
0.00557408
0.00520878
0.00422965
0.00343682
0.00276847
0.00215277
0.001591
0.00108511
0.000631791
0.000227795
-0.000129647
-0.000443151
-0.000715188
-0.000948042
-0.0011438
-0.00130433
-0.00143131
-0.00152618
-0.00159018
-0.00162434
-0.00162949
-0.00160628
-0.00155518
-0.00147652
-0.00137049
-0.00123719
-0.00107663
-0.000888764
-0.000673529
-0.000430874
-0.000160786
0.000136676
0.000461349
0.000812937
0.00119098
0.00159481
0.00202355
0.00247607
0.00295099
0.00344661
0.00396096
0.00449177
0.00503643
0.00559204
0.0061554
0.006723
0.0072911
0.00785569
0.00841258
0.00895738
0.00948563
0.00999276
0.0104742
0.0109255
0.0113424
0.0117205
0.012056
0.0123454
0.0125853
0.0127731
0.0129064
0.0129835
0.0130033
0.0129651
0.012869
0.0127156
0.012506
0.0122419
0.0119257
0.0115598
0.0111475
0.0106919
0.0101968
0.00966587
0.00910286
0.0085113
0.00789456
0.00725999
0.00661425
0.00590593
0.00508845
0.00520613
0.00417485
0.00334071
0.00263856
0.00199258
0.00140399
0.000874655
0.000400898
-2.09204e-05
-0.000393924
-0.00072107
-0.00100515
-0.00124875
-0.00145421
-0.00162365
-0.00175894
-0.00186168
-0.00193327
-0.00197483
-0.00198727
-0.00197129
-0.00192739
-0.00185589
-0.00175696
-0.00163065
-0.00147691
-0.00129562
-0.00108662
-0.000849751
-0.00058489
-0.000291973
2.8963e-05
0.00037775
0.000754051
0.00115733
0.00158683
0.00204154
0.00252015
0.00302108
0.00354242
0.00408193
0.00463706
0.00520491
0.00578224
0.00636551
0.00695089
0.00753427
0.0081113
0.00867745
0.00922802
0.00975822
0.0102632
0.0107383
0.0111788
0.0115801
0.0119379
0.0122485
0.0125081
0.0127136
0.0128625
0.0129526
0.0129824
0.0129511
0.0128584
0.0127046
0.0124909
0.0122187
0.0118902
0.011508
0.0110752
0.0105953
0.0100718
0.00950874
0.00891015
0.00827972
0.00762113
0.00694235
0.00625065
0.00549103
0.00461374
0.00512976
0.00404787
0.00317358
0.00243853
0.00176303
0.00114822
0.000595876
0.000101975
-0.000337499
-0.000726013
-0.00106685
-0.00136312
-0.00161767
-0.0018331
-0.00201175
-0.00215568
-0.00226665
-0.00234617
-0.00239547
-0.00241551
-0.00240705
-0.00237058
-0.00230643
-0.00221472
-0.00209546
-0.00194851
-0.00177368
-0.0015707
-0.00133931
-0.00107925
-0.000790343
-0.000472485
-0.000125711
0.000249777
0.000653578
0.00108506
0.00154331
0.00202716
0.0025351
0.0030653
0.00361559
0.00418343
0.00476593
0.00535984
0.00596156
0.00656718
0.00717248
0.00777295
0.00836388
0.00894034
0.0094973
0.0100297
0.0105323
0.0110002
0.0114286
0.0118127
0.0121482
0.0124311
0.0126579
0.0128256
0.0129318
0.0129745
0.0129525
0.0128654
0.0127133
0.0124969
0.0122177
0.0118778
0.0114797
0.0110266
0.0105219
0.0099695
0.00937357
0.00873835
0.00806784
0.00736604
0.00664159
0.00590242
0.00508984
0.00415085
0.00497537
0.00384435
0.00293109
0.00216407
0.00145983
0.000819433
0.000244586
-0.000269093
-0.000725978
-0.00112987
-0.00148437
-0.00179287
-0.00205851
-0.00228411
-0.00247222
-0.00262506
-0.00274456
-0.00283234
-0.00288969
-0.00291765
-0.00291699
-0.00288822
-0.00283162
-0.0027473
-0.00263518
-0.00249507
-0.00232666
-0.00212958
-0.00190345
-0.00164789
-0.00136257
-0.00104725
-0.000701825
-0.000326354
7.89034e-05
0.000513446
0.000976502
0.001467
0.00198354
0.00252438
0.0030874
0.0036701
0.00426961
0.00488266
0.00550561
0.00613444
0.00676481
0.00739207
0.0080113
0.00861735
0.0092049
0.00976854
0.0103028
0.0108024
0.0112619
0.0116763
0.0120409
0.0123512
0.0126032
0.0127935
0.0129191
0.012978
0.0129684
0.0128895
0.0127412
0.0125241
0.0122395
0.0118892
0.011476
0.0110028
0.0104734
0.00989176
0.00926225
0.00858944
0.00787764
0.00713122
0.00635951
0.00557119
0.0047037
0.00370069
0.00473879
0.00356012
0.00260904
0.00181098
0.00107881
0.000413506
-0.000183297
-0.000716332
-0.00119033
-0.0016094
-0.00197747
-0.0022982
-0.00257499
-0.0028109
-0.00300866
-0.00317067
-0.00329897
-0.00339529
-0.00346101
-0.0034972
-0.00350464
-0.00348383
-0.00343505
-0.00335833
-0.00325353
-0.00312036
-0.00295841
-0.00276721
-0.00254623
-0.00229496
-0.00201293
-0.00169974
-0.00135514
-0.000979027
-0.000571516
-0.000132961
0.000336004
0.000834433
0.00136104
0.00191416
0.00249177
0.00309141
0.00371022
0.00434492
0.00499181
0.0056468
0.00630544
0.0069629
0.00761405
0.00825349
0.00887563
0.00947471
0.0100449
0.0105805
0.0110756
0.0115249
0.011923
0.012265
0.0125465
0.0127635
0.0129127
0.0129913
0.0129975
0.0129299
0.0127882
0.0125727
0.0122845
0.0119254
0.011498
0.0110055
0.0104515
0.00984045
0.00917681
0.00846551
0.00771123
0.0069187
0.00609804
0.00525866
0.00433403
0.00326425
0.00441595
0.00319109
0.00220336
0.00137519
0.000615923
-7.35784e-05
-0.000691754
-0.00124368
-0.00173443
-0.00216845
-0.00254994
-0.00288285
-0.00317082
-0.00341713
-0.0036247
-0.00379607
-0.00393343
-0.00403858
-0.00411297
-0.0041577
-0.00417356
-0.00416103
-0.00412035
-0.0040515
-0.00395425
-0.00382821
-0.00367287
-0.00348762
-0.0032718
-0.00302475
-0.00274583
-0.0024345
-0.00209034
-0.00171308
-0.00130267
-0.000859305
-0.000383472
0.000124022
0.000662014
0.00122895
0.00182289
0.00244142
0.00308173
0.00374051
0.00441405
0.00509816
0.00578826
0.00647936
0.00716613
0.0078429
0.00850378
0.00914265
0.00975331
0.0103295
0.0108651
0.011354
0.0117905
0.0121691
0.0124848
0.0127331
0.0129101
0.0130128
0.0130386
0.0129859
0.0128539
0.0126428
0.0123533
0.0119873
0.0115471
0.0110361
0.0104582
0.00981763
0.00911944
0.00836884
0.00757086
0.00673069
0.00585924
0.00496672
0.00398239
0.00284268
0.00400292
0.00273331
0.00171008
0.000852769
6.7239e-05
-0.000645729
-0.00128467
-0.00185499
-0.00236212
-0.0028108
-0.00320552
-0.00355052
-0.00384966
-0.00410643
-0.00432394
-0.00450487
-0.00465152
-0.00476578
-0.00484913
-0.00490273
-0.00492735
-0.00492346
-0.00489122
-0.00483056
-0.00474116
-0.00462253
-0.00447403
-0.00429492
-0.00408437
-0.00384159
-0.00356576
-0.00325617
-0.00291222
-0.00253346
-0.00211966
-0.00167086
-0.00118736
-0.000669831
-0.000119284
0.00046285
0.00107471
0.00171399
0.00237788
0.00306312
0.00376593
0.00448208
0.00520685
0.00593509
0.00666125
0.0073794
0.00808332
0.00876654
0.00942241
0.0100442
0.0106253
0.0111591
0.0116392
0.0120596
0.0124147
0.0126994
0.0129093
0.0130406
0.0130904
0.0130567
0.0129382
0.0127346
0.0124467
0.0120759
0.0116248
0.0110966
0.0104953
0.00982556
0.00909254
0.00830189
0.00745904
0.00656962
0.00564542
0.00469747
0.00365062
0.00243738
0.00349584
0.00218293
0.00112538
0.000239872
-0.000571062
-0.00130675
-0.00196582
-0.00255403
-0.00307712
-0.00354015
-0.0039479
-0.00430485
-0.00461512
-0.0048824
-0.00510996
-0.00530062
-0.00545679
-0.00558042
-0.00567306
-0.00573587
-0.00576961
-0.00577473
-0.00575133
-0.00569925
-0.00561809
-0.00550723
-0.0053659
-0.00519321
-0.0049882
-0.00474987
-0.00447725
-0.00416943
-0.00382562
-0.00344518
-0.0030277
-0.002573
-0.00208122
-0.00155285
-0.000988746
-0.000390204
0.00024104
0.000902759
0.00159222
0.00230618
0.00304084
0.0037919
0.00455453
0.00532343
0.00609282
0.0068565
0.00760792
0.00834021
0.00904629
0.00971896
0.010351
0.0109352
0.0114646
0.0119325
0.0123327
0.0126594
0.0129076
0.0130728
0.0131516
0.0131414
0.0130406
0.0128484
0.0125653
0.0121926
0.0117327
0.0111889
0.0105653
0.00986673
0.00909879
0.00826744
0.00737855
0.00643824
0.00545919
0.00445334
0.00334083
0.00205004
0.00289096
0.00153623
0.000445512
-0.000467219
-0.00130269
-0.00206035
-0.00273891
-0.00334446
-0.00388308
-0.00436013
-0.00478067
-0.00514944
-0.00547078
-0.00574858
-0.00598628
-0.00618683
-0.00635273
-0.00648601
-0.00658826
-0.00666063
-0.0067039
-0.00671845
-0.00670432
-0.00666128
-0.00658881
-0.00648617
-0.00635246
-0.00618661
-0.0059875
-0.00575396
-0.00548482
-0.00517896
-0.0048354
-0.00445328
-0.00403198
-0.00357112
-0.00307064
-0.00253082
-0.00195235
-0.00133637
-0.00068446
1.25462e-06
0.000718125
0.00146294
0.00223192
0.0030207
0.00382437
0.00463744
0.00545394
0.0062674
0.0070709
0.0078572
0.00861873
0.00934776
0.0100365
0.010677
0.0112619
0.0117835
0.012235
0.0126099
0.0129024
0.0131074
0.0132208
0.0132394
0.0131609
0.0129845
0.0127099
0.0123385
0.0118725
0.0113151
0.0106705
0.00994393
0.00914114
0.00826855
0.00733251
0.00633961
0.00530352
0.0042371
0.0030555
0.00168273
0.00218466
0.000789571
-0.000333128
-0.00127211
-0.00213126
-0.00291012
-0.00360751
-0.00422986
-0.00478357
-0.00527429
-0.00570736
-0.00608779
-0.00642012
-0.00670844
-0.00695635
-0.00716693
-0.00734277
-0.00748597
-0.00759815
-0.00768048
-0.00773369
-0.00775813
-0.00775377
-0.00772028
-0.00765704
-0.00756316
-0.0074376
-0.00727913
-0.00708643
-0.00685815
-0.00659291
-0.00628939
-0.00594636
-0.00556276
-0.00513771
-0.00467063
-0.00416122
-0.00360955
-0.00301611
-0.00238185
-0.00170818
-0.000997104
-0.000251151
0.00052653
0.00133218
0.00216141
0.00300921
0.00386997
0.0047375
0.00560504
0.00646535
0.00731074
0.00813318
0.00892438
0.00967589
0.0103792
0.011026
0.011608
0.0121176
0.0125474
0.0128909
0.0131421
0.0132963
0.0133495
0.013299
0.0131432
0.0128816
0.0125153
0.0120462
0.0114776
0.0108139
0.0100603
0.00922291
0.00830871
0.00732443
0.00627723
0.00518179
0.00405196
0.00279757
0.00133797
0.00137341
-6.05407e-05
-0.00121404
-0.00217831
-0.00306027
-0.00385956
-0.00457513
-0.00521372
-0.00578205
-0.00628607
-0.00673141
-0.0071233
-0.00746652
-0.00776534
-0.00802352
-0.00824426
-0.00843025
-0.00858364
-0.00870608
-0.00879875
-0.00886234
-0.00889717
-0.00890312
-0.00887976
-0.00882634
-0.00874186
-0.00862509
-0.00847464
-0.00828901
-0.00806661
-0.00780586
-0.0075052
-0.00716318
-0.00677847
-0.00634997
-0.00587682
-0.00535848
-0.00479478
-0.00418599
-0.00353282
-0.00283653
-0.00209891
-0.00132239
-0.000510009
0.000334518
0.0012068
0.00210177
0.00301368
0.00393613
0.00486212
0.00578404
0.00669379
0.00758282
0.00844226
0.009263
0.0100358
0.0107516
0.0114012
0.0119762
0.0124682
0.01287
0.0131746
0.0133765
0.0134709
0.0134545
0.0133249
0.0130814
0.0127246
0.0122561
0.0116793
0.0109985
0.0102192
0.00934783
0.00839178
0.00735829
0.00625507
0.0050979
0.00390165
0.00257048
0.00101881
0.000453835
-0.0010175
-0.00220062
-0.00318921
-0.00409309
-0.00491206
-0.00564514
-0.0062994
-0.00688189
-0.00739884
-0.00785615
-0.00825929
-0.00861327
-0.00892255
-0.00919103
-0.00942204
-0.00961836
-0.00978219
-0.00991523
-0.0100186
-0.0100931
-0.0101388
-0.0101556
-0.010143
-0.0101001
-0.0100257
-0.0099185
-0.00977683
-0.00959902
-0.00938328
-0.00912777
-0.00883069
-0.00849034
-0.00810512
-0.00767365
-0.0071948
-0.00666777
-0.0060921
-0.00546781
-0.00479536
-0.00407579
-0.0033107
-0.00250233
-0.00165362
-0.000768178
0.000149616
0.00109466
0.0020611
0.00304236
0.00403117
0.00501959
0.00599908
0.00696057
0.00789457
0.0087913
0.00964076
0.0104329
0.0111579
0.0118062
0.0123685
0.0128364
0.0132024
0.0134596
0.0136025
0.013627
0.0135302
0.0133105
0.0129681
0.0125046
0.0119231
0.0112278
0.0104245
0.00952007
0.00852216
0.00743859
0.00627766
0.00505629
0.00379046
0.00237828
0.00072887
-0.000577342
-0.00208456
-0.00329613
-0.00430807
-0.00523303
-0.0060709
-0.00682083
-0.00749019
-0.00808635
-0.00861584
-0.00908479
-0.00949896
-0.00986355
-0.0101832
-0.010462
-0.0107033
-0.0109101
-0.0110847
-0.0112286
-0.0113431
-0.0114289
-0.011486
-0.0115143
-0.0115132
-0.0114815
-0.011418
-0.0113211
-0.0111891
-0.01102
-0.0108118
-0.0105625
-0.0102699
-0.00993203
-0.00954709
-0.00911337
-0.00862944
-0.00809418
-0.00750686
-0.00686717
-0.00617533
-0.00543209
-0.00463883
-0.00379759
-0.00291113
-0.00198295
-0.00101737
-1.94944e-05
0.00100475
0.00204862
0.00310461
0.00416444
0.00521915
0.00625913
0.00727427
0.00825405
0.00918766
0.0100642
0.0108728
0.0116028
0.012244
0.0127869
0.0132227
0.0135437
0.0137433
0.0138165
0.0137594
0.0135701
0.0132481
0.0127945
0.0122122
0.0115057
0.0106807
0.0097443
0.00870478
0.00757041
0.00635012
0.00506206
0.00372336
0.00222564
0.000472455
-0.00172324
-0.00326487
-0.00450372
-0.00553807
-0.00648325
-0.00733926
-0.00810537
-0.00878926
-0.0093986
-0.00994019
-0.0104205
-0.0108454
-0.0112204
-0.0115503
-0.0118393
-0.0120911
-0.0123085
-0.0124938
-0.012649
-0.012775
-0.0128725
-0.0129416
-0.012982
-0.012993
-0.0129733
-0.0129215
-0.0128359
-0.0127145
-0.0125552
-0.0123556
-0.0121134
-0.0118263
-0.0114921
-0.0111084
-0.0106734
-0.0101852
-0.00964245
-0.00904404
-0.00838935
-0.00767826
-0.00691125
-0.0060894
-0.00521452
-0.00428916
-0.00331666
-0.00230123
-0.00124795
-0.000162794
0.00094739
0.00207486
0.00321101
0.00434647
0.0054711
0.00657415
0.00764432
0.00866997
0.00963921
0.0105401
0.011361
0.0120904
0.0127177
0.0132328
0.0136268
0.0138921
0.0140225
0.0140134
0.0138618
0.0135667
0.0131287
0.0125506
0.0118365
0.0109924
0.0100258
0.00894518
0.0077595
0.0064783
0.00512101
0.00370602
0.00211804
0.000254626
-0.00298684
-0.00456141
-0.00582641
-0.00688225
-0.00784681
-0.00872023
-0.00950186
-0.0101997
-0.0108217
-0.0113749
-0.0118661
-0.0123015
-0.0126866
-0.0130266
-0.0133258
-0.0135879
-0.0138159
-0.0140123
-0.0141788
-0.0143166
-0.0144263
-0.0145079
-0.0145611
-0.0145848
-0.014578
-0.0145388
-0.0144655
-0.0143557
-0.0142072
-0.0140174
-0.0137836
-0.0135033
-0.0131738
-0.0127926
-0.0123574
-0.0118661
-0.0113168
-0.0107082
-0.0100391
-0.00930926
-0.00851865
-0.00766809
-0.0067591
-0.00579397
-0.00477584
-0.00370877
-0.00259775
-0.00144876
-0.000268726
0.000934404
0.00215175
0.00337351
0.00458904
0.00578691
0.00695507
0.00808096
0.00915169
0.0101542
0.0110757
0.0119033
0.0126251
0.0132297
0.0137069
0.0140478
0.014245
0.0142927
0.0141872
0.0139265
0.0135107
0.0129422
0.012225
0.0113652
0.0103704
0.00924961
0.00801234
0.00666879
0.00523977
0.00374499
0.00206176
8.12948e-05
-0.00437094
-0.00597707
-0.00726711
-0.00834354
-0.00932669
-0.0102168
-0.0110133
-0.0117244
-0.0123585
-0.0129229
-0.0134246
-0.01387
-0.014265
-0.0146148
-0.0149239