/*--------------------------------*- C++ -*----------------------------------*\
  =========                 |
  \\      /  F ield         | OpenFOAM: The Open Source CFD Toolbox
   \\    /   O peration     | Website:  https://openfoam.org
    \\  /    A nd           | Version:  7
     \\/     M anipulation  |
\*---------------------------------------------------------------------------*/
FoamFile
{
    version     2.0;
    format      ascii;
    class       volScalarField;
    location    "0.925";
    object      p;
}
// * * * * * * * * * * * * * * * * * * * * * * * * * * * * * * * * * * * * * //

dimensions      [0 2 -2 0 0 0 0];

internalField   nonuniform List<scalar> 
6400
(
3.77984e-06
2.90719e-06
-0.000109427
-0.000328996
-0.000629289
-0.000986466
-0.00137942
-0.00178984
-0.00220233
-0.00260428
-0.00298538
-0.0033373
-0.00365335
-0.00392827
-0.0041579
-0.00433912
-0.00446956
-0.00454756
-0.00457201
-0.0045423
-0.00445819
-0.00431978
-0.00412748
-0.00388194
-0.00358405
-0.00323492
-0.00283584
-0.00238833
-0.00189409
-0.00135502
-0.00077325
-0.000151107
0.000508835
0.00120377
0.00193065
0.00268617
0.00346679
0.00426868
0.0050878
0.00591984
0.00676028
0.00760435
0.00844715
0.00928355
0.0101084
0.0109162
0.0117019
0.0124599
0.013185
0.013872
0.014516
0.0151121
0.015656
0.0161436
0.0165712
0.0169358
0.0172347
0.017466
0.0176284
0.0177214
0.0177453
0.0177011
0.0175908
0.0174172
0.0171839
0.0168958
0.0165585
0.0161787
0.0157642
0.0153238
0.0148676
0.0144069
0.0139544
0.0135242
0.0131317
0.0127941
0.0125287
0.0123529
0.0122823
0.0123059
9.83907e-06
6.86376e-06
-9.29263e-05
-0.000279378
-0.000530927
-0.000830498
-0.00116205
-0.00151079
-0.0018637
-0.00220963
-0.00253924
-0.00284475
-0.00311978
-0.00335914
-0.00355872
-0.00371525
-0.00382626
-0.00388991
-0.00390491
-0.00387043
-0.00378605
-0.00365168
-0.00346755
-0.00323415
-0.00295219
-0.00262263
-0.00224662
-0.00182554
-0.00136094
-0.000854616
-0.000308531
0.000275114
0.000893904
0.00154519
0.00222611
0.00293354
0.00366414
0.00441433
0.0051803
0.00595802
0.00674327
0.00753159
0.00831842
0.00909899
0.00986848
0.010622
0.0113545
0.0120612
0.0127372
0.0133777
0.0139782
0.0145344
0.0150422
0.015498
0.0158985
0.0162409
0.0165231
0.0167432
0.0169004
0.0169942
0.017025
0.016994
0.0169031
0.0167551
0.0165536
0.0163031
0.0160089
0.0156774
0.0153159
0.0149325
0.0145363
0.0141376
0.0137476
0.0133784
0.0130431
0.012755
0.0125273
0.0123722
0.0123053
0.0123292
0.000123328
0.00010696
6.69171e-06
-0.000165398
-0.000391206
-0.000657194
-0.000950516
-0.00125892
-0.00157135
-0.00187809
-0.00217079
-0.00244237
-0.00268689
-0.00289945
-0.00307609
-0.0032136
-0.00330952
-0.00336196
-0.00336955
-0.00333136
-0.00324687
-0.00311587
-0.00293845
-0.00271499
-0.00244608
-0.00213255
-0.00177544
-0.001376
-0.000935668
-0.000456104
6.0843e-05
0.000613109
0.00119842
0.00181427
0.00245795
0.00312652
0.00381682
0.00452545
0.00524883
0.00598314
0.00672441
0.00746844
0.00821092
0.00894739
0.0096733
0.0103841
0.011075
0.0117416
0.0123793
0.0129836
0.0135504
0.0140755
0.0145554
0.0149866
0.0153661
0.0156915
0.0159606
0.016172
0.0163248
0.0164189
0.0164546
0.0164332
0.0163565
0.0162273
0.016049
0.0158259
0.0155632
0.0152666
0.014943
0.0145999
0.0142458
0.0138898
0.0135419
0.0132127
0.0129134
0.0126552
0.0124488
0.0123043
0.0122378
0.0122591
0.000344091
0.000294131
0.000178008
4.74183e-06
-0.000212536
-0.000462523
-0.000734462
-0.00101812
-0.00130411
-0.00158405
-0.00185062
-0.00209749
-0.00231929
-0.00251153
-0.00267051
-0.00279323
-0.00287732
-0.00292094
-0.00292274
-0.00288177
-0.00279745
-0.00266952
-0.00249799
-0.00228315
-0.00202549
-0.00172576
-0.00138489
-0.00100401
-0.000584464
-0.000127781
0.000364306
0.00088986
0.00144674
0.00203258
0.00264483
0.0032807
0.00393718
0.00461107
0.00529896
0.00599725
0.00670213
0.00740966
0.00811573
0.00881612
0.00950651
0.0101825
0.0108399
0.0114741
0.0120809
0.0126562
0.0131959
0.0136963
0.0141539
0.0145655
0.0149283
0.01524
0.0154986
0.0157029
0.0158521
0.0159459
0.015985
0.0159705
0.0159041
0.0157887
0.0156273
0.0154242
0.0151841
0.0149125
0.0146158
0.014301
0.0139756
0.0136481
0.0133274
0.0130228
0.012744
0.0125009
0.0123026
0.0121584
0.0120826
0.0120851
0.000648008
0.000548068
0.000403893
0.000218913
-3.49864e-07
-0.000244578
-0.000504767
-0.000772518
-0.00104002
-0.00130018
-0.0015467
-0.00177406
-0.00197753
-0.00215309
-0.0022974
-0.00240772
-0.00248185
-0.00251809
-0.00251513
-0.00247207
-0.00238831
-0.00226355
-0.00209777
-0.00189119
-0.00164423
-0.00135754
-0.00103196
-0.00066852
-0.000268447
0.000166843
0.00063574
0.00113644
0.00166692
0.00222499
0.00280821
0.00341397
0.00403942
0.00468153
0.00533707
0.00600261
0.00667455
0.00734913
0.00802245
0.00869048
0.00934914
0.00999425
0.0106217
0.0112272
0.0118068
0.0123566
0.0128726
0.0133513
0.0137894
0.0141838
0.014532
0.0148317
0.0150811
0.015279
0.0154247
0.015518
0.0155595
0.0155503
0.0154921
0.0153875
0.0152396
0.0150522
0.0148299
0.0145778
0.0143017
0.0140082
0.0137041
0.013397
0.0130949
0.0128059
0.0125386
0.0123015
0.0121026
0.0119501
0.0118544
0.0118224
0.00101296
0.000852853
0.000671697
0.000466603
0.000236788
-1.01727e-05
-0.000266764
-0.000526254
-0.000782289
-0.00102898
-0.00126104
-0.00147376
-0.00166308
-0.00182551
-0.00195811
-0.00205845
-0.00212458
-0.00215493
-0.00214834
-0.00210395
-0.0020212
-0.00189981
-0.00173971
-0.00154107
-0.00130427
-0.00102987
-0.000718633
-0.000371486
1.04497e-05
0.000425874
0.000873299
0.00135105
0.00185724
0.00238981
0.00294649
0.0035248
0.00412206
0.00473541
0.00536177
0.00599789
0.00664034
0.00728555
0.00792978
0.00856921
0.0091999
0.00981788
0.0104192
0.0109997
0.0115557
0.0120833
0.0125789
0.0130389
0.0134603
0.01384
0.0141757
0.0144651
0.0147065
0.0148988
0.0150412
0.0151338
0.0151768
0.0151714
0.0151194
0.015023
0.0148852
0.0147097
0.0145006
0.0142628
0.0140016
0.013723
0.0134333
0.0131393
0.012848
0.0125668
0.012303
0.0120639
0.0118567
0.0116884
0.0115644
0.0114869
0.00141946
0.00119352
0.000969328
0.000737644
0.00049036
0.000233601
-2.63513e-05
-0.000284247
-0.000535052
-0.000774004
-0.000996754
-0.00119942
-0.00137859
-0.00153133
-0.00165514
-0.00174793
-0.00180802
-0.00183406
-0.00182502
-0.00178014
-0.00169893
-0.00158111
-0.00142665
-0.00123566
-0.00100849
-0.000745627
-0.000447754
-0.000115714
0.000249477
0.00064663
0.00107438
0.00153117
0.00201527
0.00252473
0.00305744
0.00361107
0.00418309
0.00477079
0.00537125
0.00598137
0.0065979
0.00721739
0.00783629
0.00845092
0.00905749
0.00965218
0.0102311
0.0107905
0.0113265
0.0118355
0.0123139
0.0127583
0.0131657
0.0135333
0.0138585
0.0141393
0.0143741
0.0145616
0.0147012
0.0147928
0.0148366
0.0148338
0.014786
0.0146954
0.0145646
0.0143972
0.0141971
0.0139687
0.013717
0.0134474
0.0131657
0.0128781
0.0125908
0.0123102
0.0120428
0.0117947
0.0115724
0.011382
0.0112233
0.0110936
0.0018505
0.0015561
0.00128504
0.00102211
0.000752142
0.000480075
0.000211193
-5.05624e-05
-0.000301344
-0.000537413
-0.000755316
-0.000951941
-0.00112453
-0.0012707
-0.00138839
-0.0014759
-0.00153183
-0.00155506
-0.00154473
-0.00150021
-0.00142108
-0.00130713
-0.00115831
-0.000974751
-0.00075675
-0.000504752
-0.00021936
9.86663e-05
0.000448408
0.000828785
0.00123855
0.00167627
0.00214034
0.00262896
0.00314014
0.00367171
0.00422128
0.00478628
0.00536394
0.00595131
0.00654526
0.00714251
0.00773962
0.00833305
0.00891914
0.00949418
0.0100544
0.0105961
0.0111156
0.0116093
0.0120736
0.0125054
0.0129016
0.0132594
0.0135763
0.0138503
0.0140797
0.0142633
0.0144005
0.014491
0.0145352
0.0145339
0.0144887
0.0144016
0.0142752
0.0141127
0.0139178
0.0136945
0.0134476
0.0131818
0.0129027
0.0126155
0.0123261
0.01204
0.0117629
0.0115001
0.0112573
0.0110399
0.0108421
0.0106564
0.00229158
0.00192802
0.00160794
0.0013106
0.00101414
0.000722577
0.000440397
0.000170397
-8.46334e-05
-0.000321885
-0.000538733
-0.00073279
-0.000901933
-0.0010443
-0.0011583
-0.00124261
-0.00129612
-0.00131796
-0.00130746
-0.00126413
-0.00118765
-0.00107787
-0.000934761
-0.000758467
-0.000549252
-0.000307517
-3.38009e-05
0.000271217
0.000606712
0.000971707
0.00136507
0.00178548
0.00223148
0.00270139
0.00319336
0.00370535
0.00423511
0.0047802
0.005338
0.00590568
0.00648025
0.00705854
0.00763722
0.00821287
0.00878193
0.00934078
0.00988575
0.0104132
0.0109194
0.011401
0.0118543
0.0122763
0.0126638
0.0130142
0.0133248
0.0135937
0.0138192
0.0139999
0.0141352
0.0142248
0.0142689
0.0142683
0.0142244
0.0141391
0.0140148
0.0138544
0.0136614
0.0134395
0.0131932
0.0129268
0.0126453
0.0123537
0.012057
0.0117603
0.0114685
0.0111861
0.0109184
0.0106702
0.0104304
0.0101868
0.00273043
0.00229819
0.00192811
0.00159431
0.00126867
0.000954509
0.000655656
0.000373926
0.000111172
-0.000130635
-0.000349627
-0.000544099
-0.000712521
-0.00085355
-0.000966038
-0.00104902
-0.00110172
-0.0011235
-0.00111389
-0.00107256
-0.000999291
-0.000893992
-0.000756694
-0.000587537
-0.000386772
-0.000154761
0.000108018
0.000400961
0.000723333
0.00107426
0.00145271
0.00185751
0.00228729
0.00274051
0.00321547
0.00371024
0.00422271
0.00475057
0.00529132
0.00584225
0.00640047
0.00696294
0.00752643
0.00808758
0.00864292
0.0091889
0.00972191
0.0102383
0.0107345
0.011207
0.0116524
0.0120673
0.0124488
0.012794
0.0131005
0.013366
0.013589
0.0137679
0.013902
0.013991
0.0140349
0.0140344
0.0139908
0.0139058
0.0137816
0.0136209
0.013427
0.0132034
0.012954
0.0126832
0.0123952
0.0120948
0.0117864
0.0114747
0.0111639
0.010858
0.010562
0.0102802
0.00999653
0.0096945
0.00315653
0.0026568
0.00223654
0.0018651
0.00150849
0.00116947
0.00085139
0.000555209
0.000281948
3.28254e-05
-0.000190982
-0.000388395
-0.000558446
-0.000700282
-0.000813178
-0.000896535
-0.000949872
-0.000972817
-0.000965094
-0.00092652
-0.000856996
-0.00075651
-0.000625134
-0.000463023
-0.000270415
-4.7638e-05
0.000204883
0.000486618
0.000796918
0.00113501
0.00149997
0.00189073
0.00230605
0.00274453
0.00320457
0.00368437
0.00418196
0.00469514
0.00522152
0.00575851
0.00630332
0.00685299
0.00740437
0.00795418
0.008499
0.00903533
0.00955959
0.0100682
0.0105575
0.011024
0.0114642
0.0118748
0.0122528
0.0125953
0.0128997
0.0131638
0.0133857
0.0135641
0.0136979
0.0137868
0.0138306
0.0138299
0.0137859
0.0137
0.0135743
0.0134114
0.0132142
0.012986
0.0127306
0.0124519
0.0121539
0.0118409
0.0115172
0.0111868
0.0108535
0.0105209
0.0101938
0.0098763
0.00954762
0.00918729
0.0035608
0.00299514
0.00252508
0.00211544
0.00172672
0.00136129
0.00102211
0.000709402
0.000423443
0.00016478
-6.60374e-05
-0.000268509
-0.000442184
-0.000586676
-0.000701663
-0.000786893
-0.00084218
-0.000867396
-0.000862464
-0.000827356
-0.000762091
-0.000666736
-0.000541407
-0.000386275
-0.000201569
1.24155e-05
0.000255304
0.000526635
0.000825846
0.00115226
0.00150505
0.00188328
0.00228582
0.00271138
0.00315849
0.00362548
0.00411049
0.00461143
0.00512602
0.00565176
0.00618596
0.00672574
0.00726801
0.00780953
0.00834695
0.00887676
0.0093954
0.00989926
0.0103847
0.0108482
0.0112862
0.0116953
0.0120725
0.0124146
0.0127191
0.0129837
0.0132063
0.0133855
0.0135201
0.0136094
0.0136535
0.0136526
0.0136077
0.0135201
0.0133917
0.013225
0.0130225
0.0127875
0.0125235
0.012234
0.011923
0.0115943
0.011252
0.0108997
0.010541
0.0101791
0.00981864
0.00946389
0.00908954
0.00867142
0.00393526
0.00330544
0.00278628
0.00233835
0.00191692
0.00152406
0.00116246
0.000831672
0.000531325
0.00026136
2.17536e-05
-0.000187522
-0.0003665
-0.000515223
-0.000633753
-0.000722167
-0.000780561
-0.000809043
-0.000807729
-0.000776742
-0.000716214
-0.00062629
-0.000507135
-0.000358934
-0.000181907
2.36821e-05
0.00025751
0.000519182
0.000808217
0.00112403
0.00146592
0.00183303
0.00222436
0.00263874
0.00307482
0.00353105
0.00400567
0.0044967
0.00500197
0.00551906
0.00604536
0.00657805
0.0071141
0.00765032
0.00818335
0.0087097
0.0092258
0.00972801
0.0102127
0.0106761
0.0111148
0.0115252
0.0119041
0.0122485
0.0125554
0.0128225
0.0130477
0.0132291
0.0133657
0.0134566
0.0135015
0.0135005
0.0134546
0.0133648
0.0132329
0.013061
0.0128518
0.0126081
0.0123332
0.0120306
0.0117039
0.0113569
0.0109932
0.0106164
0.0102298
0.00983634
0.00944086
0.00904759
0.00862713
0.00815184
0.00427282
0.00358068
0.00301336
0.00252736
0.002073
0.00165212
0.00126721
0.000917233
0.000601229
0.000318592
6.87813e-05
-0.000148719
-0.000334387
-0.000488668
-0.00061198
-0.000704713
-0.000767231
-0.000799863
-0.00080291
-0.000776639
-0.000721289
-0.000637083
-0.000524227
-0.000382922
-0.000213379
-1.58275e-05
0.000209461
0.000462159
0.000741867
0.00104809
0.00138024
0.00173756
0.00211918
0.00252403
0.00295088
0.00339829
0.00386462
0.00434799
0.00484631
0.00535725
0.00587826
0.00640659
0.00693924
0.00747304
0.00800464
0.00853055
0.00904716
0.00955076
0.0100376
0.0105041
0.0109463
0.0113609
0.0117443
0.0120934
0.0124052
0.0126771
0.0129068
0.0130923
0.0132323
0.0133258
0.0133724
0.013372
0.0133251
0.013233
0.013097
0.0129191
0.0127019
0.012448
0.0121605
0.0118427
0.0114982
0.0111305
0.0107432
0.0103397
0.00992306
0.00949616
0.00906409
0.00863127
0.00816438
0.00763244
0.00456708
0.00381446
0.00320004
0.00267643
0.00218921
0.00174005
0.00133129
0.000961364
0.000628782
0.00033244
7.13207e-05
-0.000155539
-0.000349031
-0.000509972
-0.000639114
-0.000737138
-0.000804659
-0.000842219
-0.00085029
-0.000829272
-0.000779508
-0.000701286
-0.000594854
-0.000460424
-0.000298195
-0.000108361
0.00010886
0.00035321
0.000624372
0.000921949
0.00124544
0.00159422
0.00196752
0.0023644
0.00278373
0.00322418
0.00368422
0.00416206
0.0046557
0.0051629
0.00568116
0.00620777
0.00673976
0.00727398
0.00780708
0.00833552
0.00885565
0.00936371
0.00985587
0.0103283
0.0107772
0.0111988
0.0115896
0.0119462
0.0122654
0.0125444
0.0127807
0.0129723
0.0131175
0.013215
0.0132643
0.0132652
0.013218
0.0131236
0.0129832
0.0127989
0.0125728
0.0123075
0.012006
0.0116715
0.0113074
0.0109171
0.0105041
0.0100719
0.00962341
0.00916147
0.00869149
0.0082182
0.00770451
0.00711625
0.00481219
0.00400089
0.00334051
0.0027799
0.0022601
0.00178266
0.00134978
0.000959432
0.000609636
0.000298834
2.55674e-05
-0.000211541
-0.000413765
-0.00058227
-0.000718116
-0.000822257
-0.000895542
-0.000938709
-0.000952389
-0.000937109
-0.000893301
-0.000821315
-0.000721431
-0.000593868
-0.000438809
-0.000256411
-4.6836e-05
0.000189733
0.000453062
0.000742851
0.0010587
0.0014001
0.0017664
0.00215676
0.00257018
0.00300543
0.00346107
0.00393543
0.00442659
0.00493236
0.00545032
0.00597778
0.0065118
0.00704924
0.0075867
0.00812064
0.00864731
0.00916287
0.0096634
0.0101449
0.0106035
0.0110352
0.0114363
0.0118032
0.0121326
0.0124213
0.0126667
0.0128665
0.0130187
0.013122
0.0131755
0.0131787
0.0131319
0.0130356
0.0128912
0.0127001
0.0124646
0.0121871
0.0118705
0.011518
0.0111327
0.0107182
0.010278
0.0098153
0.00933334
0.00883491
0.00832579
0.00781111
0.00725015
0.00660562
0.00500273
0.00413449
0.00342931
0.00283242
0.00228048
0.00177494
0.0013179
0.00090689
0.000539481
0.000213694
-7.23354e-05
-0.000320371
-0.000532043
-0.000708842
-0.000852115
-0.000963069
-0.00104277
-0.00109213
-0.00111194
-0.00110283
-0.00106532
-0.000999807
-0.000906597
-0.000785911
-0.000637908
-0.000462707
-0.000260406
-3.11145e-05
0.000225025
0.000507808
0.000816947
0.00115204
0.00151254
0.00189775
0.00230676
0.00273847
0.00319153
0.00366437
0.00415513
0.00466172
0.00518175
0.00571256
0.00625125
0.00679464
0.00733933
0.00788169
0.00841793
0.0089441
0.00945613
0.00994991
0.0104213
0.0108663
0.0112808
0.011661
0.0120034
0.0123047
0.0125618
0.0127722
0.0129337
0.0130447
0.013104
0.013111
0.0130657
0.0129684
0.0128202
0.0126225
0.0123775
0.0120873
0.0117549
0.0113833
0.0109757
0.0105356
0.0100666
0.00957202
0.00905511
0.00851881
0.00796936
0.00741233
0.00680346
0.00610237
0.00513359
0.00421009
0.0034613
0.00282893
0.0022454
0.00171209
0.00123101
0.000799282
0.000414052
7.29477e-05
-0.000226275
-0.000485741
-0.000707414
-0.000893088
-0.00104438
-0.00116273
-0.0012494
-0.00130547
-0.00133187
-0.00132932
-0.00129842
-0.0012396
-0.0011532
-0.00103942
-0.000898394
-0.000730193
-0.000534852
-0.000312398
-6.28814e-05
0.000213599
0.000516862
0.000846621
0.00120245
0.00158377
0.00198979
0.00241951
0.0028717
0.00334486
0.00383724
0.00434679
0.00487119
0.00540781
0.00595373
0.00650579
0.00706053
0.00761427
0.00816312
0.00870301
0.00922974
0.00973902
0.0102265
0.010688
0.0111192
0.011516
0.0118745
0.0121913
0.012463
0.0126867
0.0128601
0.012981
0.0130482
0.0130607
0.0130182
0.012921
0.0127699
0.0125661
0.0123116
0.0120087
0.0116599
0.0112685
0.0108377
0.0103709
0.0098718
0.00934401
0.00879079
0.0082153
0.0076243
0.00702388
0.00636623
0.00560792
0.00519995
0.00422281
0.00343159
0.00276457
0.0021501
0.00158947
0.0010846
0.000632242
0.000229139
-0.000127459
-0.000440153
-0.000711407
-0.000943498
-0.0011385
-0.00129829
-0.00142451
-0.00151863
-0.00158186
-0.00161525
-0.00161962
-0.00159562
-0.00154373
-0.00146428
-0.00135746
-0.00122337
-0.00106202
-0.000873383
-0.000657398
-0.000414015
-0.000143225
0.000154907
0.000480213
0.00083239
0.00121097
0.0016153
0.00204448
0.0024974
0.00297265
0.00346855
0.00398314
0.00451412
0.00505891
0.00561461
0.00617801
0.00674562
0.00731368
0.0078782
0.008435
0.00897969
0.00950782
0.0100149
0.0104962
0.0109475
0.0113643
0.0117424
0.0120779
0.0123673
0.0126074
0.0127953
0.0129288
0.0130062
0.0130263
0.0129885
0.0128928
0.0127399
0.0125308
0.0122674
0.0119517
0.0115865
0.0111748
0.01072
0.0102256
0.00969541
0.00913315
0.00854234
0.00792636
0.00729254
0.00664754
0.00594001
0.00512342
0.0051972
0.00416799
0.0033355
0.00263472
0.00199
0.00140256
0.000874278
0.000401494
-1.94137e-05
-0.000391555
-0.000717873
-0.00100115
-0.00124396
-0.00144865
-0.00161732
-0.00175182
-0.00185378
-0.00192457
-0.00196532
-0.00197694
-0.00196013
-0.00191538
-0.00184303
-0.00174326
-0.0016161
-0.00146152
-0.0012794
-0.00106959
-0.000831937
-0.000566317
-0.000272674
4.89508e-05
0.000398381
0.000775275
0.0011791
0.00160908
0.00206422
0.00254321
0.00304445
0.00356604
0.00410576
0.00466103
0.00522897
0.00580635
0.00638962
0.00697496
0.00755826
0.00813519
0.0087012
0.00925163
0.0097817
0.0102866
0.0107616
0.0112019
0.0116032
0.0119611
0.0122716
0.0125313
0.012737
0.012886
0.0129763
0.0130064
0.0129754
0.0128831
0.0127298
0.0125166
0.012245
0.0119171
0.0115356
0.0111035
0.0106242
0.0101014
0.00953916
0.00894133
0.00831168
0.00765389
0.00697589
0.00628497
0.00552619
0.00464984
0.00512091
0.00404113
0.00316855
0.00243489
0.00176068
0.00114703
0.000595759
0.000102847
-0.000335699
-0.000723333
-0.00106333
-0.00135877
-0.00161251
-0.00182715
-0.002005
-0.00214811
-0.00225827
-0.00233695
-0.0023854
-0.00240459
-0.00239525
-0.00235789
-0.00229283
-0.00220022
-0.00208005
-0.0019322
-0.00175648
-0.00155263
-0.00132039
-0.00105952
-0.000769832
-0.00045123
-0.000103759
0.000272375
0.000676763
0.00110877
0.0015675
0.00205175
0.00256004
0.00309052
0.00364103
0.00420902
0.00479162
0.00538558
0.00598731
0.00659288
0.00719808
0.00779843
0.0083892
0.0089655
0.00952229
0.0100545
0.010557
0.0110248
0.0114531
0.0118371
0.0121726
0.0124555
0.0126824
0.0128502
0.0129566
0.0129995
0.0129779
0.0128911
0.0127394
0.0125235
0.0122449
0.0119056
0.0115081
0.0110556
0.0105517
0.01
0.00940488
0.00877044
0.00810074
0.00739975
0.00667612
0.00593777
0.00512607
0.00418807
0.00496679
0.00383793
0.0029264
0.00216079
0.00145785
0.000818636
0.000244874
-0.000267803
-0.000723747
-0.00112674
-0.00148038
-0.00178805
-0.00205286
-0.00227764
-0.00246492
-0.00261693
-0.00273558
-0.00282248
-0.00287895
-0.002906
-0.00290442
-0.0028747
-0.00281714
-0.00273186
-0.00261878
-0.00247771
-0.00230834
-0.00211033
-0.0018833
-0.00162686
-0.0013407
-0.00102458
-0.000678406
-0.000302237
0.000103657
0.000538773
0.00100234
0.00149328
0.0020102
0.00255134
0.00311459
0.00369747
0.00429708
0.00491018
0.00553312
0.00616189
0.00679216
0.00741927
0.00803832
0.00864417
0.00923152
0.00979496
0.0103291
0.0108284
0.0112878
0.0117022
0.0120667
0.0123769
0.0126289
0.0128193
0.0129451
0.0130041
0.0129948
0.0129162
0.0127684
0.0125517
0.0122676
0.0119179
0.0115053
0.0110328
0.0105041
0.0099232
0.00929446
0.00862245
0.00791148
0.00716589
0.00639504
0.00560756
0.00474099
0.00373902
0.00473068
0.00355419
0.00260486
0.00180823
0.00107737
0.000413259
-0.000182451
-0.000714474
-0.00118752
-0.00160569
-0.00197288
-0.00229276
-0.00256871
-0.00280378
-0.00300069
-0.00316183
-0.00328925
-0.00338466
-0.00344945
-0.00348468
-0.00349115
-0.00346935
-0.00341955
-0.0033418
-0.00323598
-0.00310179
-0.00293883
-0.00274664
-0.00252469
-0.00227248
-0.00198955
-0.00167551
-0.00133011
-0.000953246
-0.000545049
-0.000105875
0.000363637
0.000862543
0.00138955
0.00194301
0.00252087
0.00312069
0.0037396
0.00437435
0.00502123
0.00567616
0.00633467
0.00699196
0.0076429
0.00828211
0.008904
0.00950284
0.0100728
0.0106081
0.0111031
0.0115522
0.0119502
0.0122921
0.0125736
0.0127906
0.0129398
0.0130186
0.013025
0.0129577
0.0128164
0.0126013
0.0123136
0.011955
0.0115282
0.0110364
0.0104832
0.0098728
0.00920994
0.00849946
0.00774601
0.00695434
0.00613455
0.00529605
0.00437237
0.00330368
0.00440854
0.00318586
0.00219988
0.00137315
0.000615189
-7.31123e-05
-0.00069019
-0.0012411
-0.0017309
-0.002164
-0.00254461
-0.00287666
-0.00316377
-0.00340922
-0.00361592
-0.0037864
-0.00392284
-0.00402704
-0.00410045
-0.00414418
-0.00415901
-0.00414544
-0.00410369
-0.00403375
-0.00393542
-0.0038083
-0.00365188
-0.00346558
-0.00324872
-0.00300067
-0.0027208
-0.00240856
-0.00206355
-0.00168549
-0.00127434
-0.000830313
-0.000353893
0.000154111
0.000692535
0.00125983
0.00185404
0.00247276
0.00311317
0.003772
0.00444551
0.00512955
0.00581951
0.00651042
0.00719695
0.00787345
0.00853404
0.00917261
0.00978299
0.0103589
0.0108943
0.0113829
0.0118192
0.0121977
0.0125133
0.0127615
0.0129386
0.0130413
0.0130673
0.0130148
0.0128832
0.0126724
0.0123834
0.0120179
0.0115783
0.011068
0.0104907
0.00985092
0.00915351
0.00840373
0.0076066
0.00676731
0.00589675
0.00500513
0.00402178
0.0028832
0.0039964
0.00272897
0.00170749
0.000851608
6.73858e-05
-0.000644386
-0.00128223
-0.00185154
-0.00235771
-0.00280547
-0.00319931
-0.00354343
-0.00384171
-0.00409761
-0.00431422
-0.00449423
-0.00463992
-0.00475319
-0.00483553
-0.00488807
-0.00491161
-0.00490661
-0.00487325
-0.00481145
-0.0047209
-0.00460113
-0.00445149
-0.00427126
-0.00405962
-0.00381578
-0.00353893
-0.00322838
-0.00288351
-0.0025039
-0.00208933
-0.00163982
-0.00115569
-0.000637616
-8.66079e-05
0.000495902
0.00110805
0.00174753
0.00241154
0.00309681
0.00379959
0.00451564
0.00524026
0.00596829
0.00669418
0.00741202
0.0081156
0.00879846
0.00945398
0.0100755
0.0106562
0.0111897
0.0116696
0.0120898
0.0124447
0.0127293
0.0129391
0.0130705
0.0131204
0.0130868
0.0129686
0.0127653
0.0124778
0.0121076
0.011657
0.0111294
0.0105288
0.0098598
0.00912757
0.00833774
0.00749575
0.00660722
0.00568393
0.0047369
0.00369105
0.00247896
0.00349043
0.00217969
0.00112387
0.000239778
-0.000569862
-0.00130437
-0.00196235
-0.00254955
-0.00307169
-0.00353381
-0.00394067
-0.00429675
-0.00460614
-0.00487252
-0.00509916
-0.00528887
-0.00544404
-0.00556664
-0.00565822
-0.00571993
-0.00575255
-0.0057565
-0.00573192
-0.00567864
-0.00559626
-0.00548419
-0.00534166
-0.00516779
-0.00496163
-0.00472218
-0.00444848
-0.00413964
-0.00379486
-0.00341352
-0.0029952
-0.00253975
-0.00204731
-0.00151836
-0.000953771
-0.000354829
0.00027672
0.000938651
0.00162823
0.00234222
0.00307683
0.00382777
0.00459023
0.00535889
0.00612799
0.00689132
0.00764235
0.00837423
0.0090799
0.00975216
0.0103838
0.0109676
0.0114967
0.0119643
0.0123643
0.0126908
0.0129389
0.0131041
0.013183
0.0131729
0.0130722
0.0128803
0.0125975
0.0122253
0.0117659
0.0112227
0.0105998
0.00990195
0.00913478
0.00830424
0.00741622
0.0064768
0.00549868
0.00449376
0.00338228
0.00209267
0.00288688
0.00153428
0.000445268
-0.000466069
-0.00130027
-0.00205677
-0.00273426
-0.00333881
-0.00387649
-0.00435263
-0.00477228
-0.00514017
-0.00546062
-0.00573751
-0.00597426
-0.00617383
-0.0063387
-0.00647091
-0.00657205
-0.00664328
-0.00668537
-0.0066987
-0.00668333
-0.00663903
-0.00656528
-0.00646137
-0.00632638
-0.00615929
-0.00595897
-0.00572425
-0.00545397
-0.00514703
-0.00480244
-0.00441937
-0.00399719
-0.00353554
-0.00303435
-0.00249392
-0.00191494
-0.00129853
-0.000646298
3.96386e-05
0.00075663
0.00150147
0.00227039
0.00305903
0.0038625
0.00467531
0.00549148
0.00630455
0.00710762
0.00789345
0.0086545
0.00938306
0.0100713
0.0107114
0.0112959
0.0118171
0.0122683
0.012643
0.0129353
0.0131402
0.0132535
0.0132721
0.0131938
0.0130176
0.0127434
0.0123723
0.0119068
0.0113499
0.010706
0.00998013
0.0091781
0.00830633
0.00737113
0.00637913
0.00534398
0.0042785
0.00309795
0.00172639
0.00218212
0.00078912
-0.000331921
-0.00126955
-0.00212746
-0.00290518
-0.00360153
-0.0042229
-0.00477568
-0.0052655
-0.00569769
-0.00607722
-0.00640865
-0.00669604
-0.00694298
-0.00715255
-0.00732733
-0.00746943
-0.00758046
-0.00766159
-0.00771356
-0.00773673
-0.00773107
-0.00769626
-0.00763167
-0.00753646
-0.00740956
-0.00724978
-0.00705581
-0.00682629
-0.00655985
-0.00625518
-0.00591107
-0.00552645
-0.00510048
-0.00463257
-0.00412241
-0.0035701
-0.00297612
-0.00234141
-0.0016674
-0.000956091
-0.000210012
0.00056769
0.00137326
0.00220233
0.0030499
0.00391037
0.00477753
0.00564464
0.00650447
0.00734934
0.00817124
0.00896189
0.00971286
0.0104157
0.0110619
0.0116435
0.0121527
0.0125822
0.0129254
0.0131764
0.0133305
0.0133837
0.0133332
0.0131775
0.0129163
0.0125503
0.0120816
0.0115136
0.0108504
0.0100974
0.00926084
0.00834743
0.007364
0.0063177
0.0052232
0.00409433
0.002841
0.00138264
0.00137263
-5.93115e-05
-0.00121121
-0.00217417
-0.00305492
-0.00385311
-0.00456767
-0.00520531
-0.00577273
-0.00627587
-0.00672032
-0.00711131
-0.00745362
-0.0077515
-0.00800868
-0.00822838
-0.00841328
-0.00856553
-0.00868677
-0.00877819
-0.0088405
-0.00887399
-0.00887858
-0.00885383
-0.00879901
-0.00871313
-0.00859496
-0.00844314
-0.00825616
-0.00803246
-0.00777045
-0.00746859
-0.00712543
-0.00673966
-0.00631018
-0.00583614
-0.00531702
-0.00475265
-0.00414329
-0.00348965
-0.002793
-0.00205514
-0.00127849
-0.000466088
0.000378351
0.00125045
0.00214515
0.00305672
0.00397878
0.0049043
0.00582569
0.00673486
0.00762329
0.0084821
0.00930222
0.0100744
0.0107896
0.0114387
0.0120132
0.0125048
0.0129062
0.0132105
0.0134122
0.0135065
0.01349
0.0133606
0.0131173
0.0127607
0.0122926
0.0117163
0.011036
0.0102573
0.00938672
0.00843145
0.0073988
0.00629647
0.00514023
0.00394495
0.00261486
0.00106444
0.000455
-0.0010144
-0.00219599
-0.00318332
-0.00408606
-0.00490396
-0.00563607
-0.00628941
-0.00687101
-0.00738708
-0.00784351
-0.00824576
-0.00859882
-0.00890714
-0.0091746
-0.00940455
-0.00959974
-0.00976239
-0.00989418
-0.00999629
-0.0100694
-0.0101137
-0.0101291
-0.0101151
-0.0100707
-0.00999486
-0.00988617
-0.00974306
-0.00956385
-0.00934673
-0.0090899
-0.00879157
-0.00845002
-0.00806368
-0.00763118
-0.00715141
-0.00662355
-0.00604718
-0.00542228
-0.00474935
-0.0040294
-0.00326405
-0.00245555
-0.00160681
-0.000721474
0.000196116
0.00114086
0.00210692
0.00308774
0.00407603
0.00506387
0.00604273
0.00700355
0.00793686
0.00883287
0.00968163
0.0104731
0.0111975
0.0118451
0.0124069
0.0128744
0.01324
0.0134969
0.0136397
0.0136641
0.0135672
0.0133476
0.0130055
0.0125423
0.0119611
0.0112664
0.0104637
0.00955991
0.00856276
0.00748001
0.00631996
0.00509952
0.00383466
0.00242356
0.000775428
-0.000574034
-0.00207943
-0.00328954
-0.0043003
-0.00522416
-0.00606102
-0.00681001
-0.00747848
-0.00807378
-0.0086024
-0.00907049
-0.00948376
-0.00984742
-0.0101661
-0.0104438
-0.0106841
-0.0108898
-0.0110631
-0.0112057
-0.0113189
-0.0114032
-0.0114589
-0.0114858
-0.0114831
-0.0114499
-0.0113849
-0.0112865
-0.011153
-0.0109824
-0.0107728
-0.010522
-0.0102281
-0.00988903
-0.00950293
-0.00906813
-0.00858322
-0.0080471
-0.00745903
-0.00681872
-0.00612636
-0.00538273
-0.0045892
-0.00374782
-0.00286134
-0.00193327
-0.000967911
2.96365e-05
0.00105346
0.00209684
0.00315226
0.00421146
0.00526547
0.00630472
0.00731909
0.00829808
0.0092309
0.0101067
0.0109145
0.0116438
0.0122844
0.0128267
0.013262
0.0135826
0.013782
0.013855
0.0137978
0.0136085
0.0132866
0.0128333
0.0122514
0.0115453
0.0107208
0.00978508
0.00874628
0.00761271
0.00639329
0.00510615
0.00376842
0.0022718
0.000519897
-0.00171761
-0.00325752
-0.00449501
-0.00552825
-0.0064724
-0.00732746
-0.00809268
-0.00877572
-0.00938422
-0.00992497
-0.0104044
-0.0108284
-0.0112025
-0.0115314
-0.0118194
-0.01207
-0.0122862
-0.0124703
-0.0126241
-0.0127487
-0.0128448
-0.0129124
-0.0129513
-0.0129607
-0.0129394
-0.0128861
-0.0127989
-0.0126759
-0.012515
-0.0123139
-0.0120703
-0.0117819
-0.0114463
-0.0110614
-0.0106253
-0.0101361
-0.00959243
-0.00899323
-0.00833788
-0.00762626
-0.00685883
-0.00603671
-0.00516168
-0.00423629
-0.00326391
-0.00224872
-0.0011958
-0.000111097
0.000998539
0.00212538
0.00326085
0.00439555
0.00551938
0.00662157
0.00769088
0.00871565
0.00968403
0.0105841
0.0114042
0.0121329
0.0127595
0.013274
0.0136675
0.0139324
0.0140625
0.0140532
0.0139015
0.0136065
0.0131687
0.0125908
0.0118771
0.0110335
0.0100675
0.00898757
0.00780266
0.00652231
0.00516594
0.00375191
0.00216502
0.000302907
-0.0029787
-0.00455169
-0.00581544
-0.00687024
-0.00783386
-0.00870638
-0.00948717
-0.0101842
-0.0108054
-0.0113578
-0.0118481
-0.0122826
-0.0126668
-0.0130058
-0.0133039
-0.0135649
-0.0137917
-0.0139868
-0.014152
-0.0142883
-0.0143965
-0.0144766
-0.0145281
-0.0145503
-0.0145417
-0.0145009
-0.014426
-0.0143146
-0.0141645
-0.0139731
-0.0137378
-0.0134561
-0.0131252
-0.0127428
-0.0123064
-0.011814
-0.0112638
-0.0106543
-0.00998458
-0.00925414
-0.0084631
-0.00761226
-0.00670312
-0.00573797
-0.00471996
-0.00365314
-0.0025425
-0.00139399
-0.000214561
0.000987887
0.00220448
0.00342542
0.00464007
0.00583702
0.00700423
0.00812915
0.00919893
0.0102005
0.0111211
0.0119479
0.0126688
0.0132728
0.0137494
0.0140898
0.0142866
0.014334
0.0142283
0.0139675
0.0135519
0.0129835
0.0122667
0.0114073
0.010413
0.00929287
0.00805633
0.0067136
0.00528549
0.00379166
0.00210952
0.000130364
-0.00436014
-0.00596482
-0.00725373
-0.00832922
-0.00931149
-0.0102008
-0.0109965
-0.0117069
-0.0123402
-0.0129038
-0.0134047
-0.0138492
-0.0142432
-0.014592
-0.0149001
-0.0151712
-0.0154087