/*--------------------------------*- C++ -*----------------------------------*\
  =========                 |
  \\      /  F ield         | OpenFOAM: The Open Source CFD Toolbox
   \\    /   O peration     | Website:  https://openfoam.org
    \\  /    A nd           | Version:  7
     \\/     M anipulation  |
\*---------------------------------------------------------------------------*/
FoamFile
{
    version     2.0;
    format      ascii;
    class       volVectorField;
    location    "0.925";
    object      U;
}
// * * * * * * * * * * * * * * * * * * * * * * * * * * * * * * * * * * * * * //

dimensions      [0 1 -1 0 0 0 0];

internalField   nonuniform List<vector> 
6400
(
(7.58971e-06 -8.00036e-06 0)
(3.06311e-05 -1.48258e-05 0)
(5.94653e-05 -1.38448e-05 0)
(7.82846e-05 -8.76282e-06 0)
(7.90926e-05 -1.9725e-06 0)
(5.90785e-05 5.30772e-06 0)
(1.75623e-05 1.24686e-05 0)
(-4.4999e-05 1.92118e-05 0)
(-0.000127469 2.5399e-05 0)
(-0.000228333 3.09727e-05 0)
(-0.000345885 3.59189e-05 0)
(-0.000478332 4.02466e-05 0)
(-0.000623866 4.39772e-05 0)
(-0.000780701 4.71381e-05 0)
(-0.0009471 4.976e-05 0)
(-0.00112139 5.18742e-05 0)
(-0.00130198 5.35116e-05 0)
(-0.00148733 5.47017e-05 0)
(-0.00167601 5.54722e-05 0)
(-0.00186664 5.58487e-05 0)
(-0.00205792 5.58542e-05 0)
(-0.00224861 5.55094e-05 0)
(-0.00243754 5.48328e-05 0)
(-0.00262357 5.38404e-05 0)
(-0.00280564 5.25465e-05 0)
(-0.00298272 5.09634e-05 0)
(-0.00315382 4.91021e-05 0)
(-0.00331798 4.69725e-05 0)
(-0.0034743 4.45836e-05 0)
(-0.00362188 4.19441e-05 0)
(-0.00375988 3.90623e-05 0)
(-0.00388749 3.59471e-05 0)
(-0.00400392 3.26077e-05 0)
(-0.00410844 2.90543e-05 0)
(-0.00420034 2.52984e-05 0)
(-0.00427897 2.13531e-05 0)
(-0.00434373 1.72331e-05 0)
(-0.00439408 1.29551e-05 0)
(-0.00442954 8.5379e-06 0)
(-0.00444969 4.00273e-06 0)
(-0.00445422 -6.26931e-07 0)
(-0.00444286 -5.32508e-06 0)
(-0.00441547 -1.00633e-05 0)
(-0.004372 -1.48111e-05 0)
(-0.0043125 -1.95354e-05 0)
(-0.00423714 -2.42014e-05 0)
(-0.00414621 -2.87725e-05 0)
(-0.00404012 -3.32105e-05 0)
(-0.00391941 -3.7476e-05 0)
(-0.00378474 -4.15291e-05 0)
(-0.00363692 -4.53296e-05 0)
(-0.00347686 -4.88372e-05 0)
(-0.00330565 -5.20123e-05 0)
(-0.00312444 -5.48168e-05 0)
(-0.00293456 -5.72139e-05 0)
(-0.00273741 -5.91693e-05 0)
(-0.00253453 -6.06514e-05 0)
(-0.00232752 -6.1632e-05 0)
(-0.00211808 -6.20863e-05 0)
(-0.00190798 -6.19937e-05 0)
(-0.00169905 -6.13382e-05 0)
(-0.00149315 -6.01083e-05 0)
(-0.00129216 -5.8298e-05 0)
(-0.00109797 -5.5906e-05 0)
(-0.000912454 -5.29367e-05 0)
(-0.000737452 -4.94e-05 0)
(-0.000574744 -4.53117e-05 0)
(-0.000426032 -4.06939e-05 0)
(-0.00029291 -3.55757e-05 0)
(-0.000176836 -2.99947e-05 0)
(-7.90917e-05 -2.39999e-05 0)
(-7.31704e-07 -1.76576e-05 0)
(5.74871e-05 -1.10608e-05 0)
(9.52138e-05 -4.34883e-06 0)
(0.000112681 2.25246e-06 0)
(0.000110982 8.3636e-06 0)
(9.24755e-05 1.33273e-05 0)
(6.16411e-05 1.59512e-05 0)
(2.76694e-05 1.41485e-05 0)
(5.73316e-06 5.7422e-06 0)
(1.46355e-05 -3.1282e-05 0)
(5.07242e-05 -5.10469e-05 0)
(8.4695e-05 -4.04793e-05 0)
(9.0411e-05 -1.24918e-05 0)
(5.26429e-05 2.43322e-05 0)
(-3.56766e-05 6.47854e-05 0)
(-0.00017732 0.000105754 0)
(-0.00037225 0.000145395 0)
(-0.000618534 0.000182639 0)
(-0.000913025 0.00021688 0)
(-0.00125184 0.000247801 0)
(-0.00163067 0.000275267 0)
(-0.002045 0.000299255 0)
(-0.00249024 0.000319817 0)
(-0.00296183 0.000337049 0)
(-0.0034553 0.000351073 0)
(-0.00396633 0.000362028 0)
(-0.00449072 0.000370057 0)
(-0.00502448 0.0003753 0)
(-0.00556375 0.000377897 0)
(-0.00610486 0.000377977 0)
(-0.0066443 0.000375661 0)
(-0.00717873 0.000371061 0)
(-0.00770491 0.000364279 0)
(-0.00821978 0.000355407 0)
(-0.00872039 0.000344531 0)
(-0.00920389 0.000331727 0)
(-0.00966755 0.00031707 0)
(-0.0101088 0.000300628 0)
(-0.010525 0.000282469 0)
(-0.0109139 0.000262662 0)
(-0.0112731 0.000241276 0)
(-0.0116004 0.000218387 0)
(-0.0118937 0.000194076 0)
(-0.0121511 0.00016843 0)
(-0.0123708 0.00014155 0)
(-0.0125512 0.000113543 0)
(-0.0126907 8.45317e-05 0)
(-0.012788 5.46504e-05 0)
(-0.0128422 2.40472e-05 0)
(-0.0128522 -7.11528e-06 0)
(-0.0128175 -3.866e-05 0)
(-0.0127378 -7.03958e-05 0)
(-0.012613 -0.000102118 0)
(-0.0124432 -0.000133609 0)
(-0.0122291 -0.00016464 0)
(-0.0119715 -0.000194972 0)
(-0.0116716 -0.000224359 0)
(-0.011331 -0.000252547 0)
(-0.0109515 -0.00027928 0)
(-0.0105355 -0.000304302 0)
(-0.0100856 -0.000327358 0)
(-0.00960466 -0.000348199 0)
(-0.00909608 -0.000366584 0)
(-0.00856346 -0.000382286 0)
(-0.00801072 -0.000395091 0)
(-0.00744208 -0.000404805 0)
(-0.00686198 -0.000411254 0)
(-0.00627509 -0.000414292 0)
(-0.00568627 -0.000413796 0)
(-0.00510049 -0.000409677 0)
(-0.00452283 -0.000401877 0)
(-0.00395843 -0.000390372 0)
(-0.00341239 -0.000375178 0)
(-0.00288978 -0.000356345 0)
(-0.00239551 -0.000333971 0)
(-0.00193433 -0.000308195 0)
(-0.00151073 -0.00027921 0)
(-0.00112883 -0.000247265 0)
(-0.00079234 -0.000212682 0)
(-0.000504394 -0.000175874 0)
(-0.000267416 -0.00013738 0)
(-8.29106e-05 -9.79167e-05 0)
(4.88145e-05 -5.84743e-05 0)
(0.000129064 -2.0465e-05 0)
(0.000161321 1.40299e-05 0)
(0.000151901 4.18823e-05 0)
(0.000111028 5.83282e-05 0)
(5.62343e-05 5.62734e-05 0)
(1.40878e-05 2.76312e-05 0)
(1.39347e-05 -6.00035e-05 0)
(4.08241e-05 -8.50812e-05 0)
(4.8731e-05 -4.82466e-05 0)
(9.14982e-06 2.60678e-05 0)
(-9.54806e-05 0.000121414 0)
(-0.000274338 0.000226657 0)
(-0.000531513 0.000334417 0)
(-0.000867411 0.000439912 0)
(-0.00127977 0.000540099 0)
(-0.00176447 0.000633089 0)
(-0.00231618 0.000717759 0)
(-0.00292881 0.000793506 0)
(-0.0035958 0.000860072 0)
(-0.00431035 0.000917438 0)
(-0.00506565 0.000965736 0)
(-0.00585489 0.0010052 0)
(-0.00667143 0.00103613 0)
(-0.00750878 0.00105886 0)
(-0.0083607 0.00107372 0)
(-0.00922114 0.00108106 0)
(-0.0100843 0.00108123 0)
(-0.0109446 0.00107452 0)
(-0.0117967 0.00106125 0)
(-0.0126355 0.00104169 0)
(-0.0134561 0.00101611 0)
(-0.0142536 0.000984738 0)
(-0.0150236 0.000947808 0)
(-0.0157617 0.000905534 0)
(-0.0164637 0.000858124 0)
(-0.0171256 0.000805785 0)
(-0.0177436 0.000748724 0)
(-0.0183138 0.000687159 0)
(-0.018833 0.000621318 0)
(-0.0192978 0.000551448 0)
(-0.0197051 0.000477817 0)
(-0.0200522 0.00040072 0)
(-0.0203363 0.000320482 0)
(-0.0205554 0.000237461 0)
(-0.0207073 0.00015205 0)
(-0.0207904 6.46801e-05 0)
(-0.0208034 -2.41809e-05 0)
(-0.0207455 -0.000114025 0)
(-0.0206161 -0.000204309 0)
(-0.0204152 -0.00029445 0)
(-0.0201433 -0.000383835 0)
(-0.0198013 -0.00047182 0)
(-0.0193905 -0.000557735 0)
(-0.018913 -0.000640891 0)
(-0.0183713 -0.000720582 0)
(-0.0177685 -0.000796097 0)
(-0.0171081 -0.000866724 0)
(-0.0163942 -0.000931761 0)
(-0.0156317 -0.000990521 0)
(-0.0148256 -0.00104234 0)
(-0.0139817 -0.0010866 0)
(-0.0131061 -0.00112271 0)
(-0.0122054 -0.00115014 0)
(-0.0112865 -0.00116843 0)
(-0.0103567 -0.00117718 0)
(-0.00942355 -0.00117607 0)
(-0.00849472 -0.00116486 0)
(-0.0075781 -0.00114342 0)
(-0.00668161 -0.0011117 0)
(-0.00581312 -0.00106978 0)
(-0.0049804 -0.00101784 0)
(-0.00419097 -0.000956176 0)
(-0.00345206 -0.000885248 0)
(-0.00277041 -0.000805648 0)
(-0.00215223 -0.000718155 0)
(-0.00160295 -0.000623758 0)
(-0.00112711 -0.000523718 0)
(-0.000728077 -0.000419648 0)
(-0.000407767 -0.000313645 0)
(-0.000166275 -0.000208481 0)
(-1.36224e-06 -0.000107906 0)
(9.21805e-05 -1.70773e-05 0)
(0.000123176 5.68467e-05 0)
(0.000104949 0.000103997 0)
(5.86897e-05 0.000111114 0)
(1.5934e-05 6.15448e-05 0)
(9.09989e-06 -7.91995e-05 0)
(1.34586e-05 -9.12567e-05 0)
(-2.4855e-05 -8.82488e-06 0)
(-0.000131405 0.000132387 0)
(-0.000323067 0.000308109 0)
(-0.000609474 0.00050103 0)
(-0.000995021 0.000699015 0)
(-0.0014801 0.000893774 0)
(-0.00206207 0.00107974 0)
(-0.00273607 0.00125326 0)
(-0.0034957 0.00141204 0)
(-0.00433349 0.0015547 0)
(-0.0052413 0.00168055 0)
(-0.00621061 0.00178937 0)
(-0.00723273 0.00188124 0)
(-0.00829894 0.00195647 0)
(-0.00940064 0.00201551 0)
(-0.0105294 0.0020589 0)
(-0.0116769 0.00208721 0)
(-0.0128353 0.00210104 0)
(-0.0139969 0.00210099 0)
(-0.0151542 0.00208763 0)
(-0.0163 0.0020615 0)
(-0.0174276 0.00202314 0)
(-0.0185303 0.00197304 0)
(-0.0196017 0.00191165 0)
(-0.0206357 0.00183943 0)
(-0.0216264 0.00175679 0)
(-0.0225682 0.00166415 0)
(-0.0234558 0.00156193 0)
(-0.0242838 0.00145054 0)
(-0.0250475 0.00133043 0)
(-0.0257422 0.00120207 0)
(-0.0263635 0.00106594 0)
(-0.0269074 0.000922584 0)
(-0.0273701 0.000772599 0)
(-0.0277483 0.000616627 0)
(-0.0280389 0.000455377 0)
(-0.0282394 0.000289621 0)
(-0.0283476 0.000120205 0)
(-0.028362 -5.19602e-05 0)
(-0.0282814 -0.000225888 0)
(-0.0281052 -0.000400526 0)
(-0.0278334 -0.000574754 0)
(-0.0274668 -0.000747391 0)
(-0.0270067 -0.000917204 0)
(-0.026455 -0.00108291 0)
(-0.0258144 -0.0012432 0)
(-0.0250883 -0.00139672 0)
(-0.0242808 -0.00154214 0)
(-0.0233967 -0.00167809 0)
(-0.0224415 -0.00180324 0)
(-0.0214216 -0.00191631 0)
(-0.0203437 -0.00201604 0)
(-0.0192153 -0.00210125 0)
(-0.0180446 -0.00217086 0)
(-0.0168403 -0.00222386 0)
(-0.0156114 -0.0022594 0)
(-0.0143676 -0.00227673 0)
(-0.0131186 -0.00227527 0)
(-0.0118746 -0.0022546 0)
(-0.0106459 -0.00221448 0)
(-0.00944285 -0.00215487 0)
(-0.0082756 -0.00207595 0)
(-0.00715427 -0.00197809 0)
(-0.00608862 -0.00186196 0)
(-0.00508793 -0.00172846 0)
(-0.00416087 -0.0015788 0)
(-0.00331532 -0.00141455 0)
(-0.00255815 -0.00123769 0)
(-0.001895 -0.00105071 0)
(-0.00132999 -0.00085676 0)
(-0.000865385 -0.000659816 0)
(-0.000501193 -0.000465017 0)
(-0.000234641 -0.000279044 0)
(-5.95931e-05 -0.000110699 0)
(3.40289e-05 2.83672e-05 0)
(6.09877e-05 0.000122867 0)
(4.35196e-05 0.000153052 0)
(1.35343e-05 9.26992e-05 0)
(2.49533e-06 -8.07758e-05 0)
(-2.31326e-05 -5.40759e-05 0)
(-0.000120636 9.59427e-05 0)
(-0.000308892 0.000324298 0)
(-0.00060193 0.000599772 0)
(-0.00100856 0.000899334 0)
(-0.00153259 0.00120624 0)
(-0.00217382 0.0015086 0)
(-0.00292898 0.00179812 0)
(-0.00379247 0.00206913 0)
(-0.00475693 0.00231791 0)
(-0.00581376 0.00254212 0)
(-0.00695354 0.00274045 0)
(-0.0081663 0.00291233 0)
(-0.00944182 0.0030577 0)
(-0.0107698 0.00317689 0)
(-0.0121399 0.00327045 0)
(-0.0135421 0.00333911 0)
(-0.0149663 0.00338369 0)
(-0.016403 0.00340506 0)
(-0.0178428 0.0034041 0)
(-0.0192766 0.00338168 0)
(-0.0206956 0.00333865 0)
(-0.0220913 0.00327581 0)
(-0.0234557 0.00319395 0)
(-0.0247809 0.0030938 0)
(-0.0260593 0.00297608 0)
(-0.0272837 0.00284148 0)
(-0.0284472 0.00269069 0)
(-0.029543 0.00252439 0)
(-0.0305648 0.00234329 0)
(-0.0315067 0.00214812 0)
(-0.0323628 0.00193966 0)
(-0.0331279 0.00171873 0)
(-0.033797 0.00148623 0)
(-0.0343656 0.00124313 0)
(-0.0348296 0.000990505 0)
(-0.0351853 0.000729511 0)
(-0.0354297 0.000461413 0)
(-0.0355603 0.000187583 0)
(-0.035575 -9.04983e-05 0)
(-0.0354727 -0.000371239 0)
(-0.0352527 -0.000652943 0)
(-0.0349152 -0.000933811 0)
(-0.034461 -0.00121195 0)
(-0.0338919 -0.00148539 0)
(-0.0332102 -0.00175209 0)
(-0.0324194 -0.00200995 0)
(-0.0315237 -0.00225685 0)
(-0.0305281 -0.00249063 0)
(-0.0294385 -0.00270916 0)
(-0.0282616 -0.00291033 0)
(-0.0270051 -0.0030921 0)
(-0.0256774 -0.0032525 0)
(-0.0242875 -0.00338968 0)
(-0.0228454 -0.00350191 0)
(-0.0213615 -0.00358766 0)
(-0.0198469 -0.00364555 0)
(-0.0183132 -0.00367444 0)
(-0.0167721 -0.00367344 0)
(-0.015236 -0.00364191 0)
(-0.0137173 -0.00357951 0)
(-0.0122283 -0.00348623 0)
(-0.0107814 -0.00336238 0)
(-0.00938854 -0.00320864 0)
(-0.0080615 -0.00302612 0)
(-0.00681131 -0.00281632 0)
(-0.00564828 -0.00258127 0)
(-0.00458172 -0.00232355 0)
(-0.00361973 -0.00204638 0)
(-0.00276893 -0.00175378 0)
(-0.00203413 -0.00145073 0)
(-0.00141803 -0.00114347 0)
(-0.000920771 -0.000839814 0)
(-0.0005395 -0.000549637 0)
(-0.000267858 -0.000285552 0)
(-9.547e-05 -6.37018e-05 0)
(-7.30527e-06 9.5381e-05 0)
(1.79686e-05 0.000165732 0)
(9.01061e-06 0.000112452 0)
(-4.7196e-06 -6.15825e-05 0)
(-6.41281e-05 3.43833e-05 0)
(-0.00022852 0.000276649 0)
(-0.000507913 0.000613436 0)
(-0.000912019 0.0010078 0)
(-0.00144785 0.00143176 0)
(-0.00211783 0.00186436 0)
(-0.00292063 0.00229028 0)
(-0.00385206 0.00269854 0)
(-0.00490557 0.00308136 0)
(-0.00607286 0.00343348 0)
(-0.00734428 0.00375145 0)
(-0.00870927 0.00403323 0)
(-0.0101566 0.00427779 0)
(-0.0116749 0.00448486 0)
(-0.0132522 0.00465469 0)
(-0.0148771 0.00478791 0)
(-0.0165377 0.00488543 0)
(-0.0182229 0.00494828 0)
(-0.0199213 0.00497762 0)
(-0.0216221 0.00497463 0)
(-0.0233149 0.00494048 0)
(-0.0249894 0.00487636 0)
(-0.0266356 0.0047834 0)
(-0.0282442 0.00466271 0)
(-0.0298059 0.00451534 0)
(-0.0313119 0.00434234 0)
(-0.0327536 0.00414471 0)
(-0.034123 0.00392348 0)
(-0.0354122 0.00367966 0)
(-0.0366138 0.0034143 0)
(-0.0377208 0.00312849 0)
(-0.0387265 0.00282339 0)
(-0.0396246 0.00250024 0)
(-0.0404096 0.00216037 0)
(-0.041076 0.00180522 0)
(-0.0416191 0.00143639 0)
(-0.0420349 0.00105556 0)
(-0.0423196 0.000664613 0)
(-0.0424706 0.000265542 0)
(-0.0424855 -0.000139488 0)
(-0.042363 -0.000548162 0)
(-0.0421025 -0.000958016 0)
(-0.0417042 -0.00136645 0)
(-0.0411691 -0.00177073 0)
(-0.0404993 -0.002168 0)
(-0.0396978 -0.00255534 0)
(-0.0387684 -0.00292974 0)
(-0.0377162 -0.00328812 0)
(-0.036547 -0.00362743 0)
(-0.0352677 -0.00394461 0)
(-0.0338862 -0.00423664 0)
(-0.0324112 -0.00450061 0)
(-0.0308525 -0.00473371 0)
(-0.0292206 -0.0049333 0)
(-0.0275271 -0.00509695 0)
(-0.0257838 -0.00522246 0)
(-0.0240037 -0.0053079 0)
(-0.0222 -0.00535166 0)
(-0.0203864 -0.0053525 0)
(-0.0185771 -0.00530954 0)
(-0.0167861 -0.00522235 0)
(-0.0150278 -0.00509095 0)
(-0.0133162 -0.00491584 0)
(-0.0116653 -0.00469809 0)
(-0.0100883 -0.00443932 0)
(-0.00859787 -0.0041418 0)
(-0.00720576 -0.0038085 0)
(-0.00592258 -0.0034432 0)
(-0.00475756 -0.00305057 0)
(-0.00371823 -0.00263638 0)
(-0.00281017 -0.00220771 0)
(-0.00203664 -0.0017732 0)
(-0.00139821 -0.00134354 0)
(-0.000892361 -0.000931911 0)
(-0.00051312 -0.000554696 0)
(-0.000250554 -0.000232349 0)
(-9.02644e-05 9.7469e-06 0)
(-1.3246e-05 0.000140103 0)
(3.55034e-06 0.000116888 0)
(-1.19965e-05 -2.04432e-05 0)
(-0.000106776 0.000178244 0)
(-0.000342088 0.000539536 0)
(-0.000718097 0.00100712 0)
(-0.00123931 0.00153969 0)
(-0.00191022 0.00210517 0)
(-0.00273126 0.002679 0)
(-0.00369949 0.0032428 0)
(-0.00480942 0.00378301 0)
(-0.00605338 0.00428987 0)
(-0.007422 0.00475654 0)
(-0.0089046 0.00517843 0)
(-0.0104895 0.00555269 0)
(-0.0121645 0.00587779 0)
(-0.0139168 0.00615314 0)
(-0.0157336 0.0063789 0)
(-0.0176018 0.00655574 0)
(-0.0195086 0.00668469 0)
(-0.0214414 0.00676701 0)
(-0.0233876 0.00680412 0)
(-0.0253351 0.0067975 0)
(-0.027272 0.00674867 0)
(-0.0291869 0.00665916 0)
(-0.0310686 0.00653045 0)
(-0.0329064 0.00636401 0)
(-0.0346898 0.00616125 0)
(-0.0364089 0.00592359 0)
(-0.0380541 0.00565241 0)
(-0.039616 0.00534908 0)
(-0.041086 0.00501503 0)
(-0.0424555 0.00465171 0)
(-0.0437166 0.00426063 0)
(-0.0448619 0.00384339 0)
(-0.0458843 0.00340172 0)
(-0.0467772 0.00293746 0)
(-0.047535 0.00245262 0)
(-0.0481521 0.00194935 0)
(-0.048624 0.00143001 0)
(-0.0489467 0.000897144 0)
(-0.0491171 0.00035349 0)
(-0.0491327 -0.000198007 0)
(-0.048992 -0.000754203 0)
(-0.0486943 -0.00131176 0)
(-0.0482401 -0.00186715 0)
(-0.0476305 -0.0024167 0)
(-0.0468679 -0.00295657 0)
(-0.0459556 -0.00348279 0)
(-0.0448982 -0.00399133 0)
(-0.0437013 -0.00447809 0)
(-0.0423713 -0.00493895 0)
(-0.0409162 -0.00536981 0)
(-0.0393446 -0.00576665 0)
(-0.0376667 -0.00612556 0)
(-0.0358931 -0.0064428 0)
(-0.0340358 -0.00671486 0)
(-0.0321075 -0.00693849 0)
(-0.0301218 -0.00711076 0)
(-0.0280929 -0.00722913 0)
(-0.0260356 -0.00729147 0)
(-0.0239654 -0.00729615 0)
(-0.0218979 -0.00724203 0)
(-0.0198489 -0.00712857 0)
(-0.0178343 -0.00695586 0)
(-0.01587 -0.00672465 0)
(-0.0139712 -0.0064364 0)
(-0.0121528 -0.00609338 0)
(-0.0104289 -0.00569871 0)
(-0.00881256 -0.00525642 0)
(-0.00731562 -0.00477163 0)
(-0.00594838 -0.00425063 0)
(-0.00471936 -0.00370107 0)
(-0.00363498 -0.00313225 0)
(-0.00269925 -0.00255538 0)
(-0.00191346 -0.00198404 0)
(-0.00127581 -0.00143468 0)
(-0.000781208 -0.000927338 0)
(-0.00042074 -0.000486439 0)
(-0.00018132 -0.000141684 0)
(-4.72028e-05 7.08198e-05 0)
(-2.22102e-06 0.000104141 0)
(-1.90882e-05 4.28535e-05 0)
(-0.000149544 0.000379264 0)
(-0.000457388 0.000887818 0)
(-0.00093268 0.00150951 0)
(-0.00157428 0.0021999 0)
(-0.00238369 0.00292379 0)
(-0.00335887 0.00365366 0)
(-0.00449489 0.00436849 0)
(-0.00578462 0.00505249 0)
(-0.00721908 0.00569402 0)
(-0.00878768 0.00628478 0)
(-0.0104786 0.00681907 0)
(-0.0122792 0.00729323 0)
(-0.0141761 0.00770516 0)
(-0.0161555 0.00805399 0)
(-0.0182034 0.00833973 0)
(-0.0203057 0.00856304 0)
(-0.0224484 0.00872507 0)
(-0.0246177 0.00882728 0)
(-0.0268 0.00887136 0)
(-0.0289819 0.00885909 0)
(-0.0311504 0.00879235 0)
(-0.033293 0.00867301 0)
(-0.0353974 0.00850293 0)
(-0.0374516 0.00828397 0)
(-0.0394443 0.00801793 0)
(-0.0413643 0.00770663 0)
(-0.043201 0.00735186 0)
(-0.0449443 0.00695542 0)
(-0.0465844 0.00651916 0)
(-0.0481119 0.006045 0)
(-0.0495181 0.00553492 0)
(-0.0507948 0.00499105 0)
(-0.0519342 0.00441563 0)
(-0.0529291 0.00381111 0)
(-0.0537731 0.00318011 0)
(-0.0544603 0.00252546 0)
(-0.0549857 0.00185023 0)
(-0.0553449 0.00115773 0)
(-0.0555345 0.000451526 0)
(-0.0555518 -0.000264566 0)
(-0.0553953 -0.000986478 0)
(-0.0550642 -0.0017099 0)
(-0.054559 -0.00243029 0)
(-0.053881 -0.00314291 0)
(-0.053033 -0.00384282 0)
(-0.0520185 -0.00452496 0)
(-0.0508426 -0.00518413 0)
(-0.0495113 -0.00581508 0)
(-0.0480319 -0.00641254 0)
(-0.0464131 -0.00697128 0)
(-0.0446644 -0.00748617 0)
(-0.0427967 -0.0079522 0)
(-0.040822 -0.00836462 0)
(-0.0387531 -0.00871894 0)
(-0.0366042 -0.00901103 0)
(-0.0343899 -0.00923716 0)
(-0.0321259 -0.00939411 0)
(-0.0298285 -0.00947919 0)
(-0.0275143 -0.00949033 0)
(-0.0252007 -0.00942613 0)
(-0.0229048 -0.00928595 0)
(-0.0206441 -0.00906993 0)
(-0.0184359 -0.00877907 0)
(-0.0162968 -0.00841534 0)
(-0.0142433 -0.00798166 0)
(-0.0122907 -0.00748209 0)
(-0.0104533 -0.00692183 0)
(-0.00874429 -0.00630743 0)
(-0.00717495 -0.00564687 0)
(-0.00575489 -0.00494981 0)
(-0.00449153 -0.00422783 0)
(-0.00338983 -0.00349473 0)
(-0.00245203 -0.00276696 0)
(-0.00167744 -0.00206415 0)
(-0.0010622 -0.00140972 0)
(-0.000598888 -0.00083171 0)
(-0.000276186 -0.000363535 0)
(-8.21419e-05 -4.49918e-05 0)
(-7.9783e-06 7.34645e-05 0)
(-2.58969e-05 0.000127984 0)
(-0.000191611 0.000637684 0)
(-0.000572052 0.0013226 0)
(-0.00114735 0.0021224 0)
(-0.00191059 0.00299065 0)
(-0.00285998 0.00388985 0)
(-0.00399072 0.00479022 0)
(-0.00529556 0.00566859 0)
(-0.00676551 0.00650726 0)
(-0.00839 0.007293 0)
(-0.0101571 0.00801618 0)
(-0.0120539 0.00867007 0)
(-0.0140665 0.00925025 0)
(-0.0161805 0.00975412 0)
(-0.018381 0.0101805 0)
(-0.0206532 0.0105291 0)
(-0.0229818 0.0108008 0)
(-0.0253518 0.0109968 0)
(-0.0277484 0.0111187 0)
(-0.0301569 0.0111684 0)
(-0.032563 0.0111481 0)
(-0.0349527 0.0110599 0)
(-0.0373122 0.0109062 0)
(-0.0396284 0.0106891 0)
(-0.0418883 0.010411 0)
(-0.0440797 0.010074 0)
(-0.0461903 0.00968042 0)
(-0.0482088 0.00923249 0)
(-0.050124 0.00873247 0)
(-0.0519254 0.00818268 0)
(-0.0536028 0.00758554 0)
(-0.0551468 0.00694357 0)
(-0.0565483 0.00625945 0)
(-0.057799 0.00553604 0)
(-0.0588911 0.00477641 0)
(-0.0598176 0.00398388 0)
(-0.0605723 0.00316201 0)
(-0.0611495 0.00231466 0)
(-0.0615448 0.001446 0)
(-0.0617542 0.00056047 0)
(-0.061775 -0.000337148 0)
(-0.0616055 -0.00124178 0)
(-0.0612449 -0.00214806 0)
(-0.0606937 -0.00305034 0)
(-0.0599533 -0.00394273 0)
(-0.0590267 -0.00481912 0)
(-0.0579179 -0.00567321 0)
(-0.0566321 -0.00649857 0)
(-0.055176 -0.00728873 0)
(-0.0535574 -0.00803715 0)
(-0.0517856 -0.00873738 0)
(-0.0498708 -0.00938306 0)
(-0.0478249 -0.00996804 0)
(-0.0456606 -0.0104864 0)
(-0.043392 -0.0109327 0)
(-0.041034 -0.0113018 0)
(-0.0386027 -0.0115891 0)
(-0.0361147 -0.0117907 0)
(-0.0335878 -0.0119031 0)
(-0.0310398 -0.011924 0)
(-0.0284894 -0.0118516 0)
(-0.0259552 -0.0116852 0)
(-0.023456 -0.0114249 0)
(-0.0210104 -0.011072 0)
(-0.0186366 -0.010629 0)
(-0.0163522 -0.0100996 0)
(-0.0141739 -0.00948875 0)
(-0.0121174 -0.0088029 0)
(-0.0101968 -0.00805009 0)
(-0.00842495 -0.00724006 0)
(-0.00681239 -0.00638452 0)
(-0.00536771 -0.00549733 0)
(-0.00409702 -0.00459487 0)
(-0.0030038 -0.00369639 0)
(-0.0020887 -0.00282452 0)
(-0.00134941 -0.00200582 0)
(-0.00078032 -0.00127154 0)
(-0.000372181 -0.000658209 0)
(-0.000117048 -0.000208516 0)
(-1.35638e-05 2.47878e-05 0)
(-3.23942e-05 0.000234359 0)
(-0.000232558 0.000952828 0)
(-0.000684711 0.00184358 0)
(-0.00135944 0.00284598 0)
(-0.00224412 0.00391246 0)
(-0.00333353 0.00500403 0)
(-0.00461992 0.00608924 0)
(-0.0060935 0.00714329 0)
(-0.00774322 0.00814696 0)
(-0.00955677 0.00908569 0)
(-0.0115208 0.00994873 0)
(-0.0136209 0.0107285 0)
(-0.0158422 0.0114199 0)
(-0.0181691 0.0120198 0)
(-0.0205858 0.0125267 0)
(-0.0230764 0.0129405 0)
(-0.0256247 0.0132617 0)
(-0.0282148 0.0134917 0)
(-0.0308309 0.0136324 0)
(-0.0334574 0.013686 0)
(-0.0360791 0.0136549 0)
(-0.0386809 0.0135416 0)
(-0.0412484 0.0133488 0)
(-0.0437674 0.0130791 0)
(-0.0462241 0.0127353 0)
(-0.0486052 0.01232 0)
(-0.050898 0.0118358 0)
(-0.0530901 0.0112856 0)
(-0.0551695 0.010672 0)
(-0.0571251 0.009998 0)
(-0.0589459 0.00926642 0)
(-0.0606217 0.00848042 0)
(-0.062143 0.00764326 0)
(-0.0635007 0.00675847 0)
(-0.0646866 0.00582981 0)
(-0.0656932 0.00486133 0)
(-0.0665137 0.00385741 0)
(-0.0671422 0.00282275 0)
(-0.0675738 0.00176241 0)
(-0.0678044 0.000681821 0)
(-0.067831 -0.000413224 0)
(-0.0676517 -0.00151657 0)
(-0.0672658 -0.00262172 0)
(-0.0666736 -0.00372184 0)
(-0.0658769 -0.00480981 0)
(-0.0648785 -0.00587824 0)
(-0.0636827 -0.00691956 0)
(-0.0622951 -0.00792602 0)
(-0.0607228 -0.00888978 0)
(-0.0589741 -0.00980301 0)
(-0.0570586 -0.0106579 0)
(-0.0549876 -0.0114469 0)
(-0.0527733 -0.0121624 0)
(-0.0504294 -0.0127976 0)
(-0.0479709 -0.0133456 0)
(-0.0454135 -0.0138004 0)
(-0.0427745 -0.0141565 0)
(-0.0400716 -0.0144091 0)
(-0.0373235 -0.0145542 0)
(-0.0345496 -0.0145888 0)
(-0.0317695 -0.0145108 0)
(-0.0290033 -0.0143194 0)
(-0.026271 -0.0140148 0)
(-0.0235926 -0.0135985 0)
(-0.0209877 -0.0130736 0)
(-0.018475 -0.0124444 0)
(-0.0160727 -0.0117169 0)
(-0.0137977 -0.0108989 0)
(-0.0116656 -0.00999987 0)
(-0.00969018 -0.00903134 0)
(-0.0078835 -0.00800706 0)
(-0.00625537 -0.00694319 0)
(-0.00481326 -0.0058586 0)
(-0.00356205 -0.00477525 0)
(-0.00250398 -0.00371856 0)
(-0.00163855 -0.00271801 0)
(-0.000962139 -0.00180764 0)
(-0.000467722 -0.00102664 0)
(-0.000151376 -0.000419896 0)
(-1.8913e-05 -4.1599e-05 0)
(-3.85846e-05 0.000361275 0)
(-0.000272201 0.00132351 0)
(-0.000794617 0.00244959 0)
(-0.00156737 0.0036793 0)
(-0.00257226 0.00496465 0)
(-0.00380066 0.00626579 0)
(-0.00524177 0.00755019 0)
(-0.00688314 0.00879189 0)
(-0.00871146 0.00997054 0)
(-0.0107126 0.0110706 0)
(-0.0128714 0.0120803 0)
(-0.0151724 0.0129915 0)
(-0.0175993 0.0137985 0)
(-0.0201354 0.0144978 0)
(-0.0227639 0.0150878 0)
(-0.0254679 0.0155681 0)
(-0.0282303 0.0159393 0)
(-0.0310344 0.016203 0)
(-0.0338634 0.0163613 0)
(-0.0367009 0.0164166 0)
(-0.0395309 0.0163716 0)
(-0.0423374 0.0162293 0)
(-0.0451053 0.0159926 0)
(-0.0478195 0.0156648 0)
(-0.0504655 0.0152489 0)
(-0.0530292 0.014748 0)
(-0.0554971 0.0141653 0)
(-0.057856 0.013504 0)
(-0.0600935 0.0127675 0)
(-0.0621975 0.011959 0)
(-0.0641565 0.0110822 0)
(-0.0659598 0.0101407 0)
(-0.067597 0.00913848 0)
(-0.0690588 0.00807973 0)
(-0.0703363 0.00696895 0)
(-0.0714215 0.00581099 0)
(-0.0723073 0.00461108 0)
(-0.0729874 0.0033748 0)
(-0.0734565 0.0021082 0)
(-0.0737103 0.000817721 0)
(-0.0737456 -0.000489762 0)
(-0.0735603 -0.00180695 0)
(-0.0731535 -0.00312615 0)
(-0.0725256 -0.00443927 0)
(-0.0716783 -0.00573789 0)
(-0.0706146 -0.0070133 0)
(-0.0693389 -0.00825652 0)
(-0.0678572 -0.00945843 0)
(-0.0661766 -0.0106098 0)
(-0.064306 -0.0117013 0)
(-0.0622555 -0.0127239 0)
(-0.0600367 -0.0136684 0)
(-0.0576626 -0.0145262 0)
(-0.0551477 -0.0152889 0)
(-0.0525074 -0.0159487 0)
(-0.0497588 -0.0164982 0)
(-0.0469196 -0.0169311 0)
(-0.0440089 -0.0172417 0)
(-0.0410463 -0.0174252 0)
(-0.0380524 -0.0174781 0)
(-0.0350479 -0.017398 0)
(-0.0320541 -0.0171837 0)
(-0.0290925 -0.0168356 0)
(-0.0261842 -0.0163555 0)
(-0.02335 -0.0157467 0)
(-0.0206103 -0.0150146 0)
(-0.0179845 -0.0141661 0)
(-0.0154908 -0.01321 0)
(-0.0131461 -0.0121576 0)
(-0.0109658 -0.0110222 0)
(-0.00896317 -0.00981933 0)
(-0.00714955 -0.00856756 0)
(-0.00553389 -0.00728815 0)
(-0.00412269 -0.00600562 0)
(-0.00291995 -0.00474807 0)
(-0.00192712 -0.00354757 0)
(-0.00114272 -0.00244071 0)
(-0.000561979 -0.00146887 0)
(-0.000184879 -0.00067869 0)
(-2.40119e-05 -0.000125236 0)
(-4.44868e-05 0.000507996 0)
(-0.000310483 0.00174826 0)
(-0.00090141 0.00313894 0)
(-0.00177024 0.0046207 0)
(-0.00289346 0.00614568 0)
(-0.00425909 0.00767372 0)
(-0.00585323 0.0091717 0)
(-0.00766069 0.010613 0)
(-0.00966584 0.0119764 0)
(-0.0118525 0.0132457 0)
(-0.0142041 0.0144086 0)
(-0.0167033 0.0154564 0)
(-0.0193327 0.0163829 0)
(-0.0220745 0.0171844 0)
(-0.0249109 0.0178593 0)
(-0.0278238 0.0184069 0)
(-0.0307955 0.0188283 0)
(-0.0338082 0.0191248 0)
(-0.0368445 0.019299 0)
(-0.0398871 0.0193535 0)
(-0.0429192 0.0192914 0)
(-0.0459242 0.0191161 0)
(-0.0488861 0.0188308 0)
(-0.0517892 0.0184393 0)
(-0.0546183 0.017945 0)
(-0.0573586 0.0173516 0)
(-0.0599959 0.0166627 0)
(-0.0625165 0.0158821 0)
(-0.0649071 0.0150135 0)
(-0.0671551 0.014061 0)
(-0.0692485 0.0130287 0)
(-0.0711759 0.011921 0)
(-0.0729266 0.0107423 0)
(-0.0744905 0.00949777 0)
(-0.0758584 0.00819257 0)
(-0.0770219 0.00683239 0)
(-0.0779734 0.00542334 0)
(-0.0787062 0.00397198 0)
(-0.0792147 0.00248533 0)
(-0.0794944 0.000970927 0)
(-0.0795417 -0.000563233 0)
(-0.0793545 -0.00210865 0)
(-0.0789316 -0.00365638 0)
(-0.0782734 -0.00519702 0)
(-0.0773815 -0.00672079 0)
(-0.076259 -0.00821756 0)
(-0.0749104 -0.00967694 0)
(-0.0733416 -0.0110883 0)
(-0.0715603 -0.012441 0)
(-0.0695754 -0.0137242 0)
(-0.0673975 -0.0149272 0)
(-0.0650386 -0.0160397 0)
(-0.0625123 -0.0170515 0)
(-0.0598336 -0.0179528 0)
(-0.0570187 -0.0187345 0)
(-0.0540854 -0.0193882 0)
(-0.0510524 -0.0199064 0)
(-0.0479394 -0.0202824 0)
(-0.0447674 -0.0205108 0)
(-0.0415577 -0.0205873 0)
(-0.0383324 -0.0205091 0)
(-0.0351141 -0.0202748 0)
(-0.0319252 -0.0198848 0)
(-0.0287884 -0.0193411 0)
(-0.0257258 -0.0186475 0)
(-0.0227591 -0.01781 0)
(-0.0199091 -0.0168365 0)
(-0.0171955 -0.0157373 0)
(-0.0146368 -0.0145249 0)
(-0.0122496 -0.0132143 0)
(-0.010049 -0.0118233 0)
(-0.00804777 -0.0103725 0)
(-0.00625657 -0.00888542 0)
(-0.00468367 -0.00738914 0)
(-0.00333494 -0.00591421 0)
(-0.00221394 -0.00449514 0)
(-0.00132135 -0.00317078 0)
(-0.000654632 -0.00198445 0)
(-0.000217494 -0.000984177 0)
(-2.88732e-05 -0.000225611 0)
(-5.01248e-05 0.000673794 0)
(-0.000347419 0.00222551 0)
(-0.00100496 0.00390963 0)
(-0.00196764 0.00566805 0)
(-0.00320688 0.00745343 0)
(-0.00470744 0.00922575 0)
(-0.00645235 0.0109518 0)
(-0.00842367 0.0126045 0)
(-0.0106034 0.0141624 0)
(-0.0129733 0.0156088 0)
(-0.015515 0.0169311 0)
(-0.0182098 0.0181202 0)
(-0.0210387 0.0191697 0)
(-0.0239828 0.020076 0)
(-0.0270233 0.0208371 0)
(-0.0301412 0.0214527 0)
(-0.0333178 0.0219238 0)
(-0.0365345 0.0222521 0)
(-0.0397732 0.0224402 0)
(-0.0430158 0.0224913 0)
(-0.0462448 0.0224087 0)
(-0.049443 0.0221962 0)
(-0.0525937 0.0218577 0)
(-0.0556806 0.021397 0)
(-0.0586877 0.0208183 0)
(-0.0615998 0.0201256 0)
(-0.0644019 0.0193232 0)
(-0.0670798 0.0184152 0)
(-0.0696198 0.0174061 0)
(-0.0720085 0.0163005 0)
(-0.0742336 0.0151031 0)
(-0.076283 0.0138188 0)
(-0.0781456 0.0124531 0)
(-0.0798108 0.0110116 0)
(-0.0812689 0.00950037 0)
(-0.0825111 0.00792597 0)
(-0.0835295 0.0062954 0)
(-0.0843169 0.0046162 0)
(-0.0848675 0.00289645 0)
(-0.0851764 0.00114478 0)
(-0.0852398 -0.000629621 0)
(-0.0850552 -0.00241703 0)
(-0.0846214 -0.00420718 0)
(-0.0839385 -0.00598933 0)
(-0.0830081 -0.00775228 0)
(-0.0818332 -0.00948443 0)
(-0.0804184 -0.0111739 0)
(-0.0787696 -0.0128085 0)
(-0.0768946 -0.0143761 0)
(-0.0748025 -0.0158642 0)
(-0.0725043 -0.0172607 0)
(-0.0700123 -0.0185536 0)
(-0.0673405 -0.0197312 0)
(-0.0645045 -0.0207825 0)
(-0.0615211 -0.0216969 0)
(-0.0584086 -0.0224647 0)
(-0.0551866 -0.0230771 0)
(-0.0518759 -0.0235267 0)
(-0.0484981 -0.023807 0)
(-0.0450757 -0.0239131 0)
(-0.0416321 -0.0238416 0)
(-0.0381907 -0.023591 0)
(-0.0347756 -0.0231613 0)
(-0.0314104 -0.0225549 0)
(-0.028119 -0.0217761 0)
(-0.0249242 -0.0208314 0)
(-0.0218486 -0.0197296 0)
(-0.0189132 -0.0184824 0)
(-0.0161382 -0.0171036 0)
(-0.0135418 -0.01561 0)
(-0.0111407 -0.0140212 0)
(-0.00894956 -0.01236 0)
(-0.00698075 -0.0106522 0)
(-0.00524446 -0.0089272 0)
(-0.00374858 -0.00721789 0)
(-0.00249878 -0.00556108 0)
(-0.00149794 -0.00399767 0)
(-0.000745711 -0.00257275 0)
(-0.000249284 -0.00133557 0)
(-3.35252e-05 -0.000342231 0)
(-5.55233e-05 0.000857974 0)
(-0.000383064 0.00275365 0)
(-0.00110529 0.00475953 0)
(-0.00215942 0.00681893 0)
(-0.00351212 0.00888541 0)
(-0.00514496 0.0109194 0)
(-0.00703801 0.0128879 0)
(-0.00917057 0.014764 0)
(-0.0115223 0.0165261 0)
(-0.0140728 0.0181573 0)
(-0.0168018 0.019645 0)
(-0.0196891 0.02098 0)
(-0.0227145 0.022156 0)
(-0.0258577 0.0231691 0)
(-0.0290988 0.0240176 0)
(-0.0324179 0.0247014 0)
(-0.0357955 0.0252216 0)
(-0.0392121 0.0255803 0)
(-0.0426488 0.0257803 0)
(-0.0460871 0.0258252 0)
(-0.0495085 0.0257187 0)
(-0.0528955 0.025465 0)
(-0.0562305 0.0250684 0)
(-0.0594968 0.0245333 0)
(-0.0626778 0.0238642 0)
(-0.0657577 0.0230658 0)
(-0.0687211 0.0221428 0)
(-0.0715532 0.0211 0)
(-0.0742397 0.0199423 0)
(-0.0767669 0.0186749 0)
(-0.0791218 0.0173032 0)
(-0.081292 0.0158329 0)
(-0.0832659 0.0142701 0)
(-0.0850323 0.0126211 0)
(-0.0865814 0.010893 0)
(-0.0879037 0.009093 0)
(-0.0889909 0.0072292 0)
(-0.0898357 0.00531009 0)
(-0.0904316 0.00334484 0)
(-0.0907735 0.0013432 0)
(-0.0908574 -0.000684427 0)
(-0.0906805 -0.00272703 0)
(-0.0902412 -0.00477303 0)
(-0.0895396 -0.00681025 0)
(-0.088577 -0.00882604 0)
(-0.0873563 -0.0108073 0)
(-0.0858819 -0.0127406 0)
(-0.08416 -0.0146121 0)
(-0.0821982 -0.0164081 0)
(-0.0800059 -0.0181144 0)
(-0.077594 -0.0197175 0)
(-0.0749754 -0.0212035 0)
(-0.0721643 -0.0225593 0)
(-0.0691766 -0.0237723 0)