/*--------------------------------*- C++ -*----------------------------------*\
  =========                 |
  \\      /  F ield         | OpenFOAM: The Open Source CFD Toolbox
   \\    /   O peration     | Website:  https://openfoam.org
    \\  /    A nd           | Version:  7
     \\/     M anipulation  |
\*---------------------------------------------------------------------------*/
FoamFile
{
    version     2.0;
    format      ascii;
    class       volVectorField;
    location    "0.175";
    object      U;
}
// * * * * * * * * * * * * * * * * * * * * * * * * * * * * * * * * * * * * * //

dimensions      [0 1 -1 0 0 0 0];

internalField   nonuniform List<vector> 
6400
(
(6.15209e-06 -5.95565e-06 0)
(2.02503e-05 -8.87031e-06 0)
(3.2783e-05 -6.46093e-06 0)
(3.41465e-05 -1.59182e-06 0)
(2.06038e-05 3.86089e-06 0)
(-8.502e-06 9.1428e-06 0)
(-5.24823e-05 1.39448e-05 0)
(-0.000110148 1.82033e-05 0)
(-0.000180089 2.19145e-05 0)
(-0.000260854 2.50851e-05 0)
(-0.000350962 2.77569e-05 0)
(-0.000448997 2.99723e-05 0)
(-0.000553649 3.17664e-05 0)
(-0.000663674 3.31848e-05 0)
(-0.000777927 3.42692e-05 0)
(-0.000895368 3.50449e-05 0)
(-0.00101504 3.55391e-05 0)
(-0.00113606 3.57866e-05 0)
(-0.00125764 3.5816e-05 0)
(-0.00137907 3.56467e-05 0)
(-0.00149967 3.5296e-05 0)
(-0.00161885 3.47828e-05 0)
(-0.00173605 3.41211e-05 0)
(-0.00185076 3.33175e-05 0)
(-0.00196249 3.23791e-05 0)
(-0.0020708 3.13163e-05 0)
(-0.00217526 3.01393e-05 0)
(-0.00227545 2.88505e-05 0)
(-0.00237099 2.74489e-05 0)
(-0.00246148 2.59373e-05 0)
(-0.00254657 2.43196e-05 0)
(-0.00262587 2.2597e-05 0)
(-0.00269903 2.07685e-05 0)
(-0.0027657 1.88341e-05 0)
(-0.00282553 1.67965e-05 0)
(-0.00287817 1.4658e-05 0)
(-0.00292329 1.24204e-05 0)
(-0.00296059 1.00852e-05 0)
(-0.00298975 7.65628e-06 0)
(-0.00301048 5.14092e-06 0)
(-0.00302253 2.54727e-06 0)
(-0.00302566 -1.17313e-07 0)
(-0.00301967 -2.84451e-06 0)
(-0.00300439 -5.6228e-06 0)
(-0.0029797 -8.43761e-06 0)
(-0.00294552 -1.12731e-05 0)
(-0.00290183 -1.41127e-05 0)
(-0.00284867 -1.69385e-05 0)
(-0.00278614 -1.97306e-05 0)
(-0.0027144 -2.24665e-05 0)
(-0.00263371 -2.51225e-05 0)
(-0.00254437 -2.76739e-05 0)
(-0.00244679 -3.00965e-05 0)
(-0.00234145 -3.2365e-05 0)
(-0.00222893 -3.4453e-05 0)
(-0.00210986 -3.6333e-05 0)
(-0.00198499 -3.79783e-05 0)
(-0.00185514 -3.93632e-05 0)
(-0.0017212 -4.04629e-05 0)
(-0.00158416 -4.12537e-05 0)
(-0.00144508 -4.17134e-05 0)
(-0.00130506 -4.18214e-05 0)
(-0.00116529 -4.15588e-05 0)
(-0.00102701 -4.09082e-05 0)
(-0.000891486 -3.98552e-05 0)
(-0.000760041 -3.83884e-05 0)
(-0.000634015 -3.64988e-05 0)
(-0.000514765 -3.4179e-05 0)
(-0.000403651 -3.14234e-05 0)
(-0.000302026 -2.82292e-05 0)
(-0.000211212 -2.45983e-05 0)
(-0.000132484 -2.05379e-05 0)
(-6.70268e-05 -1.60647e-05 0)
(-1.58752e-05 -1.12176e-05 0)
(2.01513e-05 -6.08515e-06 0)
(4.06638e-05 -8.19214e-07 0)
(4.598e-05 4.2062e-06 0)
(3.77306e-05 8.22158e-06 0)
(2.08987e-05 9.61954e-06 0)
(5.6324e-06 5.63453e-06 0)
(8.79233e-06 -2.02056e-05 0)
(2.46173e-05 -2.4635e-05 0)
(2.74278e-05 -9.18798e-06 0)
(2.69739e-06 1.61093e-05 0)
(-5.68631e-05 4.49158e-05 0)
(-0.000153556 7.38746e-05 0)
(-0.000286867 0.000101337 0)
(-0.00045477 0.000126488 0)
(-0.000654456 0.000148962 0)
(-0.000882595 0.000168663 0)
(-0.00113572 0.000185621 0)
(-0.00141037 0.000199935 0)
(-0.00170315 0.000211756 0)
(-0.00201085 0.00022126 0)
(-0.00233044 0.000228623 0)
(-0.00265908 0.000234015 0)
(-0.00299415 0.000237601 0)
(-0.00333323 0.000239544 0)
(-0.0036741 0.000239984 0)
(-0.00401472 0.000239053 0)
(-0.00435319 0.000236867 0)
(-0.0046878 0.000233531 0)
(-0.00501692 0.000229131 0)
(-0.00533907 0.000223737 0)
(-0.00565286 0.000217413 0)
(-0.00595697 0.000210214 0)
(-0.00625016 0.000202183 0)
(-0.00653124 0.000193353 0)
(-0.00679907 0.000183748 0)
(-0.00705256 0.000173391 0)
(-0.00729064 0.000162302 0)
(-0.00751226 0.000150494 0)
(-0.00771642 0.000137977 0)
(-0.00790212 0.000124767 0)
(-0.0080684 0.000110881 0)
(-0.00821432 9.63365e-05 0)
(-0.00833898 8.11537e-05 0)
(-0.00844152 6.53591e-05 0)
(-0.00852114 4.89882e-05 0)
(-0.00857706 3.20844e-05 0)
(-0.00860859 1.46976e-05 0)
(-0.00861514 -3.11479e-06 0)
(-0.00859618 -2.12849e-05 0)
(-0.00855131 -3.97335e-05 0)
(-0.00848022 -5.83705e-05 0)
(-0.00838276 -7.70958e-05 0)
(-0.00825892 -9.57992e-05 0)
(-0.00810885 -0.000114361 0)
(-0.00793287 -0.00013265 0)
(-0.0077315 -0.000150527 0)
(-0.00750544 -0.000167843 0)
(-0.00725562 -0.000184444 0)
(-0.00698317 -0.000200172 0)
(-0.00668945 -0.000214864 0)
(-0.00637604 -0.000228354 0)
(-0.00604476 -0.000240474 0)
(-0.00569765 -0.000251061 0)
(-0.00533695 -0.000259952 0)
(-0.00496516 -0.000266995 0)
(-0.00458494 -0.000272042 0)
(-0.00419917 -0.000274956 0)
(-0.0038109 -0.000275613 0)
(-0.00342332 -0.0002739 0)
(-0.00303978 -0.000269724 0)
(-0.00266372 -0.000263005 0)
(-0.00229867 -0.000253686 0)
(-0.00194822 -0.00024173 0)
(-0.00161597 -0.00022712 0)
(-0.00130548 -0.000209871 0)
(-0.00102025 -0.000190028 0)
(-0.000763626 -0.000167685 0)
(-0.000538727 -0.000142996 0)
(-0.000348325 -0.000116214 0)
(-0.000194655 -8.77501e-05 0)
(-7.91624e-05 -5.82894e-05 0)
(-2.06725e-06 -2.89407e-05 0)
(3.82036e-05 -1.66434e-06 0)
(4.59747e-05 2.019e-05 0)
(3.08189e-05 3.08431e-05 0)
(9.57607e-06 2.08531e-05 0)
(6.02936e-06 -3.22422e-05 0)
(8.58457e-06 -2.7438e-05 0)
(-1.73255e-05 1.65333e-05 0)
(-8.58075e-05 8.11182e-05 0)
(-0.000204728 0.000154319 0)
(-0.000377089 0.000228982 0)
(-0.000602565 0.000300936 0)
(-0.000878828 0.000367793 0)
(-0.00120217 0.000428339 0)
(-0.00156814 0.000482011 0)
(-0.00197191 0.00052865 0)
(-0.00240848 0.000568382 0)
(-0.00287293 0.000601473 0)
(-0.00336046 0.000628272 0)
(-0.00386651 0.000649192 0)
(-0.00438675 0.000664651 0)
(-0.00491716 0.000675062 0)
(-0.00545396 0.000680827 0)
(-0.00599366 0.00068232 0)
(-0.00653305 0.000679886 0)
(-0.00706912 0.000673837 0)
(-0.0075991 0.000664455 0)
(-0.00812042 0.000651982 0)
(-0.00863069 0.000636626 0)
(-0.00912764 0.000618565 0)
(-0.00960916 0.000597956 0)
(-0.0100732 0.000574923 0)
(-0.010518 0.000549567 0)
(-0.0109416 0.000521973 0)
(-0.0113422 0.000492214 0)
(-0.0117182 0.000460349 0)
(-0.0120678 0.000426428 0)
(-0.0123896 0.000390498 0)
(-0.0126819 0.00035261 0)
(-0.0129432 0.00031282 0)
(-0.0131721 0.00027119 0)
(-0.0133671 0.000227788 0)
(-0.013527 0.000182702 0)
(-0.0136505 0.000136035 0)
(-0.0137364 8.79162e-05 0)
(-0.0137838 3.84914e-05 0)
(-0.0137916 -1.20692e-05 0)
(-0.0137591 -6.35694e-05 0)
(-0.0136858 -0.000115783 0)
(-0.0135712 -0.000168456 0)
(-0.0134152 -0.000221307 0)
(-0.0132178 -0.000274026 0)
(-0.0129792 -0.000326277 0)
(-0.0127 -0.000377697 0)
(-0.0123811 -0.000427896 0)
(-0.0120237 -0.000476465 0)
(-0.0116291 -0.00052298 0)
(-0.0111993 -0.000567 0)
(-0.0107363 -0.000608076 0)
(-0.0102427 -0.000645753 0)
(-0.0097213 -0.000679572 0)
(-0.00917528 -0.000709085 0)
(-0.00860816 -0.000733851 0)
(-0.00802381 -0.00075345 0)
(-0.00742636 -0.000767484 0)
(-0.00682028 -0.000775583 0)
(-0.00621025 -0.000777411 0)
(-0.00560122 -0.000772676 0)
(-0.00499831 -0.000761128 0)
(-0.00440681 -0.000742573 0)
(-0.00383211 -0.000716876 0)
(-0.00327965 -0.000683969 0)
(-0.00275487 -0.000643858 0)
(-0.00226311 -0.000596641 0)
(-0.00180954 -0.000542533 0)
(-0.00139906 -0.000481894 0)
(-0.00103614 -0.00041529 0)
(-0.000724621 -0.000343578 0)
(-0.000467461 -0.000268054 0)
(-0.000266377 -0.00019069 0)
(-0.000121329 -0.000114505 0)
(-2.98771e-05 -4.42024e-05 0)
(1.37241e-05 1.29915e-05 0)
(2.04612e-05 4.60474e-05 0)
(8.20361e-06 3.76295e-05 0)
(1.43582e-06 -3.34493e-05 0)
(-1.63046e-05 -2.60917e-06 0)
(-8.16843e-05 8.50916e-05 0)
(-0.000204796 0.000203801 0)
(-0.000391964 0.000336419 0)
(-0.000645953 0.000471906 0)
(-0.000966295 0.000603238 0)
(-0.00135016 0.000726201 0)
(-0.00179325 0.000838354 0)
(-0.00229028 0.000938422 0)
(-0.00283543 0.00102593 0)
(-0.0034226 0.0011009 0)
(-0.00404565 0.00116365 0)
(-0.00469858 0.00121472 0)
(-0.00537557 0.00125477 0)
(-0.00607109 0.0012845 0)
(-0.00677989 0.00130463 0)
(-0.00749707 0.00131587 0)
(-0.00821805 0.00131889 0)
(-0.00893854 0.00131432 0)
(-0.00965457 0.00130274 0)
(-0.0103624 0.00128465 0)
(-0.0110587 0.00126053 0)
(-0.01174 0.00123076 0)
(-0.0124035 0.00119571 0)
(-0.0130462 0.00115565 0)
(-0.0136655 0.00111085 0)
(-0.0142587 0.0010615 0)
(-0.0148234 0.00100778 0)
(-0.0153573 0.000949848 0)
(-0.0158579 0.000887821 0)
(-0.0163231 0.000821813 0)
(-0.0167509 0.000751932 0)
(-0.017139 0.000678289 0)
(-0.0174855 0.000601001 0)
(-0.0177885 0.0005202 0)
(-0.0180461 0.000436036 0)
(-0.0182567 0.000348686 0)
(-0.0184186 0.000258366 0)
(-0.0185303 0.000165325 0)
(-0.0185905 6.98526e-05 0)
(-0.0185981 -2.7717e-05 0)
(-0.018552 -0.000126998 0)
(-0.0184516 -0.000227555 0)
(-0.0182964 -0.000328898 0)
(-0.0180862 -0.000430486 0)
(-0.0178211 -0.000531729 0)
(-0.0175015 -0.000631983 0)
(-0.0171283 -0.000730555 0)
(-0.0167025 -0.00082671 0)
(-0.0162259 -0.000919672 0)
(-0.0157003 -0.00100864 0)
(-0.0151282 -0.00109277 0)
(-0.0145124 -0.00117123 0)
(-0.0138563 -0.00124315 0)
(-0.0131636 -0.00130768 0)
(-0.0124385 -0.00136396 0)
(-0.0116857 -0.00141118 0)
(-0.0109101 -0.00144856 0)
(-0.0101173 -0.00147534 0)
(-0.00931303 -0.00149084 0)
(-0.00850341 -0.00149444 0)
(-0.00769488 -0.00148562 0)
(-0.00689409 -0.00146392 0)
(-0.00610787 -0.00142901 0)
(-0.00534318 -0.00138067 0)
(-0.00460699 -0.00131882 0)
(-0.00390625 -0.00124354 0)
(-0.00324773 -0.00115511 0)
(-0.00263795 -0.00105401 0)
(-0.00208298 -0.000941064 0)
(-0.00158831 -0.000817466 0)
(-0.00115857 -0.000684969 0)
(-0.000797236 -0.000546104 0)
(-0.000506269 -0.000404534 0)
(-0.000285599 -0.000265585 0)
(-0.000132519 -0.000137033 0)
(-4.09139e-05 -3.01018e-05 0)
(-3.78833e-07 3.91241e-05 0)
(4.36404e-06 4.61258e-05 0)
(-3.77299e-06 -1.99202e-05 0)
(-4.48921e-05 5.73432e-05 0)
(-0.000155495 0.000204758 0)
(-0.000339425 0.000391375 0)
(-0.000600179 0.000596014 0)
(-0.000939586 0.000804169 0)
(-0.00135639 0.00100627 0)
(-0.00184716 0.00119618 0)
(-0.00240694 0.00137014 0)
(-0.00302975 0.00152607 0)
(-0.00370896 0.00166301 0)
(-0.00443762 0.00178079 0)
(-0.00520866 0.00187976 0)
(-0.00601508 0.00196059 0)
(-0.00685007 0.00202416 0)
(-0.00770708 0.00207147 0)
(-0.00857989 0.00210358 0)
(-0.0094626 0.00212153 0)
(-0.0103497 0.00212633 0)
(-0.011236 0.00211894 0)
(-0.0121166 0.00210023 0)
(-0.012987 0.00207102 0)
(-0.013843 0.00203202 0)
(-0.0146806 0.00198385 0)
(-0.015496 0.00192708 0)
(-0.0162857 0.00186218 0)
(-0.0170463 0.00178955 0)
(-0.0177746 0.00170954 0)
(-0.0184677 0.00162244 0)
(-0.0191225 0.00152851 0)
(-0.0197362 0.00142796 0)
(-0.0203062 0.00132099 0)
(-0.0208298 0.0012078 0)
(-0.0213044 0.00108858 0)
(-0.0217277 0.000963527 0)
(-0.0220973 0.000832878 0)
(-0.0224109 0.00069689 0)
(-0.0226666 0.000555868 0)
(-0.0228624 0.000410166 0)
(-0.0229966 0.000260194 0)
(-0.0230674 0.000106429 0)
(-0.0230737 -5.05833e-05 0)
(-0.0230142 -0.000210218 0)
(-0.0228883 -0.000371771 0)
(-0.0226952 -0.000534459 0)
(-0.022435 -0.000697417 0)
(-0.0221076 -0.000859699 0)
(-0.0217139 -0.00102028 0)
(-0.0212546 -0.00117806 0)
(-0.0207315 -0.00133186 0)
(-0.0201463 -0.00148048 0)
(-0.0195015 -0.00162262 0)
(-0.0188002 -0.00175698 0)
(-0.0180458 -0.00188221 0)
(-0.0172424 -0.00199697 0)
(-0.0163945 -0.0020999 0)
(-0.0155073 -0.00218967 0)
(-0.0145862 -0.00226501 0)
(-0.0136375 -0.00232466 0)
(-0.0126677 -0.00236749 0)
(-0.0116838 -0.00239242 0)
(-0.0106931 -0.00239851 0)
(-0.0097033 -0.00238493 0)
(-0.00872243 -0.00235102 0)
(-0.00775862 -0.0022963 0)
(-0.0068201 -0.00222048 0)
(-0.00591517 -0.0021235 0)
(-0.00505199 -0.00200557 0)
(-0.00423852 -0.00186722 0)
(-0.00348234 -0.00170935 0)
(-0.00279049 -0.00153336 0)
(-0.00216927 -0.00134127 0)
(-0.00162395 -0.00113593 0)
(-0.00115849 -0.000921308 0)
(-0.000775207 -0.000702942 0)
(-0.000474304 -0.000488541 0)
(-0.000253353 -0.00028886 0)
(-0.000106676 -0.00011874 0)
(-2.58015e-05 1.45355e-06 0)
(-3.07678e-07 4.17951e-05 0)
(-8.97718e-06 9.08954e-06 0)
(-7.44128e-05 0.000155112 0)
(-0.000232543 0.000379425 0)
(-0.000480092 0.000647985 0)
(-0.000817053 0.000936613 0)
(-0.00124359 0.00122819 0)
(-0.00175733 0.0015109 0)
(-0.00235393 0.00177684 0)
(-0.00302765 0.00202104 0)
(-0.00377181 0.00224056 0)
(-0.00457908 0.00243391 0)
(-0.00544176 0.00260069 0)
(-0.006352 0.0027412 0)
(-0.00730201 0.00285621 0)
(-0.00828416 0.00294685 0)
(-0.00929105 0.00301439 0)
(-0.0103156 0.00306022 0)
(-0.0113512 0.00308574 0)
(-0.0123914 0.00309232 0)
(-0.0134303 0.00308128 0)
(-0.0144622 0.00305384 0)
(-0.0154819 0.00301111 0)
(-0.0164844 0.00295412 0)
(-0.0174652 0.00288376 0)
(-0.0184197 0.00280082 0)
(-0.0193439 0.00270599 0)
(-0.0202338 0.00259986 0)
(-0.0210857 0.00248295 0)
(-0.0218959 0.00235568 0)
(-0.0226611 0.00221844 0)
(-0.023378 0.00207157 0)
(-0.0240433 0.00191537 0)
(-0.0246541 0.00175016 0)
(-0.0252073 0.00157623 0)
(-0.0257002 0.00139389 0)
(-0.0261301 0.0012035 0)
(-0.0264943 0.00100545 0)
(-0.0267906 0.000800212 0)
(-0.0270168 0.000588303 0)
(-0.0271707 0.000370334 0)
(-0.0272506 0.000147007 0)
(-0.0272551 -8.08748e-05 0)
(-0.0271828 -0.000312402 0)
(-0.0270329 -0.000546553 0)
(-0.0268048 -0.000782194 0)
(-0.0264984 -0.00101807 0)
(-0.0261139 -0.00125283 0)
(-0.025652 -0.00148498 0)
(-0.025114 -0.00171296 0)
(-0.0245017 -0.00193509 0)
(-0.0238173 -0.00214961 0)
(-0.0230638 -0.00235471 0)
(-0.0222446 -0.0025485 0)
(-0.0213637 -0.00272908 0)
(-0.0204259 -0.00289452 0)
(-0.0194365 -0.00304289 0)
(-0.0184013 -0.00317233 0)
(-0.0173268 -0.00328099 0)
(-0.01622 -0.00336715 0)
(-0.0150885 -0.00342917 0)
(-0.0139403 -0.00346555 0)
(-0.0127839 -0.00347498 0)
(-0.0116279 -0.00345632 0)
(-0.0104816 -0.00340868 0)
(-0.00935421 -0.00333142 0)
(-0.00825508 -0.0032242 0)
(-0.00719357 -0.00308703 0)
(-0.00617893 -0.00292029 0)
(-0.00522009 -0.00272485 0)
(-0.00432554 -0.00250212 0)
(-0.00350313 -0.00225421 0)
(-0.00275987 -0.00198408 0)
(-0.00210163 -0.00169579 0)
(-0.00153292 -0.00139487 0)
(-0.00105655 -0.00108873 0)
(-0.000673314 -0.000787404 0)
(-0.000381507 -0.000504329 0)
(-0.00017648 -0.000257408 0)
(-5.25003e-05 -7.03316e-05 0)
(-5.05048e-06 2.34554e-05 0)
(-1.3923e-05 5.33849e-05 0)
(-0.000103334 0.000291229 0)
(-0.000309126 0.000610315 0)
(-0.000620818 0.000975031 0)
(-0.00103444 0.00135944 0)
(-0.00154822 0.00174448 0)
(-0.00215828 0.00211658 0)
(-0.00285908 0.00246645 0)
(-0.003644 0.00278798 0)
(-0.00450556 0.00307745 0)
(-0.00543574 0.00333289 0)
(-0.00642613 0.00355363 0)
(-0.00746822 0.00373992 0)
(-0.00855351 0.00389263 0)
(-0.00967368 0.00401307 0)
(-0.0108206 0.00410282 0)
(-0.0119866 0.00416359 0)
(-0.0131642 0.00419715 0)
(-0.0143464 0.00420525 0)
(-0.0155265 0.00418957 0)
(-0.0166982 0.00415171 0)
(-0.0178557 0.00409312 0)
(-0.0189934 0.00401515 0)
(-0.0201061 0.00391898 0)
(-0.0211887 0.00380567 0)
(-0.0222366 0.00367614 0)
(-0.0232454 0.0035312 0)
(-0.0242107 0.00337155 0)
(-0.0251286 0.0031978 0)
(-0.0259951 0.00301047 0)
(-0.0268066 0.00281005 0)
(-0.0275593 0.00259699 0)
(-0.02825 0.0023717 0)
(-0.0288752 0.00213462 0)
(-0.0294317 0.00188621 0)
(-0.0299167 0.00162696 0)
(-0.0303272 0.00135743 0)
(-0.0306605 0.00107827 0)
(-0.0309143 0.000790209 0)
(-0.0310862 0.000494083 0)
(-0.0311742 0.000190857 0)
(-0.0311769 -0.000118371 0)
(-0.0310927 -0.000432363 0)
(-0.0309206 -0.000749733 0)
(-0.0306602 -0.00106895 0)
(-0.0303113 -0.00138832 0)
(-0.0298743 -0.001706 0)
(-0.0293499 -0.00202002 0)
(-0.0287396 -0.00232825 0)
(-0.0280455 -0.00262845 0)
(-0.0272701 -0.00291827 0)
(-0.0264167 -0.00319527 0)
(-0.0254893 -0.00345695 0)
(-0.0244923 -0.00370073 0)
(-0.0234311 -0.00392407 0)
(-0.0223116 -0.00412441 0)
(-0.0211404 -0.00429923 0)
(-0.0199247 -0.00444612 0)
(-0.0186724 -0.00456277 0)
(-0.0173919 -0.00464703 0)
(-0.0160921 -0.00469693 0)
(-0.0147824 -0.00471074 0)
(-0.0134725 -0.00468702 0)
(-0.0121726 -0.00462461 0)
(-0.0108929 -0.00452273 0)
(-0.0096438 -0.00438101 0)
(-0.00843554 -0.00419954 0)
(-0.00727829 -0.00397896 0)
(-0.00618185 -0.00372052 0)
(-0.00515552 -0.00342622 0)
(-0.00420788 -0.00309896 0)
(-0.00334661 -0.00274271 0)
(-0.00257823 -0.00236281 0)
(-0.00190786 -0.00196633 0)
(-0.001339 -0.00156252 0)
(-0.000873276 -0.00116351 0)
(-0.000510042 -0.000785067 0)
(-0.000246055 -0.000447537 0)
(-7.86835e-05 -0.000176981 0)
(-9.52659e-06 -8.79221e-06 0)
(-1.84845e-05 0.000112303 0)
(-0.00013092 0.000464945 0)
(-0.000383264 0.000896827 0)
(-0.000758043 0.00137213 0)
(-0.00124733 0.00186397 0)
(-0.00184721 0.00235211 0)
(-0.00255204 0.00282178 0)
(-0.00335492 0.0032626 0)
(-0.00424816 0.00366757 0)
(-0.00522341 0.00403234 0)
(-0.00627189 0.00435453 0)
(-0.00738453 0.00463323 0)
(-0.00855217 0.00486863 0)
(-0.00976569 0.00506173 0)
(-0.0110161 0.00521402 0)
(-0.0122948 0.00532737 0)
(-0.0135934 0.00540382 0)
(-0.0149038 0.00544552 0)
(-0.0162184 0.00545461 0)
(-0.01753 0.00543315 0)
(-0.0188318 0.00538312 0)
(-0.0201172 0.00530634 0)
(-0.0213803 0.00520448 0)
(-0.0226151 0.00507905 0)
(-0.0238164 0.0049314 0)
(-0.0249788 0.0047627 0)
(-0.0260975 0.004574 0)
(-0.0271678 0.00436621 0)
(-0.0281852 0.00414011 0)
(-0.0291453 0.00389643 0)
(-0.0300442 0.00363578 0)
(-0.0308777 0.00335878 0)
(-0.0316422 0.003066 0)
(-0.0323339 0.00275802 0)
(-0.0329494 0.00243545 0)
(-0.0334853 0.00209896 0)
(-0.0339386 0.00174929 0)
(-0.0343063 0.00138731 0)
(-0.0345857 0.00101396 0)
(-0.0347744 0.000630348 0)
(-0.0348703 0.000237737 0)
(-0.0348715 -0.000162449 0)
(-0.0347766 -0.000568606 0)
(-0.0345844 -0.000978944 0)
(-0.0342946 -0.00139148 0)
(-0.0339068 -0.00180405 0)
(-0.0334215 -0.00221427 0)
(-0.0328397 -0.00261961 0)
(-0.032163 -0.00301735 0)
(-0.0313935 -0.00340461 0)
(-0.0305343 -0.0037784 0)
(-0.0295888 -0.00413558 0)
(-0.0285614 -0.00447296 0)
(-0.0274571 -0.00478727 0)
(-0.0262818 -0.00507525 0)
(-0.0250418 -0.00533364 0)
(-0.0237445 -0.00555926 0)
(-0.0223977 -0.00574903 0)
(-0.0210101 -0.00590004 0)
(-0.0195908 -0.00600956 0)
(-0.0181496 -0.00607513 0)
(-0.0166968 -0.00609458 0)
(-0.0152428 -0.00606611 0)
(-0.0137988 -0.00598833 0)
(-0.0123758 -0.00586031 0)
(-0.0109851 -0.00568167 0)
(-0.00963792 -0.00545261 0)
(-0.00834512 -0.00517404 0)
(-0.00711734 -0.00484768 0)
(-0.00596462 -0.00447614 0)
(-0.00489628 -0.00406316 0)
(-0.00392067 -0.00361375 0)
(-0.003045 -0.00313454 0)
(-0.00227514 -0.00263408 0)
(-0.00161538 -0.00212334 0)
(-0.0010684 -0.00161629 0)
(-0.000634823 -0.00113063 0)
(-0.000313001 -0.000688574 0)
(-0.000103455 -0.000317719 0)
(-1.36074e-05 -5.42623e-05 0)
(-2.26602e-05 0.000184998 0)
(-0.000156898 0.000674731 0)
(-0.000453946 0.00123738 0)
(-0.000889853 0.00183767 0)
(-0.00145287 0.00244855 0)
(-0.0021368 0.00304926 0)
(-0.00293417 0.00362431 0)
(-0.00383655 0.00416259 0)
(-0.00483506 0.0046565 0)
(-0.00592041 0.00510123 0)
(-0.00708298 0.00549406 0)
(-0.00831302 0.00583396 0)
(-0.00960073 0.00612113 0)
(-0.0109364 0.00635665 0)
(-0.0123105 0.00654226 0)
(-0.0137138 0.0066801 0)
(-0.0151374 0.00677258 0)
(-0.0165728 0.00682221 0)
(-0.0180118 0.00683152 0)
(-0.0194467 0.00680298 0)
(-0.0208701 0.00673896 0)
(-0.0222751 0.00664166 0)
(-0.0236551 0.0065131 0)
(-0.025004 0.00635512 0)
(-0.0263158 0.00616937 0)
(-0.0275849 0.0059573 0)
(-0.028806 0.00572021 0)
(-0.029974 0.00545924 0)
(-0.0310841 0.00517537 0)
(-0.0321315 0.00486951 0)
(-0.0331118 0.00454247 0)
(-0.0340207 0.00419502 0)
(-0.0348541 0.0038279 0)
(-0.0356081 0.00344185 0)
(-0.0362787 0.00303767 0)
(-0.0368626 0.00261622 0)
(-0.0373562 0.00217844 0)
(-0.0377564 0.00172542 0)
(-0.0380603 0.00125836 0)
(-0.0382654 0.000778672 0)
(-0.0383692 0.000287921 0)
(-0.0383698 -0.000212102 0)
(-0.0382657 -0.000719393 0)
(-0.0380557 -0.00123172 0)
(-0.0377391 -0.00174662 0)
(-0.037316 -0.00226138 0)
(-0.0367866 -0.00277308 0)
(-0.0361521 -0.00327855 0)
(-0.0354141 -0.00377443 0)
(-0.0345752 -0.00425716 0)
(-0.0336383 -0.00472303 0)
(-0.0326075 -0.00516817 0)
(-0.0314872 -0.00558864 0)
(-0.0302831 -0.0059804 0)
(-0.0290013 -0.00633943 0)
(-0.0276489 -0.00666172 0)
(-0.0262336 -0.00694335 0)
(-0.0247639 -0.00718055 0)
(-0.0232493 -0.00736974 0)
(-0.0216994 -0.00750759 0)
(-0.0201249 -0.00759109 0)
(-0.0185368 -0.00761764 0)
(-0.0169464 -0.00758505 0)
(-0.0153656 -0.00749167 0)
(-0.0138064 -0.00733645 0)
(-0.0122807 -0.00711899 0)
(-0.0108005 -0.00683963 0)
(-0.0093777 -0.0064996 0)
(-0.00802353 -0.00610107 0)
(-0.0067488 -0.00564733 0)
(-0.00556357 -0.00514295 0)
(-0.00447692 -0.004594 0)
(-0.00349681 -0.00400834 0)
(-0.00262992 -0.00339593 0)
(-0.00188152 -0.00276928 0)
(-0.00125541 -0.00214397 0)
(-0.00075362 -0.00153928 0)
(-0.000376118 -0.000978746 0)
(-0.000126427 -0.000490911 0)
(-1.72606e-05 -0.000111994 0)
(-2.65003e-05 0.000270533 0)
(-0.00018121 0.000918806 0)
(-0.000520796 0.00162979 0)
(-0.00101539 0.00236934 0)
(-0.00164957 0.00311084 0)
(-0.00241495 0.00383349 0)
(-0.00330215 0.00452152 0)
(-0.00430115 0.00516349 0)
(-0.00540177 0.00575144 0)
(-0.00659368 0.00628029 0)
(-0.00786643 0.00674717 0)
(-0.00920949 0.007151 0)
(-0.0106124 0.00749204 0)
(-0.012065 0.00777154 0)
(-0.0135571 0.00799148 0)
(-0.015079 0.00815432 0)
(-0.0166212 0.00826283 0)
(-0.0181749 0.0083199 0)
(-0.0197314 0.00832848 0)
(-0.0212825 0.00829145 0)
(-0.0228205 0.00821157 0)
(-0.024338 0.00809143 0)
(-0.0258281 0.00793343 0)
(-0.027284 0.00773974 0)
(-0.0286996 0.00751233 0)
(-0.0300689 0.00725294 0)
(-0.0313862 0.00696313 0)
(-0.0326459 0.00664428 0)
(-0.0338431 0.0062976 0)
(-0.0349726 0.00592418 0)
(-0.0360296 0.00552505 0)
(-0.0370096 0.00510113 0)
(-0.0379082 0.00465334 0)
(-0.038721 0.00418263 0)
(-0.0394441 0.00368997 0)
(-0.0400736 0.00317642 0)
(-0.040606 0.00264316 0)
(-0.0410377 0.0020915 0)
(-0.0413657 0.00152295 0)
(-0.0415872 0.000939201 0)
(-0.0416997 0.000342182 0)
(-0.041701 -0.000265936 0)
(-0.0415896 -0.000882718 0)
(-0.0413641 -0.00150546 0)
(-0.0410239 -0.00213117 0)
(-0.0405688 -0.00275659 0)
(-0.0399993 -0.00337815 0)
(-0.0393165 -0.00399207 0)
(-0.0385221 -0.00459426 0)
(-0.0376188 -0.00518044 0)
(-0.0366099 -0.00574613 0)
(-0.0354994 -0.00628668 0)
(-0.0342925 -0.00679732 0)
(-0.0329947 -0.00727322 0)
(-0.0316129 -0.00770952 0)
(-0.0301544 -0.00810142 0)
(-0.0286277 -0.00844422 0)
(-0.0270418 -0.00873337 0)
(-0.0254065 -0.00896461 0)
(-0.0237325 -0.00913395 0)
(-0.0220309 -0.00923782 0)
(-0.0203136 -0.00927313 0)
(-0.0185926 -0.00923731 0)
(-0.0168805 -0.00912844 0)
(-0.0151902 -0.00894532 0)
(-0.0135344 -0.00868754 0)
(-0.0119258 -0.00835562 0)
(-0.010377 -0.00795109 0)
(-0.00890025 -0.0074766 0)
(-0.00750694 -0.00693612 0)
(-0.00620794 -0.00633505 0)
(-0.00501312 -0.00568051 0)
(-0.00393126 -0.00498151 0)
(-0.00296994 -0.00424933 0)
(-0.00213545 -0.00349787 0)
(-0.00143283 -0.00274408 0)
(-0.000865474 -0.0020085 0)
(-0.000434955 -0.00131564 0)
(-0.000147508 -0.000694527 0)
(-2.05034e-05 -0.000180951 0)
(-3.00307e-05 0.000368039 0)
(-0.000203924 0.00119525 0)
(-0.000583805 0.0020716 0)
(-0.00113438 0.00296448 0)
(-0.00183691 0.00384806 0)
(-0.00268084 0.00470194 0)
(-0.0036549 0.00551048 0)
(-0.00474743 0.00626219 0)
(-0.00594694 0.00694905 0)
(-0.007242 0.0075659 0)
(-0.00862122 0.00810989 0)
(-0.0100733 0.00858 0)
(-0.0115872 0.00897664 0)
(-0.0131521 0.0093013 0)
(-0.0147572 0.00955625 0)
(-0.0163925 0.00974429 0)
(-0.018048 0.00986857 0)
(-0.0197144 0.00993241 0)
(-0.0213826 0.00993915 0)
(-0.0230441 0.00989212 0)
(-0.0246908 0.00979448 0)
(-0.0263149 0.00964922 0)
(-0.027909 0.00945912 0)
(-0.0294664 0.0092267 0)
(-0.0309802 0.00895426 0)
(-0.0324443 0.00864384 0)
(-0.0338526 0.00829727 0)
(-0.0351994 0.00791618 0)
(-0.0364791 0.007502 0)
(-0.0376866 0.00705605 0)
(-0.0388167 0.00657954 0)
(-0.0398646 0.00607359 0)
(-0.0408255 0.00553931 0)
(-0.0416949 0.00497783 0)
(-0.0424687 0.00439034 0)
(-0.0431426 0.00377809 0)
(-0.0437128 0.00314252 0)
(-0.0441758 0.00248519 0)
(-0.0445281 0.00180789 0)
(-0.0447668 0.00111266 0)
(-0.0448892 0.000401777 0)
(-0.0448931 -0.000322169 0)
(-0.0447765 -0.00105629 0)
(-0.0445383 -0.00179739 0)
(-0.0441775 -0.00254191 0)
(-0.0436939 -0.00328599 0)
(-0.0430881 -0.00402543 0)
(-0.0423611 -0.00475573 0)
(-0.0415148 -0.00547208 0)
(-0.0405518 -0.0061694 0)
(-0.0394757 -0.00684241 0)
(-0.0382908 -0.00748561 0)
(-0.0370022 -0.00809337 0)
(-0.0356161 -0.00865999 0)
(-0.0341395 -0.00917973 0)
(-0.0325803 -0.00964694 0)
(-0.0309473 -0.0100561 0)
(-0.0292501 -0.0104018 0)
(-0.0274992 -0.010679 0)
(-0.0257058 -0.0108832 0)
(-0.0238817 -0.0110101 0)
(-0.0220395 -0.011056 0)
(-0.020192 -0.0110181 0)
(-0.0183526 -0.0108941 0)
(-0.0165347 -0.0106827 0)
(-0.0147521 -0.0103834 0)
(-0.0130182 -0.00999696 0)
(-0.0113464 -0.00952517 0)
(-0.00974968 -0.00897119 0)
(-0.00824031 -0.00833964 0)
(-0.00682994 -0.00763678 0)
(-0.0055293 -0.00687068 0)
(-0.00434807 -0.00605148 0)
(-0.00329477 -0.00519168 0)
(-0.00237678 -0.00430642 0)
(-0.00160037 -0.00341385 0)
(-0.000970277 -0.0025355 0)
(-0.000489538 -0.00169663 0)
(-0.000166776 -0.000926443 0)
(-2.33753e-05 -0.00026012 0)
(-3.32817e-05 0.000476701 0)
(-0.00022516 0.00150218 0)
(-0.000643134 0.00256034 0)
(-0.00124702 0.00362026 0)
(-0.00201498 0.00465724 0)
(-0.00293444 0.00565159 0)
(-0.00399228 0.00658809 0)
(-0.00517523 0.00745551 0)
(-0.00647044 0.00824601 0)
(-0.00786534 0.00895458 0)
(-0.0093476 0.00957853 0)
(-0.0109051 0.010117 0)
(-0.0125262 0.0105708 0)
(-0.0141992 0.0109415 0)
(-0.0159132 0.0112319 0)
(-0.0176575 0.0114451 0)
(-0.0194217 0.0115848 0)
(-0.021196 0.0116545 0)
(-0.0229712 0.0116582 0)
(-0.0247382 0.0115996 0)
(-0.0264886 0.0114823 0)
(-0.0282144 0.0113097 0)
(-0.0299079 0.0110849 0)
(-0.0315619 0.0108109 0)
(-0.0331695 0.0104903 0)
(-0.0347242 0.0101253 0)
(-0.0362195 0.00971824 0)
(-0.0376496 0.00927085 0)
(-0.0390086 0.00878485 0)
(-0.040291 0.00826177 0)
(-0.0414914 0.00770301 0)
(-0.0426049 0.0071099 0)
(-0.0436263 0.00648375 0)
(-0.044551 0.00582587 0)
(-0.0453745 0.00513766 0)
(-0.0460923 0.00442061 0)
(-0.0467005 0.00367638 0)
(-0.0471951 0.00290681 0)
(-0.0475726 0.00211401 0)
(-0.0478299 0.00130033 0)
(-0.047964 0.000468454 0)
(-0.0479726 -0.000378619 0)
(-0.0478535 -0.00123752 0)
(-0.0476053 -0.00210452 0)
(-0.0472272 -0.0029755 0)
(-0.0467188 -0.00384594 0)
(-0.0460804 -0.00471098 0)
(-0.0453133 -0.00556536 0)
(-0.0444192 -0.0064035 0)
(-0.043401 -0.00721951 0)
(-0.042262 -0.00800721 0)
(-0.041007 -0.00876023 0)
(-0.0396412 -0.00947203 0)
(-0.0381711 -0.010136 0)
(-0.036604 -0.0107454 0)
(-0.0349481 -0.0112937 0)
(-0.0332129 -0.0117744 0)
(-0.0314082 -0.0121815 0)
(-0.0295453 -0.0125089 0)
(-0.0276358 -0.0127514 0)
(-0.0256924 -0.0129041 0)
(-0.0237281 -0.0129629 0)
(-0.0217568 -0.0129243 0)
(-0.0197923 -0.0127858 0)
(-0.0178491 -0.0125459 0)
(-0.0159416 -0.0122041 0)
(-0.0140842 -0.0117613 0)
(-0.012291 -0.0112197 0)
(-0.0105759 -0.0105827 0)
(-0.00895207 -0.00985587 0)
(-0.00743197 -0.00904607 0)
(-0.00602725 -0.00816238 0)
(-0.00474854 -0.00721601 0)
(-0.00360539 -0.00622056 0)
(-0.00260626 -0.00519233 0)
(-0.00175861 -0.0041505 0)
(-0.00106848 -0.00311749 0)
(-0.000540189 -0.0021191 0)
(-0.000184404 -0.00118463 0)
(-2.59255e-05 -0.000348577 0)
(-3.62947e-05 0.000595765 0)
(-0.000245067 0.00183785 0)
(-0.000699072 0.00309361 0)
(-0.00135369 0.00433391 0)
(-0.00218424 0.00553542 0)
(-0.00317626 0.00667938 0)
(-0.00431485 0.00775125 0)
(-0.00558516 0.00874032 0)
(-0.00697299 0.00963915 0)
(-0.0084646 0.0104431 0)
(-0.0100467 0.0111497 0)
(-0.0117064 0.0117586 0)
(-0.0134312 0.0122707 0)
(-0.015209 0.0126884 0)
(-0.0170282 0.0130145 0)
(-0.0188776 0.0132527 0)
(-0.0207466 0.0134071 0)
(-0.022625 0.0134819 0)
(-0.0245031 0.0134813 0)
(-0.0263716 0.0134096 0)
(-0.0282218 0.0132707 0)
(-0.0300454 0.0130686 0)
(-0.0318345 0.0128067 0)
(-0.0335815 0.0124883 0)
(-0.0352794 0.0121165 0)
(-0.0369213 0.0116938 0)
(-0.0385006 0.0112227 0)
(-0.0400111 0.0107052 0)
(-0.0414469 0.0101434 0)
(-0.0428022 0.00953897 0)
(-0.0440713 0.00889347 0)
(-0.045249 0.00820848 0)
(-0.04633 0.00748548 0)
(-0.0473094 0.006726 0)
(-0.0481824 0.00593164 0)
(-0.0489445 0.00510412 0)
(-0.0495913 0.00424533 0)
(-0.0501188 0.0033574 0)
(-0.0505231 0.00244275 0)
(-0.0508009 0.00150407 0)
(-0.050949 0.000544443 0)
(-0.0509649 -0.000432695 0)
(-0.0508462 -0.00142349 0)
(-0.0505915 -0.00242364 0)
(-0.0501995 -0.00342845 0)
(-0.0496699 -0.00443273 0)
(-0.0490029 -0.0054309 0)
(-0.0481995 -0.00641693 0)
(-0.0472617 -0.00738442 0)
(-0.0461921 -0.0083266 0)
(-0.0449944 -0.00923638 0)
(-0.0436732 -0.0101064 0)
(-0.042234 -0.0109293 0)
(-0.0406835 -0.0116972 0)
(-0.0390293 -0.0124027 0)
(-0.0372801 -0.0130381 0)
(-0.0354454 -0.013596 0)
(-0.033536 -0.0140694 0)
(-0.0315634 -0.0144515 0)
(-0.0295399 -0.0147361 0)
(-0.0274789 -0.0149178 0)
(-0.0253941 -0.0149917 0)
(-0.0233 -0.014954 0)
(-0.0212115 -0.0148018 0)
(-0.0191437 -0.0145334 0)
(-0.017112 -0.0141484 0)
(-0.0151316 -0.0136476 0)
(-0.0132176 -0.0130335 0)
(-0.0113846 -0.0123102 0)
(-0.00964692 -0.0114836 0)
(-0.00801787 -0.0105616 0)
(-0.00651008 -0.00955409 0)
(-0.00513519 -0.00847331 0)
(-0.00390379 -0.00733392 0)
(-0.00282543 -0.00615328 0)
(-0.00190874 -0.00495154 0)
(-0.00116092 -0.00375192 0)
(-0.000587414 -0.0025807 0)
(-0.000200621 -0.00146725 0)
(-2.82047e-05 -0.00044551 0)
(-3.91006e-05 0.000724589 0)
(-0.000263793 0.00220066 0)
(-0.000751974 0.00366915 0)
(-0.00145493 0.00510282 0)
(-0.0023454 0.00647976 0)
(-0.00340716 0.00778235 0)
(-0.00462362 0.00899697 0)
(-0.00597839 0.0101136 0)
(-0.00745593 0.0111254 0)
(-0.00904136 0.0120283 0)
(-0.0107204 0.0128203 0)
(-0.0124793 0.0135015 0)
(-0.0143048 0.0140734 0)
(-0.0161843 0.0145385 0)
(-0.0181056 0.0149006 0)
(-0.0200571 0.0151636 0)
(-0.0220277 0.0153322 0)
(-0.0240069 0.015411 0)
(-0.0259847 0.0154048 0)
(-0.0279516 0.0153184 0)
(-0.0298984 0.0151562 0)
(-0.0318167 0.0149224 0)
(-0.0336984 0.0146211 0)
(-0.0355357 0.0142558 0)
(-0.0373212 0.01383 0)
(-0.0390479 0.0133465 0)
(-0.040709 0.0128081 0)
(-0.0422982 0.0122172 0)
(-0.0438093 0.0115759 0)
(-0.0452361 0.0108862 0)
(-0.046573 0.0101498 0)
(-0.0478144 0.00936861 0)
(-0.0489549 0.0085442 0)
(-0.0499893 0.00767832 0)
(-0.0509126 0.00677278 0)
(-0.0517199 0.00582951 0)
(-0.0524068 0.00485066 0)
(-0.0529689 0.00383864 0)
(-0.0534023 0.00279616 0)
(-0.0537031 0.00172629 0)
(-0.0538681 0.000632477 0)