/*--------------------------------*- C++ -*----------------------------------*\
  =========                 |
  \\      /  F ield         | OpenFOAM: The Open Source CFD Toolbox
   \\    /   O peration     | Website:  https://openfoam.org
    \\  /    A nd           | Version:  7
     \\/     M anipulation  |
\*---------------------------------------------------------------------------*/
FoamFile
{
    version     2.0;
    format      ascii;
    class       volVectorField;
    location    "3.225";
    object      U;
}
// * * * * * * * * * * * * * * * * * * * * * * * * * * * * * * * * * * * * * //

dimensions      [0 1 -1 0 0 0 0];

internalField   nonuniform List<vector> 
6400
(
(1.06279e-05 -1.05805e-05 0)
(7.20537e-05 -3.81378e-05 0)
(0.000185901 -4.99975e-05 0)
(0.000307218 -4.89924e-05 0)
(0.00041069 -4.1026e-05 0)
(0.000483804 -2.98797e-05 0)
(0.000520508 -1.76893e-05 0)
(0.00051867 -5.58973e-06 0)
(0.000478412 5.90313e-06 0)
(0.000400907 1.66407e-05 0)
(0.000287629 2.66807e-05 0)
(0.000139923 3.61815e-05 0)
(-4.12119e-05 4.53426e-05 0)
(-0.000255206 5.43637e-05 0)
(-0.0005019 6.34199e-05 0)
(-0.000781472 7.26498e-05 0)
(-0.00109432 8.21475e-05 0)
(-0.00144096 9.19599e-05 0)
(-0.00182183 0.000102087 0)
(-0.00223722 0.000112483 0)
(-0.00268707 0.000123059 0)
(-0.00317093 0.000133686 0)
(-0.00368774 0.000144197 0)
(-0.00423581 0.00015439 0)
(-0.00481271 0.000164031 0)
(-0.00541516 0.000172858 0)
(-0.00603903 0.000180585 0)
(-0.00667925 0.000186907 0)
(-0.00732981 0.000191504 0)
(-0.00798379 0.000194052 0)
(-0.00863334 0.000194231 0)
(-0.00926982 0.000191733 0)
(-0.00988383 0.000186278 0)
(-0.0104654 0.000177621 0)
(-0.0110041 0.00016557 0)
(-0.0114893 0.00015 0)
(-0.0119102 0.000130861 0)
(-0.0122567 0.000108196 0)
(-0.0125187 8.21482e-05 0)
(-0.0126872 5.29664e-05 0)
(-0.0127546 2.10272e-05 0)
(-0.0127141 -1.31051e-05 0)
(-0.0125612 -4.89519e-05 0)
(-0.0122932 -8.57813e-05 0)
(-0.0119096 -0.000122781 0)
(-0.0114126 -0.000159083 0)
(-0.0108065 -0.000193771 0)
(-0.0100985 -0.000225919 0)
(-0.00929835 -0.000254617 0)
(-0.00841799 -0.000279013 0)
(-0.00747174 -0.000298351 0)
(-0.0064757 -0.000312009 0)
(-0.00544746 -0.000319531 0)
(-0.00440556 -0.000320656 0)
(-0.00336897 -0.000315335 0)
(-0.00235649 -0.000303742 0)
(-0.00138621 -0.000286266 0)
(-0.000474815 -0.000263511 0)
(0.000362682 -0.000236295 0)
(0.00111361 -0.000205413 0)
(0.00176803 -0.000171932 0)
(0.0023187 -0.000136891 0)
(0.00276134 -0.000101308 0)
(0.00309456 -6.61459e-05 0)
(0.00331968 -3.22675e-05 0)
(0.00344047 -3.97988e-07 0)
(0.00346282 2.88933e-05 0)
(0.00339432 5.51972e-05 0)
(0.0032439 7.82515e-05 0)
(0.0030215 9.79049e-05 0)
(0.00273781 0.000114062 0)
(0.00240424 0.000126594 0)
(0.0020331 0.000135219 0)
(0.00163807 0.000139325 0)
(0.00123518 0.000137747 0)
(0.000844122 0.000128529 0)
(0.000489811 0.000108806 0)
(0.000202933 7.49439e-05 0)
(1.93262e-05 2.52639e-05 0)
(-2.09468e-05 -2.10793e-05 0)
(3.8973e-05 -7.26201e-05 0)
(0.000179181 -0.000177847 0)
(0.000396234 -0.000216135 0)
(0.000611554 -0.000202351 0)
(0.000777748 -0.000156375 0)
(0.000868284 -9.2739e-05 0)
(0.000867675 -2.09351e-05 0)
(0.00076827 5.32769e-05 0)
(0.00056761 0.000126763 0)
(0.000266124 0.000198144 0)
(-0.000134499 0.00026714 0)
(-0.000632321 0.0003341 0)
(-0.00122573 0.000399673 0)
(-0.00191373 0.000464589 0)
(-0.00269588 0.000529505 0)
(-0.00357227 0.000594909 0)
(-0.00454318 0.000661065 0)
(-0.00560886 0.000727985 0)
(-0.00676913 0.000795415 0)
(-0.0080231 0.000862845 0)
(-0.00936882 0.000929515 0)
(-0.010803 0.000994434 0)
(-0.0123206 0.00105641 0)
(-0.013915 0.00111405 0)
(-0.0155771 0.00116583 0)
(-0.017296 0.00121009 0)
(-0.0190583 0.00124508 0)
(-0.0208483 0.00126903 0)
(-0.0226481 0.00128013 0)
(-0.0244375 0.00127666 0)
(-0.0261945 0.00125699 0)
(-0.0278952 0.00121967 0)
(-0.0295146 0.0011635 0)
(-0.0310264 0.00108754 0)
(-0.032404 0.000991256 0)
(-0.033621 0.000874504 0)
(-0.0346514 0.000737629 0)
(-0.0354706 0.000581491 0)
(-0.0360561 0.000407496 0)
(-0.0363879 0.000217597 0)
(-0.0364493 1.43364e-05 0)
(-0.0362276 -0.000198921 0)
(-0.0357144 -0.000418813 0)
(-0.0349064 -0.00064125 0)
(-0.0338058 -0.000861759 0)
(-0.0324203 -0.00107563 0)
(-0.0307636 -0.00127802 0)
(-0.0288551 -0.0014641 0)
(-0.0267197 -0.00162922 0)
(-0.0243879 -0.00176909 0)
(-0.0218946 -0.00187992 0)
(-0.0192789 -0.00195862 0)
(-0.0165831 -0.00200292 0)
(-0.0138513 -0.00201151 0)
(-0.0111289 -0.00198414 0)
(-0.00846081 -0.00192163 0)
(-0.00589056 -0.00182588 0)
(-0.00345888 -0.0016998 0)
(-0.00120268 -0.00154731 0)
(0.000846001 -0.00137283 0)
(0.00266085 -0.00118149 0)
(0.00422189 -0.000978774 0)
(0.00551576 -0.000770153 0)
(0.00653579 -0.000560947 0)
(0.00728187 -0.000356113 0)
(0.00776004 -0.000160056 0)
(0.00798186 2.34757e-05 0)
(0.00796372 0.000191442 0)
(0.0077261 0.000341459 0)
(0.00729294 0.000471658 0)
(0.0066911 0.000580438 0)
(0.00595029 0.000666096 0)
(0.00510325 0.000726342 0)
(0.00418649 0.000757703 0)
(0.00324159 0.000754892 0)
(0.00231673 0.000710407 0)
(0.00146715 0.000614945 0)
(0.000753308 0.000459376 0)
(0.000244967 0.000243615 0)
(2.59092e-05 1.95378e-05 0)
(5.18676e-05 -0.000188674 0)
(0.000218987 -0.000395941 0)
(0.00045389 -0.000453559 0)
(0.000660703 -0.000400451 0)
(0.00078261 -0.000274367 0)
(0.00078677 -0.000104739 0)
(0.00065257 8.76886e-05 0)
(0.000368562 0.00028942 0)
(-7.0258e-05 0.000492524 0)
(-0.000665046 0.000693017 0)
(-0.00141503 0.000889529 0)
(-0.00231878 0.00108228 0)
(-0.00337492 0.0012723 0)
(-0.00458246 0.00146089 0)
(-0.00594084 0.00164921 0)
(-0.00744974 0.00183802 0)
(-0.0091087 0.00202754 0)
(-0.0109168 0.00221735 0)
(-0.012872 0.00240635 0)
(-0.014971 0.00259279 0)
(-0.0172085 0.00277424 0)
(-0.0195767 0.00294774 0)
(-0.0220653 0.00310977 0)
(-0.0246611 0.00325641 0)
(-0.0273475 0.00338337 0)
(-0.0301047 0.00348614 0)
(-0.0329094 0.00356008 0)
(-0.0357353 0.00360055 0)
(-0.0385527 0.00360305 0)
(-0.0413292 0.00356337 0)
(-0.0440301 0.00347774 0)
(-0.0466187 0.00334296 0)
(-0.0490568 0.00315661 0)
(-0.0513058 0.00291713 0)
(-0.0533272 0.00262403 0)
(-0.0550833 0.00227793 0)
(-0.0565383 0.00188071 0)
(-0.0576589 0.00143558 0)
(-0.0584155 0.000947059 0)
(-0.0587828 0.000421021 0)
(-0.0587404 -0.000135364 0)
(-0.058274 -0.000713453 0)
(-0.0573758 -0.00130382 0)
(-0.0560448 -0.001896 0)
(-0.0542875 -0.00247878 0)
(-0.052118 -0.00304048 0)
(-0.0495582 -0.00356928 0)
(-0.0466373 -0.00405349 0)
(-0.043392 -0.004482 0)
(-0.0398658 -0.00484454 0)
(-0.036108 -0.00513218 0)
(-0.0321732 -0.00533756 0)
(-0.0281203 -0.00545533 0)
(-0.0240105 -0.00548233 0)
(-0.0199068 -0.00541782 0)
(-0.0158719 -0.00526363 0)
(-0.0119668 -0.00502407 0)
(-0.00824934 -0.00470592 0)
(-0.00477263 -0.00431815 0)
(-0.00158364 -0.00387155 0)
(0.00127789 -0.00337836 0)
(0.00378043 -0.00285178 0)
(0.00590135 -0.00230544 0)
(0.00762707 -0.00175279 0)
(0.0089532 -0.00120666 0)
(0.0098842 -0.00067881 0)
(0.0104328 -0.000179647 0)
(0.0106193 0.000281931 0)
(0.0104706 0.000698475 0)
(0.0100197 0.00106371 0)
(0.00930476 0.00137204 0)
(0.00836896 0.00161777 0)
(0.00726049 0.00179418 0)
(0.00603308 0.00189249 0)
(0.00474687 0.00190096 0)
(0.00346948 0.00180469 0)
(0.00227511 0.00158732 0)
(0.00124157 0.00123572 0)
(0.000463993 0.000753354 0)
(7.65682e-05 0.000205244 0)
(5.11797e-05 -0.00031265 0)
(0.000201333 -0.000609089 0)
(0.000384976 -0.000657766 0)
(0.000501772 -0.000529574 0)
(0.000492673 -0.00028278 0)
(0.00032321 3.72442e-05 0)
(-2.87886e-05 0.000397781 0)
(-0.000576342 0.000776987 0)
(-0.00132595 0.00116155 0)
(-0.00228014 0.00154437 0)
(-0.00343933 0.00192259 0)
(-0.00480299 0.00229595 0)
(-0.00637036 0.00266558 0)
(-0.00814074 0.00303304 0)
(-0.0101134 0.00339961 0)
(-0.0122873 0.00376594 0)
(-0.0146608 0.00413164 0)
(-0.0172309 0.00449522 0)
(-0.0199929 0.00485397 0)
(-0.0229398 0.005204 0)
(-0.0260617 0.00554031 0)
(-0.0293453 0.00585689 0)
(-0.0327738 0.00614686 0)
(-0.0363263 0.00640265 0)
(-0.0399777 0.00661621 0)
(-0.043699 0.0067792 0)
(-0.0474569 0.00688323 0)
(-0.0512144 0.00692012 0)
(-0.0549312 0.00688217 0)
(-0.0585638 0.0067624 0)
(-0.0620668 0.00655483 0)
(-0.0653928 0.00625479 0)
(-0.0684941 0.00585907 0)
(-0.0713229 0.00536626 0)
(-0.0738328 0.00477683 0)
(-0.0759793 0.00409336 0)
(-0.077721 0.00332063 0)
(-0.0790206 0.00246566 0)
(-0.0798457 0.00153771 0)
(-0.0801696 0.000548245 0)
(-0.079972 -0.00048928 0)
(-0.0792398 -0.00155936 0)
(-0.0779676 -0.00264486 0)
(-0.0761583 -0.00372734 0)
(-0.0738229 -0.00478735 0)
(-0.0709811 -0.00580487 0)
(-0.0676612 -0.00675977 0)
(-0.0638996 -0.00763237 0)
(-0.0597409 -0.00840393 0)
(-0.0552371 -0.00905731 0)
(-0.0504468 -0.00957746 0)
(-0.0454346 -0.00995205 0)
(-0.0402695 -0.010172 0)
(-0.035024 -0.0102317 0)
(-0.0297724 -0.0101296 0)
(-0.0245893 -0.00986847 0)
(-0.019548 -0.00945504 0)
(-0.0147185 -0.00890023 0)
(-0.0101664 -0.00821872 0)
(-0.00595043 -0.00742846 0)
(-0.00212186 -0.00655008 0)
(0.0012772 -0.00560599 0)
(0.00421467 -0.00461974 0)
(0.00666904 -0.00361499 0)
(0.00862966 -0.0026147 0)
(0.0100967 -0.00164043 0)
(0.0110808 -0.000711744 0)
(0.0116024 0.000154054 0)
(0.0116911 0.000941946 0)
(0.0113845 0.00163887 0)
(0.0107279 0.00223296 0)
(0.00977361 0.00271255 0)
(0.00858066 0.00306478 0)
(0.00721493 0.0032743 0)
(0.00574958 0.00332215 0)
(0.00426572 0.00318582 0)
(0.00285087 0.00284156 0)
(0.00159646 0.00227032 0)
(0.000621633 0.00147101 0)
(0.000111143 0.000496204 0)
(4.18148e-05 -0.000415237 0)
(0.000141355 -0.000759081 0)
(0.000216036 -0.000755029 0)
(0.000173907 -0.000507835 0)
(-4.00719e-05 -9.71829e-05 0)
(-0.000458514 0.000415891 0)
(-0.00110229 0.000987305 0)
(-0.00198395 0.00158744 0)
(-0.00311029 0.00219796 0)
(-0.00448463 0.00280876 0)
(-0.00610834 0.00341544 0)
(-0.00798185 0.00401706 0)
(-0.0101051 0.00461446 0)
(-0.0124776 0.005209 0)
(-0.0150982 0.00580155 0)
(-0.0179651 0.00639191 0)
(-0.0210746 0.00697837 0)
(-0.0244212 0.00755751 0)
(-0.0279965 0.0081241 0)
(-0.0317889 0.0086712 0)
(-0.0357828 0.0091902 0)
(-0.0399587 0.0096711 0)
(-0.0442921 0.0101027 0)
(-0.0487539 0.0104731 0)
(-0.0533104 0.0107695 0)
(-0.0579229 0.0109794 0)
(-0.0625487 0.0110901 0)
(-0.067141 0.0110899 0)
(-0.07165 0.0109678 0)
(-0.076023 0.0107144 0)
(-0.0802061 0.0103222 0)
(-0.0841444 0.00978557 0)
(-0.0877833 0.00910166 0)
(-0.0910696 0.00827021 0)
(-0.0939524 0.00729394 0)
(-0.0963841 0.00617865 0)
(-0.0983213 0.0049333 0)
(-0.099726 0.00357001 0)
(-0.100566 0.00210402 0)
(-0.100816 0.000553448 0)
(-0.100456 -0.00106107 0)
(-0.0994778 -0.00271604 0)
(-0.0978774 -0.00438605 0)
(-0.0956615 -0.00604408 0)
(-0.0928447 -0.00766195 0)
(-0.0894505 -0.00921086 0)
(-0.0855112 -0.010662 0)
(-0.0810675 -0.0119874 0)
(-0.0761684 -0.0131604 0)
(-0.0708706 -0.0141564 0)
(-0.0652379 -0.0149541 0)
(-0.0593403 -0.0155356 0)
(-0.0532529 -0.0158874 0)
(-0.047055 -0.0160013 0)
(-0.0408283 -0.0158742 0)
(-0.0346556 -0.0155091 0)
(-0.0286189 -0.0149149 0)
(-0.0227978 -0.0141061 0)
(-0.0172675 -0.0131031 0)
(-0.0120973 -0.0119309 0)
(-0.00734856 -0.0106186 0)
(-0.0030735 -0.00919872 0)
(0.000686197 -0.00770534 0)
(0.00390023 -0.00617354 0)
(0.00655035 -0.0046379 0)
(0.00863054 -0.00313148 0)
(0.0101469 -0.001685 0)
(0.0111175 -0.000326254 0)
(0.0115711 0.000919987 0)
(0.0115472 0.0020317 0)
(0.0110946 0.00298877 0)
(0.0102711 0.00377172 0)
(0.00914283 0.00436019 0)
(0.00778398 0.00473127 0)
(0.00627689 0.00485824 0)
(0.00471249 0.00471053 0)
(0.00318888 0.00425581 0)
(0.00180968 0.00346532 0)
(0.000715302 0.00232432 0)
(0.000130548 0.000855096 0)
(2.67755e-05 -0.000477495 0)
(4.98776e-05 -0.000803549 0)
(-3.20383e-05 -0.000689393 0)
(-0.000291418 -0.000271431 0)
(-0.000773559 0.000350171 0)
(-0.00150609 0.00109991 0)
(-0.00250614 0.00192375 0)
(-0.00378396 0.00278552 0)
(-0.00534544 0.00366274 0)
(-0.00719397 0.00454292 0)
(-0.0093315 0.00542029 0)
(-0.0117592 0.00629314 0)
(-0.0144774 0.00716172 0)
(-0.0174857 0.00802662 0)
(-0.0207826 0.00888759 0)
(-0.0243644 0.00974279 0)
(-0.0282253 0.0105882 0)
(-0.0323564 0.0114176 0)
(-0.0367448 0.0122222 0)
(-0.0413736 0.012991 0)
(-0.0462211 0.0137109 0)
(-0.0512602 0.0143669 0)
(-0.0564588 0.014943 0)
(-0.0617795 0.0154219 0)
(-0.0671795 0.0157862 0)
(-0.0726116 0.0160187 0)
(-0.0780242 0.0161026 0)
(-0.0833623 0.0160228 0)
(-0.0885683 0.0157657 0)
(-0.0935826 0.0153203 0)
(-0.0983454 0.0146781 0)
(-0.102797 0.0138341 0)
(-0.106879 0.0127866 0)
(-0.110536 0.0115379 0)
(-0.113716 0.0100941 0)
(-0.11637 0.00846537 0)
(-0.118457 0.00666585 0)
(-0.119938 0.00471367 0)
(-0.120784 0.00263078 0)
(-0.120971 0.000442491 0)
(-0.120484 -0.00182336 0)
(-0.119313 -0.00413464 0)
(-0.117459 -0.00645765 0)
(-0.114929 -0.00875687 0)
(-0.111741 -0.0109954 0)
(-0.107919 -0.0131358 0)
(-0.103497 -0.0151407 0)
(-0.0985167 -0.0169735 0)
(-0.0930286 -0.0185997 0)
(-0.0870909 -0.0199872 0)
(-0.0807693 -0.0211076 0)
(-0.0741361 -0.0219373 0)
(-0.0672698 -0.0224578 0)
(-0.0602535 -0.022657 0)
(-0.0531738 -0.0225299 0)
(-0.0461194 -0.0220788 0)
(-0.0391794 -0.0213138 0)
(-0.0324412 -0.0202524 0)
(-0.0259888 -0.0189198 0)
(-0.0199009 -0.0173478 0)
(-0.0142488 -0.0155741 0)
(-0.00909477 -0.0136408 0)
(-0.00449052 -0.0115934 0)
(-0.000475806 -0.00947892 0)
(0.0029224 -0.00734474 0)
(0.00569049 -0.00523676 0)
(0.00782841 -0.00319846 0)
(0.0093495 -0.00126998 0)
(0.01028 0.000512234 0)
(0.0106585 0.00211521 0)
(0.0105347 0.00350871 0)
(0.00996936 0.00466384 0)
(0.00903274 0.00555129 0)
(0.00780463 0.00613955 0)
(0.00637398 0.00639329 0)
(0.00483931 0.00627285 0)
(0.00330753 0.00573548 0)
(0.00189316 0.00473903 0)
(0.000753159 0.00324871 0)
(0.000138075 0.00124851 0)
(7.70846e-06 -0.000485242 0)
(-6.60677e-05 -0.000707838 0)
(-0.000343914 -0.000413077 0)
(-0.000869629 0.000235013 0)
(-0.00167386 0.0011183 0)
(-0.0027763 0.00214919 0)
(-0.00418805 0.00326587 0)
(-0.00591546 0.00442739 0)
(-0.00796241 0.00560856 0)
(-0.0103316 0.00679535 0)
(-0.0130251 0.0079811 0)
(-0.0160443 0.00916335 0)
(-0.0193899 0.0103414 0)
(-0.0230612 0.0115145 0)
(-0.0270554 0.0126805 0)
(-0.0313672 0.0138349 0)
(-0.0359876 0.0149706 0)
(-0.0409037 0.0160773 0)
(-0.0460978 0.0171416 0)
(-0.0515469 0.0181477 0)
(-0.0572223 0.019077 0)
(-0.0630899 0.0199091 0)
(-0.0691094 0.0206222 0)
(-0.0752353 0.021194 0)
(-0.0814168 0.0216019 0)
(-0.087599 0.0218244 0)
(-0.0937229 0.0218412 0)
(-0.099727 0.0216344 0)
(-0.105548 0.0211887 0)
(-0.111123 0.0204923 0)
(-0.116387 0.0195375 0)
(-0.12128 0.0183205 0)
(-0.125742 0.0168423 0)
(-0.129717 0.0151086 0)
(-0.133154 0.01313 0)
(-0.136007 0.0109217 0)
(-0.138235 0.00850365 0)
(-0.139803 0.00590034 0)
(-0.140684 0.00314056 0)
(-0.140855 0.000256885 0)
(-0.140303 -0.00271608 0)
(-0.139019 -0.00573759 0)
(-0.137005 -0.00876622 0)
(-0.134268 -0.0117584 0)
(-0.130825 -0.0146689 0)
(-0.126699 -0.0174519 0)
(-0.121924 -0.0200616 0)
(-0.116539 -0.0224532 0)
(-0.110594 -0.024584 0)
(-0.104145 -0.026414 0)
(-0.0972587 -0.0279074 0)
(-0.0900064 -0.0290339 0)
(-0.082468 -0.0297692 0)
(-0.0747288 -0.0300966 0)
(-0.066879 -0.0300077 0)
(-0.0590118 -0.0295031 0)
(-0.0512225 -0.0285927 0)
(-0.0436058 -0.0272963 0)
(-0.0362543 -0.0256428 0)
(-0.0292559 -0.0236702 0)
(-0.0226923 -0.021424 0)
(-0.0166361 -0.0189561 0)
(-0.0111497 -0.0163234 0)
(-0.00628326 -0.0135856 0)
(-0.00207341 -0.0108034 0)
(0.00145745 -0.0080368 0)
(0.00430173 -0.0053435 0)
(0.00646673 -0.00277758 0)
(0.00797431 -0.000388914 0)
(0.00886034 0.00177679 0)
(0.00917385 0.0036774 0)
(0.00897619 0.00527296 0)
(0.00834011 0.00652388 0)
(0.00734901 0.00738878 0)
(0.0060967 0.0078226 0)
(0.00468776 0.00777534 0)
(0.00323642 0.00719208 0)
(0.00186632 0.00601471 0)
(0.000745599 0.00418533 0)
(0.000136756 0.00164874 0)
(-1.45719e-05 -0.000427277 0)
(-0.000201816 -0.000443309 0)
(-0.000708177 0.000114307 0)
(-0.00154156 0.00105873 0)
(-0.00271342 0.00225769 0)
(-0.00423281 0.00361491 0)
(-0.00610286 0.00506367 0)
(-0.00832457 0.00656063 0)
(-0.0108988 0.00807965 0)
(-0.013827 0.00960636 0)
(-0.0171106 0.0111338 0)
(-0.020751 0.0126587 0)
(-0.0247488 0.0141794 0)
(-0.0291023 0.0156929 0)
(-0.0338074 0.0171943 0)
(-0.0388562 0.0186757 0)
(-0.0442362 0.0201255 0)
(-0.04993 0.0215286 0)
(-0.0559144 0.0228662 0)
(-0.06216 0.0241163 0)
(-0.0686314 0.0252547 0)
(-0.0752869 0.0262548 0)
(-0.082079 0.0270892 0)
(-0.0889546 0.0277302 0)
(-0.0958563 0.0281508 0)
(-0.102722 0.0283256 0)
(-0.109489 0.0282317 0)
(-0.11609 0.0278493 0)
(-0.122459 0.0271626 0)
(-0.128531 0.0261606 0)
(-0.134241 0.0248368 0)
(-0.139528 0.0231903 0)
(-0.144333 0.0212256 0)
(-0.148604 0.0189527 0)
(-0.152291 0.016387 0)
(-0.15535 0.0135492 0)
(-0.157742 0.0104651 0)
(-0.159436 0.00716525 0)
(-0.160405 0.00368447 0)
(-0.16063 6.20012e-05 0)
(-0.160095 -0.00365743 0)
(-0.158791 -0.00742971 0)
(-0.15672 -0.0112056 0)
(-0.153887 -0.0149338 0)
(-0.150306 -0.0185613 0)
(-0.145996 -0.0220343 0)
(-0.140988 -0.0252988 0)
(-0.135317 -0.0283018 0)
(-0.12903 -0.0309921 0)
(-0.122181 -0.0333214 0)
(-0.114831 -0.0352459 0)
(-0.107052 -0.0367276 0)
(-0.0989233 -0.0377352 0)
(-0.0905308 -0.0382461 0)
(-0.0819671 -0.0382471 0)
(-0.0733296 -0.0377354 0)
(-0.0647193 -0.0367199 0)
(-0.056238 -0.0352206 0)
(-0.0479872 -0.0332695 0)
(-0.0400647 -0.0309095 0)
(-0.0325628 -0.0281933 0)
(-0.0255658 -0.0251825 0)
(-0.0191475 -0.0219452 0)
(-0.0133695 -0.0185542 0)
(-0.00827948 -0.0150843 0)
(-0.00390965 -0.0116108 0)
(-0.000276379 -0.00820672 0)
(0.00262033 -0.00494168 0)
(0.00479669 -0.00188069 0)
(0.0062846 0.000916146 0)
(0.0071309 0.00339308 0)
(0.0073964 0.00549753 0)
(0.00715485 0.0071781 0)
(0.00649207 0.0083823 0)
(0.00550554 0.00905412 0)
(0.00430463 0.00913199 0)
(0.00300954 0.00854757 0)
(0.00175095 0.00722564 0)
(0.000703086 0.00508491 0)
(0.00012917 0.00203442 0)
(-3.95536e-05 -0.00029438 0)
(-0.000354142 1.38657e-05 0)
(-0.00111622 0.000926389 0)
(-0.00229164 0.00223913 0)
(-0.00386884 0.00381046 0)
(-0.00584385 0.00553958 0)
(-0.00821013 0.00735843 0)
(-0.0109621 0.00922416 0)
(-0.0140968 0.0111118 0)
(-0.0176135 0.0130079 0)
(-0.0215129 0.014906 0)
(-0.0257959 0.0168024 0)
(-0.0304621 0.0186935 0)
(-0.035509 0.020574 0)
(-0.04093 0.0224352 0)
(-0.0467145 0.0242645 0)
(-0.0528459 0.0260452 0)
(-0.0593019 0.0277562 0)
(-0.0660534 0.0293723 0)
(-0.0730648 0.0308654 0)
(-0.0802939 0.0322045 0)
(-0.0876922 0.0333573 0)
(-0.0952056 0.0342905 0)
(-0.102775 0.0349719 0)
(-0.110337 0.0353704 0)
(-0.117826 0.0354579 0)
(-0.125175 0.0352097 0)
(-0.132315 0.0346056 0)
(-0.139179 0.0336306 0)
(-0.145702 0.0322751 0)
(-0.151821 0.0305355 0)
(-0.157476 0.0284143 0)
(-0.162612 0.0259203 0)
(-0.167178 0.023068 0)
(-0.171129 0.0198778 0)
(-0.174422 0.0163758 0)
(-0.177022 0.0125932 0)
(-0.178898 0.0085661 0)
(-0.180024 0.00433493 0)
(-0.180379 -5.52436e-05 0)
(-0.179948 -0.00455297 0)
(-0.178724 -0.00910897 0)
(-0.176699 -0.0136675 0)
(-0.173878 -0.0181702 0)
(-0.170269 -0.0225573 0)
(-0.165888 -0.0267672 0)
(-0.160757 -0.0307382 0)
(-0.154909 -0.0344088 0)
(-0.148384 -0.0377191 0)
(-0.14123 -0.040612 0)
(-0.133506 -0.0430348 0)
(-0.12528 -0.0449405 0)
(-0.116629 -0.0462898 0)
(-0.107639 -0.0470523 0)
(-0.0984047 -0.0472083 0)
(-0.0890261 -0.0467503 0)
(-0.0796098 -0.0456836 0)
(-0.0702651 -0.0440276 0)
(-0.0611023 -0.0418153 0)
(-0.05223 -0.0390935 0)
(-0.0437523 -0.0359216 0)
(-0.035766 -0.0323699 0)
(-0.0283579 -0.028518 0)
(-0.0216025 -0.0244518 0)
(-0.0155597 -0.0202615 0)
(-0.010273 -0.0160382 0)
(-0.00576901 -0.0118719 0)
(-0.00205618 -0.00784923 0)
(0.00087485 -0.00405201 0)
(0.00305096 -0.000556528 0)
(0.00451578 0.00256618 0)
(0.00532861 0.00524927 0)
(0.00556332 0.00742808 0)
(0.00530731 0.00903762 0)
(0.00466086 0.0100098 0)
(0.00373715 0.0102704 0)
(0.00266102 0.00973709 0)
(0.00156832 0.0083176 0)
(0.000635184 0.00590888 0)
(0.000117426 0.00238988 0)
(-6.69077e-05 -7.86718e-05 0)
(-0.000520572 0.000683558 0)
(-0.00156089 0.00205106 0)
(-0.00310639 0.00380863 0)
(-0.00511922 0.00581084 0)
(-0.00758042 0.00795728 0)
(-0.0104723 0.0101827 0)
(-0.0137816 0.0124481 0)
(-0.017501 0.0147319 0)
(-0.0216271 0.0170233 0)
(-0.0261592 0.019317 0)
(-0.0310972 0.0216088 0)
(-0.0364396 0.0238932 0)
(-0.042182 0.0261615 0)
(-0.0483155 0.0284006 0)
(-0.0548257 0.0305923 0)
(-0.0616919 0.0327136 0)
(-0.0688864 0.0347366 0)
(-0.0763745 0.0366296 0)
(-0.0841144 0.0383573 0)
(-0.0920577 0.0398825 0)
(-0.10015 0.0411667 0)
(-0.108332 0.042172 0)
(-0.116539 0.0428618 0)
(-0.124705 0.0432023 0)
(-0.132761 0.0431636 0)
(-0.140639 0.0427207 0)
(-0.14827 0.0418541 0)
(-0.155589 0.0405504 0)
(-0.162531 0.0388029 0)
(-0.169037 0.0366114 0)
(-0.17505 0.0339825 0)
(-0.180517 0.0309291 0)
(-0.185393 0.0274704 0)
(-0.189633 0.0236318 0)
(-0.193198 0.0194439 0)
(-0.196054 0.0149427 0)
(-0.198172 0.0101692 0)
(-0.199524 0.00516881 0)
(-0.200089 -8.64604e-06 0)
(-0.19985 -0.00530975 0)
(-0.198794 -0.0106767 0)
(-0.196913 -0.0160487 0)
(-0.194204 -0.0213619 0)
(-0.19067 -0.0265498 0)
(-0.186319 -0.0315442 0)
(-0.181169 -0.0362753 0)
(-0.175244 -0.0406735 0)
(-0.168577 -0.0446697 0)
(-0.161211 -0.0481976 0)
(-0.153198 -0.0511943 0)
(-0.144601 -0.0536032 0)
(-0.135495 -0.0553747 0)
(-0.125962 -0.0564694 0)
(-0.116099 -0.056859 0)
(-0.106008 -0.056529 0)
(-0.0958003 -0.0554795 0)
(-0.085592 -0.0537265 0)
(-0.0755029 -0.0513029 0)
(-0.0656528 -0.0482576 0)
(-0.0561587 -0.0446553 0)
(-0.0471313 -0.0405747 0)
(-0.0386721 -0.0361064 0)
(-0.0308701 -0.03135 0)
(-0.0237994 -0.0264114 0)
(-0.0175169 -0.0213991 0)
(-0.0120605 -0.0164214 0)
(-0.00744897 -0.0115836 0)
(-0.00368099 -0.00698618 0)
(-0.000735778 -0.00272348 0)
(0.00142615 0.00111638 0)
(0.00286184 0.00445053 0)
(0.00364465 0.00719951 0)
(0.00386294 0.0092845 0)
(0.0036192 0.0106241 0)
(0.00302963 0.0111311 0)
(0.00222267 0.0107087 0)
(0.00133781 0.00924858 0)
(0.000550238 0.00662875 0)
(0.000103229 0.00270442 0)
(-9.63533e-05 0.000226664 0)
(-0.000698886 0.00158228 0)
(-0.00203565 0.00351095 0)
(-0.00397329 0.00579301 0)
(-0.00644488 0.00828542 0)
(-0.00941487 0.0108938 0)
(-0.0128532 0.0135604 0)
(-0.0167384 0.0162536 0)
(-0.0210577 0.018958 0)
(-0.0258051 0.0216669 0)
(-0.0309779 0.024377 0)
(-0.0365745 0.0270836 0)
(-0.0425919 0.0297791 0)
(-0.0490233 0.0324506 0)
(-0.0558569 0.0350795 0)
(-0.0630744 0.0376415 0)
(-0.0706505 0.0401064 0)
(-0.0785524 0.0424391 0)
(-0.0867397 0.0446006 0)
(-0.095165 0.0465488 0)
(-0.103775 0.0482402 0)
(-0.112509 0.049631 0)
(-0.121305 0.050679 0)
(-0.130095 0.0513447 0)
(-0.138811 0.0515924 0)
(-0.147383 0.0513919 0)
(-0.155744 0.0507188 0)
(-0.163827 0.0495555 0)
(-0.171567 0.0478914 0)
(-0.178905 0.045723 0)
(-0.185784 0.0430541 0)
(-0.192151 0.0398954 0)
(-0.197958 0.0362641 0)
(-0.20316 0.0321837 0)
(-0.207716 0.0276835 0)
(-0.21159 0.0227984 0)
(-0.214749 0.0175681 0)
(-0.217161 0.0120372 0)
(-0.218801 0.00625516 0)
(-0.219644 0.000275283 0)
(-0.21967 -0.00584541 0)
(-0.218862 -0.0120446 0)
(-0.217209 -0.0182568 0)
(-0.214699 -0.0244131 0)
(-0.211331 -0.0304415 0)
(-0.207106 -0.0362668 0)
(-0.202033 -0.0418123 0)
(-0.196128 -0.0469997 0)
(-0.189416 -0.0517512 0)
(-0.181931 -0.0559902 0)
(-0.173718 -0.0596433 0)
(-0.164834 -0.0626426 0)
(-0.155348 -0.0649272 0)
(-0.145339 -0.0664462 0)
(-0.1349 -0.0671611 0)
(-0.124137 -0.0670476 0)
(-0.113163 -0.066098 0)
(-0.102101 -0.064323 0)
(-0.0910796 -0.0617523 0)
(-0.0802306 -0.0584353 0)
(-0.0696846 -0.0544405 0)
(-0.0595676 -0.0498537 0)
(-0.0499977 -0.0447762 0)
(-0.0410807 -0.0393215 0)
(-0.032907 -0.0336118 0)
(-0.0255489 -0.0277743 0)
(-0.0190585 -0.0219371 0)
(-0.0134664 -0.0162263 0)
(-0.0087809 -0.0107631 0)
(-0.00498883 -0.00566194 0)
(-0.00205583 -0.00103011 0)
(7.21547e-05 0.00303164 0)
(0.00146738 0.00642737 0)
(0.00221872 0.00906307 0)
(0.00243043 0.0108431 0)
(0.00222122 0.0116664 0)
(0.00172241 0.0114223 0)
(0.00107621 0.00998783 0)
(0.000455276 0.00722493 0)
(8.79515e-05 0.00297142 0)
(-0.00012764 0.000627332 0)
(-0.000886911 0.0027233 0)
(-0.00253405 0.00532363 0)
(-0.00487997 0.00821151 0)
(-0.00782644 0.0112533 0)
(-0.01132 0.0143668 0)
(-0.0153174 0.0175069 0)
(-0.0197881 0.0206532 0)
(-0.024714 0.0237992 0)
(-0.0300857 0.0269442 0)
(-0.0358982 0.0300872 0)
(-0.0421483 0.0332235 0)
(-0.0488306 0.0363427 0)
(-0.0559358 0.0394272 0)
(-0.0634487 0.0424522 0)
(-0.0713469 0.0453863 0)
(-0.0796004 0.0481918 0)
(-0.0881713 0.0508259 0)
(-0.0970142 0.0532422 0)
(-0.106077 0.0553921 0)
(-0.115301 0.0572262 0)
(-0.124624 0.0586965 0)
(-0.133979 0.0597572 0)
(-0.143298 0.0603671 0)
(-0.152512 0.0604899 0)
(-0.161552 0.0600962 0)
(-0.170354 0.0591635 0)
(-0.178851 0.0576766 0)
(-0.186985 0.0556284 0)
(-0.194698 0.0530193 0)
(-0.201937 0.0498568 0)
(-0.208654 0.0461557 0)
(-0.214803 0.0419372 0)
(-0.220343 0.0372283 0)
(-0.225234 0.0320619 0)
(-0.229443 0.0264759 0)
(-0.232935 0.0205131 0)
(-0.23568 0.014221 0)
(-0.237652 0.00765145 0)
(-0.238823 0.000860781 0)
(-0.23917 -0.00609101 0)
(-0.238674 -0.0131384 0)
(-0.237317 -0.0202125 0)
(-0.235083 -0.0272399 0)
(-0.231963 -0.0341437 0)
(-0.227951 -0.040843 0)
(-0.223047 -0.0472541 0)
(-0.217259 -0.0532912 0)
(-0.210601 -0.0588671 0)
(-0.203099 -0.0638951 0)
(-0.194788 -0.0682906 0)
(-0.185715 -0.0719733 0)
(-0.175941 -0.0748697 0)
(-0.165541 -0.0769157 0)
(-0.154602 -0.0780596 0)
(-0.143228 -0.0782651 0)
(-0.131534 -0.0775137 0)
(-0.119649 -0.0758076 0)
(-0.107708 -0.0731706 0)
(-0.0958557 -0.0696499 0)
(-0.0842357 -0.0653153 0)
(-0.0729912 -0.0602583 0)
(-0.0622585 -0.05459 0)
(-0.0521627 -0.0484374 0)
(-0.0428135 -0.0419398 0)
(-0.0343016 -0.0352443 0)
(-0.0266957 -0.0285008 0)
(-0.0200409 -0.0218584 0)
(-0.0143578 -0.0154612 0)
(-0.00964216 -0.00944645 0)
(-0.00586634 -0.00394296 0)
(-0.00298024 0.000928504 0)
(-0.00091333 0.00505363 0)
(0.000423374 0.00832171 0)
(0.00113559 0.0106219 0)
(0.00134425 0.0118388 0)
(0.00118325 0.0118484 0)
(0.000797199 0.0105142 0)
(0.000355938 0.00768542 0)
(7.26588e-05 0.00318768 0)
(-0.0001604 0.00112786 0)
(-0.00108221 0.00411659 0)
(-0.00304931 0.00750157 0)
(-0.00581375 0.011077 0)
(-0.00924419 0.0147262 0)
(-0.0132683 0.0183858 0)
(-0.0178291 0.022029 0)
(-0.0228868 0.0256507 0)
(-0.0284173 0.0292561 0)
(-0.0344075 0.0328517 0)
(-0.0408503 0.0364402 0)
(-0.0477399 0.0400165 0)
(-0.0550685 0.0435671 0)
(-0.0628239 0.0470691 0)
(-0.0709871 0.0504909 0)
(-0.0795316 0.0537934 0)
(-0.0884228 0.0569308 0)
(-0.0976181 0.0598528 0)
(-0.107068 0.0625058 0)
(-0.116715 0.0648351 0)
(-0.126499 0.0667863 0)
(-0.136353 0.0683079 0)
(-0.146212 0.0693519 0)
(-0.156005 0.0698764 0)
(-0.165666 0.0698459 0)
(-0.175128 0.0692325 0)
(-0.184327 0.0680162 0)
(-0.193203 0.0661854 0)
(-0.201698 0.0637366 0)
(-0.209761 0.0606739 0)
(-0.217342 0.0570088 0)
(-0.224395 0.0527596 0)
(-0.230879 0.047951 0)
(-0.236753 0.0426131 0)
(-0.241982 0.0367816 0)
(-0.246531 0.0304968 0)
(-0.250369 0.0238037 0)
(-0.253465 0.0167518 0)
(-0.255791 0.00939511 0)
(-0.257319 0.00179163 0)
(-0.258025 -0.00599622 0)
(-0.257884 -0.013901 0)
(-0.256876 -0.021851 0)
(-0.254979 -0.0297698 0)
(-0.252179 -0.0375764 0)
(-0.248461 -0.0451852 0)
(-0.243817 -0.0525067 0)
(-0.238245 -0.0594477 0)
(-0.231749 -0.0659128 0)
(-0.224343 -0.0718052 0)
(-0.216049 -0.0770288 0)
(-0.206905 -0.0814905 0)
(-0.19696 -0.0851025 0)
(-0.186279 -0.087786 0)
(-0.174943 -0.0894737 0)
(-0.16305 -0.0901144 0)
(-0.150714 -0.0896755 0)
(-0.138065 -0.0881469 0)
(-0.125246 -0.0855432 0)
(-0.11241 -0.0819055 0)
(-0.0997156 -0.077302 0)
(-0.0873236 -0.0718276 0)
(-0.0753902 -0.0656011 0)
(-0.0640622 -0.0587628 0)
(-0.0534717 -0.0514692 0)
(-0.0437311 -0.0438885 0)
(-0.0349297 -0.0361943 0)
(-0.0271303 -0.028561 0)
(-0.0203686 -0.021159 0)
(-0.0146523 -0.0141509 0)
(-0.00996203 -0.0076901 0)
(-0.00625314 -0.00191992 0)
(-0.00345774 0.0030247 0)
(-0.00148723 0.00701465 0)
(-0.000234665 0.00992265 0)
(0.000423077 0.0116187 0)
(0.000622561 0.0119653 0)
(0.000511093 0.0108142 0)
(0.000256416 0.00800412 0)
(5.81246e-05 0.00335257 0)
(-0.000194208 0.00173155 0)
(-0.00128212 0.00576868 0)
(-0.00357421 0.0100521 0)
(-0.00676138 0.0143958 0)
(-0.0106779 0.0187084 0)
(-0.015232 0.0229527 0)
(-0.0203527 0.0271255 0)
(-0.0259903 0.0312416 0)
(-0.0321151 0.0353204 0)
(-0.0387101 0.0393777 0)
(-0.0457652 0.0434199 0)
(-0.0532722 0.0474421 0)
(-0.0612205 0.0514271 0)
(-0.0695945 0.055346 0)
(-0.0783715 0.05916 0)
(-0.0875207 0.0628219 0)
(-0.0970032 0.0662779 0)
(-0.106772 0.0694701 0)
(-0.116774 0.0723382 0)
(-0.12695 0.0748221 0)
(-0.137235 0.0768636 0)
(-0.147563 0.0784083 0)
(-0.157867 0.0794075 0)
(-0.168079 0.0798195 0)
(-0.178133 0.0796105 0)
(-0.187966 0.0787549 0)
(-0.197516 0.0772361 0)
(-0.206728 0.075046 0)
(-0.215548 0.0721849 0)
(-0.223926 0.0686606 0)
(-0.231817 0.0644882 0)
(-0.239178 0.0596895 0)
(-0.245971 0.0542919 0)
(-0.252157 0.0483283 0)
(-0.257704 0.0418366 0)
(-0.262578 0.0348592 0)
(-0.26675 0.0274427 0)
(-0.270189 0.0196383 0)
(-0.272869 0.0115009 0)
(-0.274761 0.00308999 0)
(-0.27584 -0.00553071 0)
(-0.27608 -0.0142927 0)
(-0.275457 -0.0231225 0)
(-0.273946 -0.031942 0)
(-0.271526 -0.0406674 0)
(-0.268177 -0.0492098 0)
(-0.263881 -0.057475 0)
(-0.258626 -0.0653641 0)
(-0.252405 -0.0727741 0)
(-0.245218 -0.079599 0)
(-0.237075 -0.0857316 0)
(-0.227998 -0.0910657 0)
(-0.218024 -0.0954986 0)
(-0.207203 -0.0989349 0)
(-0.195606 -0.10129 0)
(-0.183321 -0.102494 0)
(-0.170457 -0.102498 0)
(-0.157142 -0.101274 0)
(-0.143521 -0.0988242 0)
(-0.129756 -0.0951782 0)
(-0.116018 -0.0903989 0)
(-0.102485 -0.0845806 0)
(-0.089334 -0.0778479 0)
(-0.0767369 -0.0703521 0)
(-0.064851 -0.0622671 0)
(-0.0538145 -0.0537825 0)
(-0.0437412 -0.0450979 0)
(-0.0347163 -0.0364159 0)
(-0.0267946 -0.0279361 0)
(-0.0199987 -0.0198504 0)
(-0.0143208 -0.0123399 0)
(-0.0097234 -0.00557411 0)
(-0.00614268 0.00028888 0)
(-0.00349116 0.00509934 0)
(-0.00166091 0.00871209 0)
(-0.0005265 0.0109817 0)
(5.17371e-05 0.0117575 0)
(0.000224668 0.01088 0)
(0.000159445 0.00817918 0)
(4.48363e-05 0.0034673 0)
(-0.000228571 0.00244024 0)
(-0.00148371 0.00768237 0)
(-0.00410106 0.012977 0)
(-0.00770903 0.0181678 0)
(-0.0121068 0.0231971 0)
(-0.0171829 0.0280614 0)
(-0.022852 0.0327872 0)
(-0.029055 0.0374131 0)
(-0.0357558 0.041976 0)
(-0.0429337 0.046502 0)
(-0.0505754 0.0510024 0)
(-0.0586699 0.055472 0)
(-0.0672035 0.0598895 0)
(-0.0761572 0.06422 0)