/*--------------------------------*- C++ -*----------------------------------*\
  =========                 |
  \\      /  F ield         | OpenFOAM: The Open Source CFD Toolbox
   \\    /   O peration     | Website:  https://openfoam.org
    \\  /    A nd           | Version:  7
     \\/     M anipulation  |
\*---------------------------------------------------------------------------*/
FoamFile
{
    version     2.0;
    format      ascii;
    class       surfaceScalarField;
    location    "0.875";
    object      phi;
}
// * * * * * * * * * * * * * * * * * * * * * * * * * * * * * * * * * * * * * //

dimensions      [0 3 -1 0 0 0 0];

internalField   nonuniform List<scalar> 
12640
(
2.68048e-10
-2.68007e-10
5.75993e-10
-3.07914e-10
6.58268e-10
-8.22903e-11
4.17829e-10
2.40443e-10
-1.50484e-10
5.6829e-10
-1.01989e-09
8.69418e-10
-2.14801e-09
1.12812e-09
-3.48839e-09
1.34039e-09
-4.99733e-09
1.50893e-09
-6.63663e-09
1.63928e-09
-8.37455e-09
1.73792e-09
-1.01859e-08
1.81134e-09
-1.20514e-08
1.86549e-09
-1.39568e-08
1.90547e-09
-1.58922e-08
1.93536e-09
-1.78505e-08
1.95827e-09
-1.98269e-08
1.97641e-09
-2.1818e-08
1.9911e-09
-2.38209e-08
2.00295e-09
-2.58329e-08
2.01195e-09
-2.78504e-08
2.01757e-09
-2.98693e-08
2.01885e-09
-3.18837e-08
2.01447e-09
-3.38866e-08
2.00288e-09
-3.58689e-08
1.98231e-09
-3.78197e-08
1.95083e-09
-3.97262e-08
1.90641e-09
-4.15732e-08
1.84699e-09
-4.33436e-08
1.77049e-09
-4.50186e-08
1.67491e-09
-4.6577e-08
1.55839e-09
-4.79962e-08
1.41928e-09
-4.92525e-08
1.25623e-09
-5.03208e-08
1.06828e-09
-5.11757e-08
8.5492e-10
-5.17919e-08
6.16223e-10
-5.21448e-08
3.52926e-10
-5.22113e-08
6.64899e-11
-5.19702e-08
-2.41139e-10
-5.14035e-08
-5.66728e-10
-5.0497e-08
-9.06472e-10
-4.92412e-08
-1.25577e-09
-4.76319e-08
-1.60926e-09
-4.5671e-08
-1.96091e-09
-4.33669e-08
-2.30415e-09
-4.07348e-08
-2.63205e-09
-3.77973e-08
-2.93748e-09
-3.4584e-08
-3.21338e-09
-3.1131e-08
-3.45292e-09
-2.74812e-08
-3.64982e-09
-2.36827e-08
-3.79854e-09
-1.97881e-08
-3.89455e-09
-1.58536e-08
-3.9345e-09
-1.19373e-08
-3.91637e-09
-8.09766e-09
-3.8396e-09
-4.3925e-09
-3.70517e-09
-8.76981e-10
-3.51552e-09
2.39759e-09
-3.27457e-09
5.385e-09
-2.9874e-09
8.04529e-09
-2.6603e-09
1.03456e-08
-2.30034e-09
1.22609e-08
-1.91529e-09
1.37741e-08
-1.51316e-09
1.48762e-08
-1.10209e-09
1.55662e-08
-6.90062e-10
1.5851e-08
-2.84768e-10
1.57445e-08
1.06511e-10
1.52677e-08
4.7686e-10
1.4448e-08
8.19666e-10
1.33197e-08
1.12832e-09
1.19239e-08
1.39581e-09
1.03097e-08
1.61413e-09
8.53627e-09
1.77349e-09
6.67508e-09
1.8612e-09
4.8146e-09
1.8605e-09
3.06491e-09
1.74969e-09
1.56181e-09
1.50311e-09
4.67217e-10
1.09459e-09
-5.20516e-11
5.19274e-10
-5.20568e-11
3.10199e-10
-5.78181e-10
4.39596e-10
-4.37375e-10
8.29319e-13
3.56488e-10
-1.16228e-09
1.40352e-09
-3.09742e-09
2.50342e-09
-5.76216e-09
3.53412e-09
-9.07458e-09
4.44052e-09
-1.29379e-08
5.20367e-09
-1.72543e-08
5.82532e-09
-2.19334e-08
6.3184e-09
-2.68965e-08
6.701e-09
-3.20779e-08
6.99273e-09
-3.74248e-08
7.21241e-09
-4.2896e-08
7.37664e-09
-4.84599e-08
7.49925e-09
-5.40926e-08
7.59101e-09
-5.97758e-08
7.65968e-09
-6.5495e-08
7.71022e-09
-7.12371e-08
7.74507e-09
-7.69897e-08
7.7645e-09
-8.2739e-08
7.76693e-09
-8.84694e-08
7.74924e-09
-9.41621e-08
7.70713e-09
-9.97945e-08
7.63528e-09
-1.0534e-07
7.52765e-09
-1.10767e-07
7.37763e-09
-1.16038e-07
7.1783e-09
-1.21114e-07
6.92259e-09
-1.25947e-07
6.60348e-09
-1.30486e-07
6.21427e-09
-1.34677e-07
5.74881e-09
-1.38459e-07
5.20179e-09
-1.41772e-07
4.569e-09
-1.44552e-07
3.84765e-09
-1.46733e-07
3.03668e-09
-1.48254e-07
2.13705e-09
-1.49053e-07
1.15198e-09
-1.49075e-07
8.78564e-11
-1.48267e-07
-1.04879e-09
-1.46589e-07
-2.24499e-09
-1.44008e-07
-3.48734e-09
-1.40504e-07
-4.75925e-09
-1.36072e-07
-6.04165e-09
-1.30719e-07
-7.31333e-09
-1.24472e-07
-8.55136e-09
-1.17373e-07
-9.73169e-09
-1.0948e-07
-1.08297e-08
-1.00873e-07
-1.18212e-08
-9.16427e-08
-1.26827e-08
-8.18998e-08
-1.33927e-08
-7.17659e-08
-1.39324e-08
-6.13744e-08
-1.42861e-08
-5.08665e-08
-1.44423e-08
-4.0389e-08
-1.43939e-08
-3.00898e-08
-1.41387e-08
-2.01154e-08
-1.36796e-08
-1.06065e-08
-1.30245e-08
-1.69492e-09
-1.21861e-08
6.49947e-09
-1.11818e-08
1.38715e-08
-1.00323e-08
2.03331e-08
-8.76195e-09
2.5815e-08
-7.39718e-09
3.02677e-08
-5.96589e-09
3.36623e-08
-4.49668e-09
3.59904e-08
-3.01808e-09
3.72636e-08
-1.55805e-09
3.75138e-08
-1.43596e-10
3.67914e-08
1.19919e-09
3.51662e-08
2.44485e-09
3.27267e-08
3.5678e-09
2.95813e-08
4.54121e-09
2.58601e-08
5.33543e-09
2.17175e-08
5.91605e-09
1.73369e-08
6.2418e-09
1.29345e-08
6.26295e-09
8.76225e-09
5.92192e-09
5.10533e-09
5.16003e-09
2.26559e-09
3.93434e-09
5.16471e-10
2.26839e-09
4.64413e-10
8.92069e-11
-6.67402e-10
-3.66582e-10
1.83986e-11
-1.7242e-09
1.71407e-09
-4.15598e-09
3.83531e-09
-7.68893e-09
6.03638e-09
-1.22695e-08
8.11475e-09
-1.77931e-08
9.96409e-09
-2.41316e-08
1.15421e-08
-3.11521e-08
1.28459e-08
-3.87287e-08
1.3895e-08
-4.67486e-08
1.47209e-08
-5.51152e-08
1.53593e-08
-6.37483e-08
1.58455e-08
-7.25833e-08
1.62116e-08
-8.15687e-08
1.64847e-08
-9.06639e-08
1.66861e-08
-9.98359e-08
1.68317e-08
-1.09057e-07
1.69316e-08
-1.18303e-07
1.69911e-08
-1.2755e-07
1.70111e-08
-1.36772e-07
1.69887e-08
-1.4594e-07
1.69179e-08
-1.55023e-07
1.67902e-08
-1.63983e-07
1.6595e-08
-1.72776e-07
1.63202e-08
-1.81351e-07
1.59527e-08
-1.89651e-07
1.54785e-08
-1.97612e-07
1.48834e-08
-2.05162e-07
1.41537e-08
-2.12224e-07
1.32759e-08
-2.18713e-07
1.22381e-08
-2.24541e-07
1.10301e-08
-2.29616e-07
9.64413e-09
-2.33844e-07
8.07533e-09
-2.3713e-07
6.3225e-09
-2.39381e-07
4.38859e-09
-2.4051e-07
2.28115e-09
-2.40437e-07
1.48417e-11
-2.39089e-07
-2.39723e-09
-2.36408e-07
-4.92641e-09
-2.3235e-07
-7.54536e-09
-2.26889e-07
-1.02196e-08
-2.20021e-07
-1.29097e-08
-2.11762e-07
-1.55725e-08
-2.02152e-07
-1.81613e-08
-1.91256e-07
-2.06274e-08
-1.79165e-07
-2.2921e-08
-1.65993e-07
-2.49933e-08
-1.51878e-07
-2.67972e-08
-1.36981e-07
-2.82895e-08
-1.21482e-07
-2.94321e-08
-1.05574e-07
-3.01934e-08
-8.94671e-08
-3.05497e-08
-7.33745e-08
-3.04864e-08
-5.75149e-08
-2.99984e-08
-4.2104e-08
-2.90905e-08
-2.73508e-08
-2.77777e-08
-1.34523e-08
-2.60846e-08
-5.89153e-10
-2.40449e-08
1.10788e-08
-2.17003e-08
2.1415e-08
-1.90982e-08
3.03103e-08
-1.62924e-08
3.76837e-08
-1.33393e-08
4.34846e-08
-1.02975e-08
4.76925e-08
-7.22603e-09
5.03179e-08
-4.18338e-09
5.14012e-08
-1.22686e-09
5.10127e-08
1.58764e-09
4.92524e-08
4.20518e-09
4.62496e-08
6.57056e-09
4.21643e-08
8.62656e-09
3.71883e-08
1.03115e-08
3.1548e-08
1.15564e-08
2.55072e-08
1.22826e-08
1.93693e-08
1.24008e-08
1.34772e-08
1.1814e-08
8.207e-09
1.04302e-08
3.95206e-09
8.18929e-09
1.09559e-09
5.12485e-09
1.56e-09
-2.55475e-10
-4.11907e-10
-1.51517e-09
1.27804e-09
-4.05704e-09
4.25596e-09
-7.98802e-09
7.76626e-09
-1.33047e-08
1.1353e-08
-1.99251e-08
1.47352e-08
-2.77197e-08
1.77586e-08
-3.65351e-08
2.03575e-08
-4.62127e-08
2.25235e-08
-5.66008e-08
2.42831e-08
-6.75618e-08
2.56819e-08
-7.89757e-08
2.67732e-08
-9.07411e-08
2.76109e-08
-1.02774e-07
2.82446e-08
-1.15006e-07
2.87167e-08
-1.27381e-07
2.90612e-08
-1.39853e-07
2.93032e-08
-1.5238e-07
2.94595e-08
-1.64928e-07
2.95387e-08
-1.77459e-07
2.95425e-08
-1.89937e-07
2.94666e-08
-2.02321e-07
2.93017e-08
-2.14565e-07
2.90342e-08
-2.26617e-07
2.86472e-08
-2.38419e-07
2.81213e-08
-2.49901e-07
2.74352e-08
-2.60989e-07
2.65665e-08
-2.71598e-07
2.54927e-08
-2.81636e-07
2.41913e-08
-2.91001e-07
2.26413e-08
-2.99587e-07
2.08238e-08
-3.0728e-07
1.8723e-08
-3.13963e-07
1.63271e-08
-3.19517e-07
1.36292e-08
-3.23823e-07
1.06286e-08
-3.26766e-07
7.33131e-09
-3.28236e-07
3.75129e-09
-3.28132e-07
-8.86105e-11
-3.26369e-07
-4.16036e-09
-3.22874e-07
-8.42151e-09
-3.17595e-07
-1.28244e-08
-3.10502e-07
-1.73122e-08
-3.01592e-07
-2.18205e-08
-2.90886e-07
-2.62785e-08
-2.78437e-07
-3.06102e-08
-2.64328e-07
-3.47364e-08
-2.48672e-07
-3.85768e-08
-2.31613e-07
-4.20518e-08
-2.13325e-07
-4.50855e-08
-1.94007e-07
-4.76075e-08
-1.73883e-07
-4.9556e-08
-1.53197e-07
-5.08793e-08
-1.32209e-07
-5.15383e-08
-1.11187e-07
-5.15081e-08
-9.04068e-08
-5.07788e-08
-7.01405e-08
-4.93567e-08
-5.06539e-08
-4.72643e-08
-3.21989e-08
-4.45396e-08
-1.50086e-08
-4.12352e-08
7.07979e-10
-3.74169e-08
1.47715e-08
-3.31617e-08
2.70338e-08
-2.85547e-08
3.73827e-08
-2.36882e-08
4.57437e-08
-1.86585e-08
5.20807e-08
-1.35631e-08
5.6397e-08
-8.49964e-09
5.87348e-08
-3.56467e-09
5.91754e-08
1.14705e-09
5.78386e-08
5.54194e-09
5.48829e-08
9.5263e-09
5.05055e-08
1.3004e-08
4.49435e-08
1.58735e-08
3.84752e-08
1.80246e-08
3.14217e-08
1.93361e-08
2.41474e-08
1.96751e-08
1.7059e-08
1.89024e-08
1.06017e-08
1.68875e-08
5.25343e-09
1.35376e-08
1.52341e-09
8.85487e-09
3.08343e-09
-6.42894e-10
2.30975e-10
-2.83747e-09
3.47262e-09
-6.71947e-09
8.13795e-09
-1.23114e-08
1.33582e-08
-1.95507e-08
1.85923e-08
-2.8314e-08
2.34986e-08
-3.84403e-08
2.7885e-08
-4.97509e-08
3.16681e-08
-6.20649e-08
3.48374e-08
-7.52098e-08
3.74281e-08
-8.90292e-08
3.95013e-08
-1.03385e-07
4.11293e-08
-1.1816e-07
4.23859e-08
-1.33255e-07
4.33394e-08
-1.48587e-07
4.4049e-08
-1.64088e-07
4.45621e-08
-1.79699e-07
4.49143e-08
-1.95369e-07
4.51292e-08
-2.1105e-07
4.52195e-08
-2.26695e-07
4.51878e-08
-2.42257e-07
4.50282e-08
-2.57683e-07
4.47276e-08
-2.72915e-07
4.42669e-08
-2.8789e-07
4.36219e-08
-3.02534e-07
4.2765e-08
-3.16765e-07
4.16658e-08
-3.3049e-07
4.02923e-08
-3.4361e-07
3.8612e-08
-3.56012e-07
3.65932e-08
-3.67576e-07
3.4206e-08
-3.78176e-07
3.14236e-08
-3.87677e-07
2.82239e-08
-3.9594e-07
2.45908e-08
-4.02827e-07
2.05155e-08
-4.08196e-07
1.59982e-08
-4.11914e-07
1.10488e-08
-4.13851e-07
5.68862e-09
-4.13892e-07
-4.79963e-11
-4.11933e-07
-6.11884e-09
-4.07893e-07
-1.2462e-08
-4.01709e-07
-1.90077e-08
-3.93349e-07
-2.56731e-08
-3.82804e-07
-3.23649e-08
-3.70102e-07
-3.89803e-08
-3.55303e-07
-4.54099e-08
-3.385e-07
-5.15393e-08
-3.19824e-07
-5.72526e-08
-2.99441e-07
-6.24353e-08
-2.77548e-07
-6.69776e-08
-2.54378e-07
-7.07778e-08
-2.30189e-07
-7.37456e-08
-2.05262e-07
-7.58054e-08
-1.79901e-07
-7.68993e-08
-1.54421e-07
-7.69888e-08
-1.29142e-07
-7.60575e-08
-1.04387e-07
-7.41114e-08
-8.0472e-08
-7.11796e-08
-5.76977e-08
-6.73139e-08
-3.63455e-08
-6.25874e-08
-1.66701e-08
-5.70923e-08
1.10587e-09
-5.09376e-08
1.67974e-08
-4.42462e-08
3.02586e-08
-3.71495e-08
4.13891e-08
-2.9789e-08
5.01329e-08
-2.23069e-08
5.64809e-08
-1.48477e-08
6.04711e-08
-7.5549e-09
6.21884e-08
-5.70162e-10
6.17639e-08
5.96642e-09
5.93752e-08
1.1915e-08
5.52458e-08
1.71334e-08
4.96452e-08
2.14741e-08
4.28896e-08
2.47802e-08
3.53422e-08
2.68836e-08
2.74134e-08
2.7604e-08
1.9561e-08
2.67548e-08
1.22915e-08
2.4157e-08
6.16442e-09
1.96647e-08
1.81027e-09
1.3209e-08
4.8937e-09
-1.04628e-09
1.27726e-09
-4.23527e-09
6.66158e-09
-9.54888e-09
1.34516e-08
-1.69032e-08
2.07125e-08
-2.61599e-08
2.7849e-08
-3.71418e-08
3.44805e-08
-4.96493e-08
4.03924e-08
-6.34747e-08
4.54936e-08
-7.84149e-08
4.97776e-08
-9.42793e-08
5.32925e-08
-1.10896e-07
5.61175e-08
-1.28112e-07
5.83459e-08
-1.45799e-07
6.00726e-08
-1.63845e-07
6.13857e-08
-1.82158e-07
6.23616e-08
-2.00658e-07
6.30623e-08
-2.19278e-07
6.35341e-08
-2.37957e-07
6.3808e-08
-2.56638e-07
6.39006e-08
-2.75266e-07
6.38157e-08
-2.93783e-07
6.35458e-08
-3.12129e-07
6.30734e-08
-3.30236e-07
6.23735e-08
-3.48028e-07
6.1414e-08
-3.65421e-07
6.01583e-08
-3.82321e-07
5.85657e-08
-3.98623e-07
5.65938e-08
-4.1421e-07
5.41992e-08
-4.28956e-07
5.13395e-08
-4.42725e-07
4.79748e-08
-4.55371e-07
4.40698e-08
-4.66743e-07
3.95953e-08
-4.76682e-07
3.45302e-08
-4.8503e-07
2.88636e-08
-4.91628e-07
2.25963e-08
-4.96322e-07
1.57429e-08
-4.98966e-07
8.33255e-09
-4.99427e-07
4.13048e-10
-4.97587e-07
-7.95955e-09
-4.93349e-07
-1.67001e-08
-4.86641e-07
-2.57152e-08
-4.77421e-07
-3.48933e-08
-4.65677e-07
-4.41089e-08
-4.51433e-07
-5.32244e-08
-4.3475e-07
-6.20926e-08
-4.15729e-07
-7.05605e-08
-3.94509e-07
-7.84723e-08
-3.7127e-07
-8.56741e-08
-3.4623e-07
-9.20177e-08
-3.19643e-07
-9.73654e-08
-2.91794e-07
-1.01594e-07
-2.62999e-07
-1.046e-07
-2.33596e-07
-1.06303e-07
-2.03939e-07
-1.06646e-07
-1.74394e-07
-1.05603e-07
-1.45327e-07
-1.03178e-07
-1.17102e-07
-9.94048e-08
-9.00677e-08
-9.43485e-08
-6.45525e-08
-8.81025e-08
-4.08576e-08
-8.07872e-08
-1.92492e-08
-7.2546e-08
4.64863e-11
-6.35419e-08
1.68507e-08
-5.39537e-08
3.10304e-08
-4.39686e-08
4.25062e-08
-3.37826e-08
5.12518e-08
-2.35933e-08
5.72952e-08
-1.35983e-08
6.07185e-08
-3.99346e-09
6.16576e-08
5.02736e-09
6.03014e-08
1.32712e-08
5.68913e-08
2.05435e-08
5.17206e-08
2.66448e-08
4.51338e-08
3.13669e-08
3.75276e-08
3.44898e-08
2.93505e-08
3.5781e-08
2.11058e-08
3.49995e-08
1.33566e-08
3.19062e-08
6.73828e-09
2.62831e-08
1.98521e-09
1.79621e-08
6.87891e-09
-1.45156e-09
2.72881e-09
-5.65877e-09
1.08688e-08
-1.24496e-08
2.02425e-08
-2.16234e-08
2.98863e-08
-3.2955e-08
3.91805e-08
-4.62039e-08
4.77294e-08
-6.1125e-08
5.53135e-08
-7.74781e-08
6.18466e-08
-9.50359e-08
6.73354e-08
-1.1359e-07
7.18467e-08
-1.32955e-07
7.5482e-08
-1.52967e-07
7.8358e-08
-1.73487e-07
8.05924e-08
-1.94395e-07
8.22944e-08
-2.15592e-07
8.35585e-08
-2.36991e-07
8.44615e-08
-2.58518e-07
8.50608e-08
-2.80105e-07
8.53951e-08
-3.0169e-07
8.54853e-08
-3.2321e-07
8.53359e-08
-3.44602e-07
8.49377e-08
-3.65798e-07
8.42689e-08
-3.86722e-07
8.32977e-08
-4.07292e-07
8.19838e-08
-4.27414e-07
8.02805e-08
-4.46984e-07
7.81362e-08
-4.65887e-07
7.54965e-08
-4.83994e-07
7.23062e-08
-5.01166e-07
6.85109e-08
-5.1725e-07
6.40595e-08
-5.32087e-07
5.89068e-08
-5.45507e-07
5.30152e-08
-5.57335e-07
4.63579e-08
-5.67392e-07
3.89208e-08
-5.75501e-07
3.07052e-08
-5.81487e-07
2.17296e-08
-5.85187e-07
1.20318e-08
-5.86444e-07
1.67045e-09
-5.85126e-07
-9.27713e-09
-5.81118e-07
-2.07081e-08
-5.74333e-07
-3.2501e-08
-5.64712e-07
-4.45138e-08
-5.52234e-07
-5.65866e-08
-5.36915e-07
-6.85438e-08
-5.1881e-07
-8.01976e-08
-4.98018e-07
-9.13523e-08
-4.74682e-07
-1.01808e-07
-4.48989e-07
-1.11368e-07
-4.21167e-07
-1.19839e-07
-3.91489e-07
-1.27043e-07
-3.60263e-07
-1.3282e-07
-3.27831e-07
-1.37032e-07
-2.94564e-07
-1.3957e-07
-2.60854e-07
-1.40356e-07
-2.27107e-07
-1.3935e-07
-1.93736e-07
-1.36549e-07
-1.6115e-07
-1.3199e-07
-1.2975e-07
-1.25749e-07
-9.99127e-08
-1.1794e-07
-7.19896e-08
-1.0871e-07
-4.62941e-08
-9.82415e-08
-2.30966e-08
-8.67395e-08
-2.61843e-09
-7.44319e-08
1.49743e-08
-6.15614e-08
2.95725e-08
-4.83809e-08
4.11275e-08
-3.51483e-08
4.96517e-08
-2.21225e-08
5.5219e-08
-9.56076e-09
5.79643e-08
2.28206e-09
5.80823e-08
1.31531e-08
5.58266e-08
2.27992e-08
5.15082e-08
3.09632e-08
4.54951e-08
3.738e-08
3.82122e-08
4.17727e-08
3.01428e-08
4.38505e-08
2.18322e-08
4.33101e-08
1.38964e-08
3.9842e-08
7.03811e-09
3.31414e-08
2.07527e-09
2.29249e-08
8.95417e-09
-1.85254e-09
4.58136e-09
-7.08252e-09
1.60988e-08
-1.53674e-08
2.85273e-08
-2.63861e-08
4.0905e-08
-3.98205e-08
5.26149e-08
-5.53605e-08
6.32695e-08
-7.27103e-08
7.26633e-08
-9.15932e-08
8.07295e-08
-1.11756e-07
8.74984e-08
-1.32973e-07
9.30634e-08
-1.55044e-07
9.75533e-08
-1.77798e-07
1.01112e-07
-2.01088e-07
1.03882e-07
-2.24788e-07
1.05995e-07
-2.48795e-07
1.07565e-07
-2.73018e-07
1.08684e-07
-2.97378e-07
1.09421e-07
-3.21805e-07
1.09823e-07
-3.46234e-07
1.09913e-07
-3.70597e-07
1.097e-07
-3.94829e-07
1.09169e-07
-4.18857e-07
1.08297e-07
-4.42602e-07
1.07043e-07
-4.65975e-07
1.05357e-07
-4.88878e-07
1.03184e-07
-5.112e-07
1.00458e-07
-5.32816e-07
9.71121e-08
-5.53587e-07
9.30777e-08
-5.73363e-07
8.82868e-08
-5.91979e-07
8.26754e-08
-6.09259e-07
7.61864e-08
-6.25016e-07
6.87725e-08
-6.39057e-07
6.03991e-08
-6.51184e-07
5.10478e-08
-6.61198e-07
4.07188e-08
-6.68902e-07
2.94338e-08
-6.74108e-07
1.7238e-08
-6.7664e-07
4.20197e-09
-6.76338e-07
-9.57843e-09
-6.73067e-07
-2.39796e-08
-6.66716e-07
-3.88522e-08
-6.57207e-07
-5.40223e-08
-6.445e-07
-6.92935e-08
-6.28594e-07
-8.44496e-08
-6.09533e-07
-9.92593e-08
-5.87405e-07
-1.1348e-07
-5.62349e-07
-1.26864e-07
-5.34552e-07
-1.39165e-07
-5.0425e-07
-1.50141e-07
-4.71724e-07
-1.59569e-07
-4.37303e-07
-1.67242e-07
-4.01352e-07
-1.72983e-07
-3.64272e-07
-1.76649e-07
-3.26494e-07
-1.78134e-07
-2.88465e-07
-1.77379e-07
-2.50645e-07
-1.74369e-07
-2.13496e-07
-1.69139e-07
-1.7747e-07
-1.61775e-07
-1.43002e-07
-1.52407e-07
-1.10498e-07
-1.41214e-07
-8.03261e-08
-1.28414e-07
-5.28073e-08
-1.14258e-07
-2.82101e-08
-9.9029e-08
-6.74302e-09
-8.30285e-08
1.14496e-08
-6.65735e-08
2.62906e-08
-4.99892e-08
3.77713e-08
-3.36032e-08
4.59525e-08
-1.77419e-08
5.09631e-08
-2.72861e-09
5.29996e-08
1.11167e-08
5.23236e-08
2.34752e-08
4.92609e-08
3.4026e-08
4.41999e-08
4.2441e-08
3.7592e-08
4.83806e-08
2.99531e-08
5.14893e-08
2.18689e-08
5.13943e-08
1.40046e-08
4.77063e-08
7.1213e-09
4.00247e-08
2.10239e-09
2.79439e-08
1.10566e-08
-2.24719e-09
6.82855e-09
-8.49377e-09
2.23453e-08
-1.82715e-08
3.83051e-08
-3.11386e-08
5.37722e-08
-4.66815e-08
6.81577e-08
-6.45166e-08
8.11047e-08
-8.42939e-08
9.24405e-08
-1.05697e-07
1.02133e-07
-1.28447e-07
1.10248e-07
-1.52298e-07
1.16914e-07
-1.77039e-07
1.22294e-07
-2.02489e-07
1.26562e-07
-2.28497e-07
1.2989e-07
-2.54936e-07
1.32434e-07
-2.81698e-07
1.34327e-07
-3.08692e-07
1.35679e-07
-3.35841e-07
1.36569e-07
-3.63072e-07
1.37054e-07
-3.9032e-07
1.37162e-07
-4.1752e-07
1.369e-07
-4.44605e-07
1.36254e-07
-4.71501e-07
1.35193e-07
-4.98129e-07
1.3367e-07
-5.24398e-07
1.31627e-07
-5.50207e-07
1.28992e-07
-5.75438e-07
1.2569e-07
-5.99963e-07
1.21637e-07
-6.23634e-07
1.16749e-07
-6.46289e-07
1.10942e-07
-6.67752e-07
1.04138e-07
-6.87829e-07
9.62644e-08
-7.06319e-07
8.72621e-08
-7.23007e-07
7.70867e-08
-7.37672e-07
6.57127e-08
-7.5009e-07
5.31374e-08
-7.6004e-07
3.93837e-08
-7.67305e-07
2.45027e-08
-7.71679e-07
8.57606e-09
-7.72974e-07
-8.28349e-09
-7.71023e-07
-2.5931e-08
-7.65686e-07
-4.41891e-08
-7.56857e-07
-6.28511e-08
-7.44468e-07
-8.16823e-08
-7.28494e-07
-1.00424e-07
-7.08956e-07
-1.18797e-07
-6.85927e-07
-1.36509e-07
-6.59533e-07
-1.53259e-07
-6.29953e-07
-1.68745e-07
-5.97422e-07
-1.82672e-07
-5.62231e-07
-1.9476e-07
-5.24719e-07
-2.04753e-07
-4.85277e-07
-2.12426e-07
-4.44334e-07
-2.17591e-07
-4.02358e-07
-2.2011e-07
-3.59843e-07
-2.19894e-07
-3.17299e-07
-2.16912e-07
-2.75246e-07
-2.11193e-07
-2.34196e-07
-2.02824e-07
-1.94648e-07
-1.91955e-07
-1.57072e-07
-1.78791e-07
-1.21898e-07
-1.63587e-07
-8.95097e-08
-1.46647e-07
-6.02309e-08
-1.28308e-07
-3.43205e-08
-1.08939e-07
-1.19666e-08
-8.89275e-08
6.71807e-09
-6.86739e-08
2.16978e-08
-4.85829e-08
3.30146e-08
-2.90587e-08
4.07876e-08
-1.05015e-08
4.5211e-08
6.69323e-09
4.65524e-08
2.21338e-08
4.51504e-08
3.5428e-08
4.1413e-08
4.61784e-08
3.58175e-08
5.39762e-08
2.89124e-08
5.83945e-08
2.13225e-08
5.89842e-08
1.37588e-08
5.527e-08
7.03365e-09
4.67499e-08
2.08279e-09
3.28947e-08
1.31394e-08
-2.63498e-09
9.46352e-09
-9.88615e-09
2.95965e-08
-2.11442e-08
4.95631e-08
-3.58484e-08
6.84763e-08
-5.34887e-08
8.5798e-08
-7.36069e-08
1.01223e-07
-9.57966e-08
1.1463e-07
-1.19701e-07
1.26038e-07
-1.45013e-07
1.3556e-07
-1.71467e-07
1.43369e-07
-1.98842e-07
1.49668e-07
-2.26949e-07
1.5467e-07
-2.55636e-07
1.58576e-07
-2.84773e-07
1.61571e-07
-3.14254e-07
1.63809e-07
-3.43992e-07
1.65416e-07
-3.7391e-07
1.66487e-07
-4.03941e-07
1.67085e-07
-4.34023e-07
1.67244e-07
-4.64094e-07
1.66971e-07
-4.94091e-07
1.66251e-07
-5.23944e-07
1.65046e-07
-5.53576e-07
1.63302e-07
-5.82897e-07
1.60948e-07
-6.11805e-07
1.579e-07
-6.40182e-07
1.54067e-07
-6.67893e-07
1.49348e-07
-6.94785e-07
1.4364e-07
-7.20685e-07
1.36842e-07
-7.45403e-07
1.28856e-07
-7.68732e-07
1.19593e-07
-7.90448e-07
1.08978e-07
-8.10314e-07
9.69528e-08
-8.28084e-07
8.34827e-08
-8.43505e-07
6.85587e-08
-8.56324e-07
5.22022e-08
-8.66289e-07
3.44679e-08
-8.7316e-07
1.54467e-08
-8.7671e-07
-4.73279e-09
-8.76734e-07
-2.59068e-08
-8.73055e-07
-4.78685e-08
-8.65528e-07
-7.0378e-08
-8.54049e-07
-9.31613e-08
-8.38559e-07
-1.15914e-07
-8.19048e-07
-1.38307e-07
-7.95564e-07
-1.59993e-07
-7.6821e-07
-1.80612e-07
-7.37153e-07
-1.99801e-07
-7.02622e-07
-2.17204e-07
-6.64906e-07
-2.32476e-07
-6.24358e-07
-2.45302e-07
-5.81386e-07
-2.55398e-07
-5.36452e-07
-2.62526e-07
-4.9006e-07
-2.66502e-07
-4.42754e-07
-2.672e-07
-3.95102e-07
-2.64565e-07
-3.47686e-07
-2.58609e-07
-3.01088e-07
-2.49422e-07
-2.55881e-07
-2.37163e-07
-2.12609e-07
-2.22063e-07
-1.71778e-07
-2.04418e-07
-1.33844e-07
-1.84581e-07
-9.91978e-08
-1.62954e-07
-6.81602e-08
-1.39976e-07
-4.09725e-08
-1.16115e-07
-1.7792e-08
-9.18545e-08
1.31111e-09
-6.7686e-08
1.63543e-08
-4.41019e-08
2.74419e-08
-2.15892e-08
3.47633e-08
-6.28194e-10
3.85899e-08
1.83071e-08
3.92726e-08
3.47454e-08
3.72388e-08
4.82122e-08
3.29928e-08
5.82222e-08
2.7116e-08
6.42713e-08
2.02725e-08
6.58277e-08
1.32172e-08
6.23253e-08
6.80896e-09
5.31581e-08
2.02784e-09
3.76758e-08
1.51672e-08
-3.01587e-09
1.24794e-08
-1.12563e-08
3.78369e-08
-2.39748e-08
6.22817e-08
-4.04941e-08
8.49956e-08
-6.02087e-08
1.05513e-07
-8.25854e-08
1.236e-07
-1.07161e-07
1.39206e-07
-1.33539e-07
1.52415e-07
-1.61381e-07
1.63402e-07
-1.90406e-07
1.72394e-07
-2.2038e-07
1.79642e-07
-2.51112e-07
1.85401e-07
-2.82445e-07
1.8991e-07
-3.14254e-07
1.9338e-07
-3.46437e-07
1.95992e-07
-3.78911e-07
1.9789e-07
-4.11606e-07
1.99183e-07
-4.44463e-07
1.99942e-07
-4.77427e-07
2.00208e-07
-5.10445e-07
1.99988e-07
-5.43459e-07
1.99265e-07
-5.76409e-07
1.97996e-07
-6.09222e-07
1.96115e-07
-6.41813e-07
1.93539e-07
-6.74082e-07
1.9017e-07
-7.05911e-07
1.85896e-07
-7.37162e-07
1.80599e-07
-7.67676e-07
1.74154e-07
-7.97269e-07
1.66436e-07
-8.25739e-07
1.57325e-07
-8.52858e-07
1.46712e-07
-8.78381e-07
1.34501e-07
-9.02046e-07
1.20618e-07
-9.23575e-07
1.05012e-07
-9.42682e-07
8.76653e-08
-9.59074e-07
6.85943e-08
-9.7246e-07
4.78542e-08
-9.82555e-07
2.55416e-08
-9.8909e-07
1.80205e-09
-9.91808e-07
-2.31889e-08
-9.90486e-07
-4.91899e-08
-9.84934e-07
-7.59306e-08
-9.75e-07
-1.03096e-07
-9.60581e-07
-1.30333e-07
-9.41629e-07
-1.57259e-07
-9.18155e-07
-1.83468e-07
-8.90233e-07
-2.08534e-07
-8.58009e-07
-2.32026e-07
-8.21696e-07
-2.53517e-07
-7.81581e-07
-2.72591e-07
-7.38022e-07
-2.88861e-07
-6.91445e-07
-3.01975e-07
-6.4234e-07
-3.11631e-07
-5.91253e-07
-3.17588e-07
-5.38779e-07
-3.19674e-07
-4.85548e-07
-3.17795e-07
-4.32214e-07
-3.11943e-07
-3.7944e-07
-3.02196e-07
-3.27882e-07
-2.88721e-07
-2.78172e-07
-2.71772e-07
-2.30906e-07
-2.51684e-07
-1.86626e-07
-2.28862e-07
-1.45804e-07
-2.03776e-07
-1.08836e-07
-1.76944e-07
-7.60292e-08
-1.48922e-07
-4.75962e-08
-1.20287e-07
-2.36512e-08
-9.16311e-08
-4.20846e-09
-6.35446e-08
1.08165e-08
-3.66142e-08
2.16046e-08
-1.14163e-08
2.84294e-08
1.14823e-08
3.16535e-08
3.15213e-08
3.17253e-08
4.81405e-08
2.91768e-08
6.07707e-08
2.46245e-08
6.88235e-08
1.87727e-08
7.16794e-08
1.24202e-08
6.86778e-08
6.47059e-09
5.91077e-08
1.94516e-09
4.22013e-08
1.71124e-08
-3.38984e-09
1.58693e-08
-1.26019e-08
4.7049e-08
-2.67561e-08
7.64358e-08
-4.50609e-08
1.033e-07
-6.68172e-08
1.27269e-07
-9.14182e-08
1.48201e-07
-1.18345e-07
1.66133e-07
-1.47159e-07
1.8123e-07
-1.77496e-07
1.93739e-07
-2.09057e-07
2.03954e-07
-2.41598e-07
2.12183e-07
-2.74924e-07
2.18728e-07
-3.08882e-07
2.23867e-07
-3.43349e-07
2.27847e-07
-3.78231e-07
2.30874e-07
-4.13453e-07
2.33113e-07
-4.48958e-07
2.34688e-07
-4.84696e-07
2.3568e-07
-5.20625e-07
2.36136e-07
-5.56702e-07
2.36066e-07
-5.92884e-07
2.35447e-07
-6.29117e-07
2.34229e-07
-6.6534e-07
2.32338e-07
-7.01476e-07
2.29674e-07
-7.37428e-07
2.26122e-07
-7.73081e-07
2.21549e-07
-8.08294e-07
2.15812e-07
-8.429e-07
2.0876e-07
-8.76708e-07
2.00243e-07
-9.09497e-07
1.90114e-07
-9.4102e-07
1.78236e-07
-9.71006e-07
1.64488e-07
-9.99162e-07
1.48773e-07
-1.02517e-06
1.31024e-07
-1.04872e-06
1.11207e-07
-1.06945e-06
8.93294e-08
-1.08704e-06
6.54428e-08
-1.10115e-06
3.96479e-08
-1.11144e-06
1.20973e-08
-1.11762e-06
-1.70075e-08
-1.11941e-06
-4.74078e-08
-1.11654e-06
-7.87951e-08
-1.10882e-06
-1.10812e-07
-1.0961e-06
-1.43058e-07
-1.07827e-06
-1.75091e-07
-1.05529e-06
-2.0644e-07
-1.02722e-06
-2.36609e-07
-9.94155e-07
-2.65091e-07
-9.56294e-07
-2.91378e-07
-9.13912e-07
-3.14973e-07
-8.67368e-07
-3.35405e-07
-8.17102e-07
-3.52241e-07
-7.6363e-07
-3.65103e-07
-7.0754e-07
-3.73679e-07
-6.49479e-07
-3.77734e-07
-5.90147e-07
-3.77128e-07
-5.30276e-07
-3.71814e-07
-4.70618e-07
-3.61854e-07
-4.11926e-07
-3.47413e-07
-3.54937e-07
-3.28761e-07
-3.00349e-07
-3.06272e-07
-2.48807e-07
-2.80404e-07
-2.00882e-07
-2.517e-07
-1.57063e-07
-2.20764e-07
-1.17736e-07
-1.88249e-07
-8.31833e-08
-1.5484e-07
-5.35748e-08
-1.2124e-07
-2.89657e-08
-8.81537e-08
-9.29827e-09
-5.62816e-08
5.59542e-09
-2.631e-08
1.5989e-08
1.08867e-09
2.22567e-08
2.52535e-08
2.48686e-08
4.55286e-08
2.43873e-08
6.12521e-08
2.14666e-08
7.17442e-08
1.68535e-08
7.62926e-08
1.13925e-08
7.41388e-08
6.03337e-09
6.44668e-08
1.83964e-09
4.6395e-08
1.8952e-08
-3.75664e-09
1.96259e-08
-1.39209e-08
5.72133e-08
-2.94819e-08
9.19968e-08
-4.95367e-08
1.23355e-07
-7.32951e-08
1.51027e-07
-1.00078e-07
1.74984e-07
-1.29313e-07
1.95367e-07
-1.60521e-07
2.12438e-07
-1.93313e-07
2.26531e-07
-2.27372e-07
2.38014e-07
-2.62448e-07
2.47259e-07
-2.98344e-07
2.54624e-07
-3.3491e-07
2.60433e-07
-3.72032e-07
2.64969e-07
-4.09626e-07
2.68467e-07
-4.4763e-07
2.71117e-07
-4.85999e-07
2.73057e-07
-5.247e-07
2.74382e-07
-5.63706e-07
2.75143e-07
-6.02992e-07
2.75351e-07
-6.42527e-07
2.74982e-07
-6.82274e-07
2.73977e-07
-7.22184e-07
2.72247e-07
-7.62188e-07
2.69678e-07
-8.02198e-07
2.66132e-07
-8.421e-07
2.61451e-07
-8.81752e-07
2.55463e-07
-9.2098e-07
2.47989e-07
-9.5958e-07
2.38843e-07
-9.97313e-07
2.27847e-07
-1.03391e-06
2.14832e-07
-1.06907e-06
1.99645e-07
-1.10246e-06
1.82163e-07
-1.13372e-06
1.62292e-07
-1.16249e-06
1.39979e-07
-1.18838e-06
1.15218e-07
-1.21099e-06
8.80523e-08
-1.22993e-06
5.85833e-08
-1.2448e-06
2.69698e-08
-1.25524e-06
-6.56749e-09
-1.2609e-06
-4.17492e-08
-1.26146e-06
-7.82306e-08
-1.25666e-06
-1.15612e-07
-1.24628e-06
-1.5344e-07
-1.23016e-06
-1.91211e-07
-1.20822e-06
-2.28386e-07
-1.18043e-06
-2.64391e-07
-1.14689e-06
-2.98634e-07
-1.10775e-06
-3.3052e-07
-1.06326e-06
-3.59456e-07
-1.01379e-06
-3.84877e-07
-9.59779e-07
-4.06255e-07
-9.01763e-07
-4.23119e-07
-8.4037e-07
-4.35071e-07
-7.76305e-07
-4.418e-07
-7.10334e-07
-4.43098e-07
-6.43278e-07
-4.38871e-07
-5.75985e-07
-4.29146e-07
-5.0932e-07
-4.14078e-07
-4.44135e-07
-3.93947e-07
-3.8125e-07
-3.69156e-07
-3.21433e-07
-3.40222e-07
-2.65373e-07
-3.0776e-07
-2.13667e-07
-2.72469e-07
-1.66805e-07
-2.35111e-07
-1.25153e-07
-1.96492e-07
-8.89505e-08
-1.57442e-07
-5.83071e-08
-1.18797e-07
-3.32005e-08
-8.13882e-08
-1.34816e-08
-4.60289e-08
1.11992e-09
-1.35129e-08
1.09891e-08
1.53843e-08
1.6619e-08
3.98987e-08
1.86052e-08
5.92659e-08
1.76426e-08
7.27068e-08
1.45246e-08
7.94106e-08
1.01455e-08
7.85178e-08
5.50526e-09
6.91071e-08
1.71411e-09
5.01862e-08
2.06661e-08
-4.1158e-09
2.37417e-08
-1.5211e-08
6.83085e-08
-3.21463e-08
1.08932e-07
-5.39105e-08
1.45119e-07
-7.96251e-08
1.76742e-07
-1.08542e-07
2.039e-07
-1.40035e-07
2.2686e-07
-1.7359e-07
2.45993e-07
-2.08792e-07
2.61733e-07
-2.45311e-07
2.74533e-07
-2.8289e-07
2.84839e-07
-3.21335e-07
2.93069e-07
-3.60501e-07
2.99599e-07
-4.00284e-07
3.04752e-07
-4.40615e-07
3.08798e-07
-4.81448e-07
3.11949e-07
-5.22756e-07
3.14365e-07
-5.64525e-07
3.16151e-07
-6.06748e-07
3.17366e-07
-6.49419e-07
3.18022e-07
-6.92528e-07
3.18091e-07
-7.36055e-07
3.17503e-07
-7.79964e-07
3.16157e-07
-8.24201e-07
3.13915e-07
-8.68683e-07
3.10615e-07
-9.13301e-07
3.06069e-07
-9.5791e-07
3.00072e-07
-1.00233e-06
2.92407e-07
-1.04634e-06
2.82851e-07
-1.08967e-06
2.71185e-07
-1.13204e-06
2.572e-07
-1.17311e-06
2.4071e-07
-1.2125e-06
2.21552e-07
-1.24981e-06
1.99604e-07
-1.28462e-06
1.74789e-07
-1.31648e-06
1.4708e-07
-1.34494e-06
1.16509e-07
-1.36953e-06
8.31725e-08
-1.38979e-06
4.72349e-08
-1.40529e-06
8.9314e-09
-1.4156e-06
-3.14359e-08
-1.42035e-06
-7.34883e-08
-1.41918e-06
-1.16783e-07
-1.41181e-06
-1.6081e-07
-1.39801e-06
-2.05004e-07
-1.37765e-06
-2.4875e-07
-1.35065e-06
-2.91392e-07
-1.31703e-06
-3.32248e-07
-1.27693e-06
-3.7062e-07
-1.23057e-06
-4.05815e-07
-1.17829e-06
-4.37157e-07
-1.12054e-06
-4.6401e-07
-1.05786e-06
-4.85795e-07
-9.90926e-07
-5.02008e-07
-9.20482e-07
-5.12243e-07
-8.47371e-07
-5.16209e-07
-7.72499e-07
-5.13743e-07
-6.96822e-07
-5.04823e-07
-6.21324e-07
-4.89576e-07
-5.4699e-07
-4.68281e-07
-4.74778e-07
-4.41368e-07
-4.05598e-07
-4.09402e-07
-3.4028e-07
-3.73078e-07
-2.79556e-07
-3.33193e-07
-2.24036e-07
-2.90632e-07
-1.74194e-07
-2.46334e-07
-1.30358e-07
-2.01277e-07
-9.27067e-08
-1.56448e-07
-6.12655e-08
-1.12829e-07
-3.59129e-08
-7.13815e-08
-1.63867e-08
-3.3039e-08
-2.29314e-09
1.29074e-09
6.88473e-09
3.07208e-08
1.17784e-08
5.43722e-08
1.31278e-08
7.13574e-08
1.17783e-08
8.07601e-08
8.6799e-09
8.16163e-08
4.88878e-09
7.28983e-08
1.56987e-09
5.35051e-08
2.2236e-08
-4.46661e-09
2.82083e-08
-1.64691e-08
8.0311e-08
-3.47426e-08
1.27206e-07
-5.81708e-08
1.68548e-07
-8.579e-08
2.04361e-07
-1.16786e-07
2.34896e-07
-1.50483e-07
2.60557e-07
-1.86332e-07
2.81843e-07
-2.23896e-07
2.99297e-07
-2.62834e-07
3.1347e-07
-3.02886e-07
3.2489e-07
-3.4386e-07
3.34043e-07
-3.85621e-07
3.41361e-07
-4.28081e-07
3.47212e-07
-4.71184e-07
3.51902e-07
-5.14907e-07
3.55672e-07
-5.59244e-07
3.58702e-07
-6.04204e-07
3.61111e-07
-6.49805e-07
3.62966e-07
-6.96062e-07
3.6428e-07
-7.4299e-07
3.65018e-07
-7.90587e-07
3.65101e-07
-8.38836e-07
3.64406e-07
-8.87695e-07
3.62774e-07
-9.37092e-07
3.60011e-07
-9.86916e-07
3.55894e-07
-1.03702e-06
3.50177e-07
-1.08722e-06
3.42601e-07
-1.13726e-06
3.32895e-07
-1.18687e-06
3.20795e-07
-1.23571e-06
3.06045e-07
-1.28342e-06
2.88413e-07
-1.32956e-06
2.67698e-07
-1.3737e-06
2.43738e-07
-1.41534e-06
2.16426e-07
-1.45397e-06
1.85711e-07
-1.48907e-06
1.51609e-07
-1.5201e-06
1.14209e-07
-1.54655e-06
7.36771e-08
-1.56787e-06
3.026e-08
-1.5836e-06
-1.57136e-08
-1.59325e-06
-6.38378e-08
-1.59641e-06
-1.13621e-07
-1.59272e-06
-1.64499e-07
-1.58189e-06
-2.15839e-07
-1.56369e-06
-2.66947e-07
-1.538e-06
-3.17082e-07
-1.50479e-06
-3.65461e-07
-1.46412e-06
-4.11282e-07
-1.4162e-06
-4.53736e-07
-1.36133e-06
-4.92028e-07
-1.29995e-06
-5.25396e-07
-1.2326e-06
-5.53137e-07
-1.15999e-06
-5.74624e-07
-1.08289e-06
-5.89336e-07
-1.00223e-06
-5.96874e-07
-9.18988e-07
-5.96985e-07
-8.34233e-07
-5.89577e-07
-7.49077e-07
-5.74732e-07
-6.64649e-07
-5.5271e-07
-5.82064e-07
-5.23952e-07