/*--------------------------------*- C++ -*----------------------------------*\
  =========                 |
  \\      /  F ield         | OpenFOAM: The Open Source CFD Toolbox
   \\    /   O peration     | Website:  https://openfoam.org
    \\  /    A nd           | Version:  7
     \\/     M anipulation  |
\*---------------------------------------------------------------------------*/
FoamFile
{
    version     2.0;
    format      ascii;
    class       surfaceScalarField;
    location    "1.6";
    object      phi;
}
// * * * * * * * * * * * * * * * * * * * * * * * * * * * * * * * * * * * * * //

dimensions      [0 3 -1 0 0 0 0];

internalField   nonuniform List<scalar> 
12640
(
3.13013e-10
-3.0246e-10
9.08613e-10
-5.95615e-10
1.45571e-09
-5.47107e-10
1.75819e-09
-3.02515e-10
1.72704e-09
3.11793e-11
1.33365e-09
3.9336e-10
5.82313e-10
7.51358e-10
-5.05029e-10
1.08736e-09
-1.89861e-09
1.39357e-09
-3.56647e-09
1.66784e-09
-5.47776e-09
1.91129e-09
-7.60457e-09
2.12681e-09
-9.92262e-09
2.31804e-09
-1.24114e-08
2.48881e-09
-1.5054e-08
2.6426e-09
-1.78363e-08
2.7823e-09
-2.07464e-08
2.91009e-09
-2.37738e-08
3.02738e-09
-2.69085e-08
3.13474e-09
-3.01406e-08
3.232e-09
-3.34589e-08
3.31832e-09
-3.68511e-08
3.39225e-09
-4.0303e-08
3.45184e-09
-4.37978e-08
3.49481e-09
-4.73164e-08
3.51858e-09
-5.08368e-08
3.52039e-09
-5.43342e-08
3.49745e-09
-5.77812e-08
3.44699e-09
-6.11476e-08
3.36638e-09
-6.44009e-08
3.25323e-09
-6.75063e-08
3.10546e-09
-7.04277e-08
2.92137e-09
-7.31274e-08
2.69976e-09
-7.55674e-08
2.44001e-09
-7.77096e-08
2.14214e-09
-7.95165e-08
1.80687e-09
-8.09522e-08
1.43571e-09
-8.19831e-08
1.03097e-09
-8.2579e-08
5.95822e-10
-8.27133e-08
1.34312e-10
-8.23645e-08
-3.48786e-10
-8.15168e-08
-8.47681e-10
-8.01609e-08
-1.35596e-09
-7.82943e-08
-1.86653e-09
-7.59226e-08
-2.37171e-09
-7.30592e-08
-2.86345e-09
-6.97257e-08
-3.33345e-09
-6.59524e-08
-3.77335e-09
-6.17774e-08
-4.17496e-09
-5.72469e-08
-4.53048e-09
-5.24142e-08
-4.83268e-09
-4.7339e-08
-5.07517e-09
-4.20865e-08
-5.25258e-09
-3.67257e-08
-5.36073e-09
-3.13289e-08
-5.39683e-09
-2.59694e-08
-5.35952e-09
-2.07204e-08
-5.24901e-09
-1.56533e-08
-5.06707e-09
-1.08363e-08
-4.81698e-09
-6.33283e-09
-4.50348e-09
-2.2002e-09
-4.13264e-09
1.51147e-09
-3.71167e-09
4.76024e-09
-3.24877e-09
7.51306e-09
-2.75282e-09
9.74641e-09
-2.23334e-09
1.14466e-08
-1.70016e-09
1.26099e-08
-1.16336e-09
1.32431e-08
-6.33149e-10
1.3363e-08
-1.19946e-10
1.29975e-08
3.65516e-10
1.21857e-08
8.11824e-10
1.09794e-08
1.20634e-09
9.44498e-09
1.53438e-09
7.66701e-09
1.77798e-09
5.75272e-09
1.91429e-09
3.83869e-09
1.91403e-09
2.09736e-09
1.74133e-09
7.42889e-10
1.35448e-09
1.9174e-11
7.23721e-10
1.91796e-11
6.0744e-10
-9.09914e-10
1.4878e-09
-1.47593e-09
2.09363e-09
-1.15292e-09
2.08617e-09
-2.94992e-10
1.27439e-09
8.42916e-10
-4.24761e-10
2.0925e-09
-3.02196e-09
3.34858e-09
-6.48432e-09
4.54971e-09
-1.07545e-08
5.66374e-09
-1.57643e-08
6.67765e-09
-2.14433e-08
7.59033e-09
-2.77243e-08
8.40775e-09
-3.45457e-08
9.13948e-09
-4.18532e-08
9.7963e-09
-4.95991e-08
1.03885e-08
-5.77417e-08
1.09249e-08
-6.62438e-08
1.14122e-08
-7.50708e-08
1.18543e-08
-8.4189e-08
1.2253e-08
-9.35641e-08
1.26071e-08
-1.03159e-07
1.29134e-08
-1.12934e-07
1.31666e-08
-1.22842e-07
1.33598e-08
-1.32832e-07
1.34848e-08
-1.42845e-07
1.35325e-08
-1.52818e-07
1.34932e-08
-1.62678e-07
1.33574e-08
-1.72347e-07
1.31154e-08
-1.81739e-07
1.27586e-08
-1.90764e-07
1.22788e-08
-1.99328e-07
1.16694e-08
-2.07332e-07
1.09253e-08
-2.14676e-07
1.00432e-08
-2.21258e-07
9.02198e-09
-2.26978e-07
7.86284e-09
-2.31741e-07
6.5696e-09
-2.35454e-07
5.14886e-09
-2.38033e-07
3.61011e-09
-2.39403e-07
1.96581e-09
-2.39501e-07
2.31532e-10
-2.38275e-07
-1.57486e-09
-2.3569e-07
-3.43191e-09
-2.3173e-07
-5.31618e-09
-2.26395e-07
-7.20197e-09
-2.19705e-07
-9.06186e-09
-2.11701e-07
-1.08671e-08
-2.02446e-07
-1.25885e-08
-1.92022e-07
-1.41967e-08
-1.80535e-07
-1.56629e-08
-1.68105e-07
-1.69601e-08
-1.54874e-07
-1.80632e-08
-1.40999e-07
-1.89501e-08
-1.2665e-07
-1.96022e-08
-1.12006e-07
-2.0005e-08
-9.72536e-08
-2.01488e-08
-8.25841e-08
-2.0029e-08
-6.81869e-08
-1.96462e-08
-5.42479e-08
-1.90062e-08
-4.09445e-08
-1.81203e-08
-2.8443e-08
-1.7005e-08
-1.68945e-08
-1.56812e-08
-6.43216e-09
-1.4174e-08
2.83125e-09
-1.25122e-08
1.08058e-08
-1.07274e-08
1.74261e-08
-8.85355e-09
2.26521e-08
-6.92622e-09
2.6471e-08
-4.98226e-09
2.88974e-08
-3.0595e-09
2.99743e-08
-1.19685e-09
2.97746e-08
5.65282e-10
2.84021e-08
2.18426e-09
2.5995e-08
3.61349e-09
2.27286e-08
4.80075e-09
1.88209e-08
5.68568e-09
1.4538e-08
6.19725e-09
1.01989e-08
6.25311e-09
6.17604e-09
5.76421e-09
2.88153e-09
4.649e-09
7.20611e-10
2.88465e-09
7.39792e-10
5.63534e-10
-1.47346e-09
1.16764e-09
-2.08009e-09
1.18443e-09
-1.16966e-09
2.25907e-10
6.63516e-10
-1.93618e-09
3.005e-09
-5.4087e-09
5.56509e-09
-1.02113e-08
8.15117e-09
-1.63062e-08
1.06445e-08
-2.36208e-08
1.29784e-08
-3.20652e-08
1.5122e-08
-4.15429e-08
1.7068e-08
-5.19585e-08
1.88234e-08
-6.32227e-08
2.04037e-08
-7.52536e-08
2.18271e-08
-8.7977e-08
2.31119e-08
-1.01326e-07
2.42737e-08
-1.15238e-07
2.53242e-08
-1.29654e-07
2.62704e-08
-1.44515e-07
2.71143e-08
-1.59761e-07
2.7853e-08
-1.75327e-07
2.84791e-08
-1.91142e-07
2.89814e-08
-2.07127e-07
2.93452e-08
-2.23196e-07
2.95537e-08
-2.39251e-07
2.9588e-08
-2.55187e-07
2.94289e-08
-2.70886e-07
2.90566e-08
-2.86223e-07
2.84523e-08
-3.01063e-07
2.75986e-08
-3.15265e-07
2.64802e-08
-3.2868e-07
2.50845e-08
-3.41157e-07
2.34026e-08
-3.52543e-07
2.14292e-08
-3.62685e-07
1.91639e-08
-3.71433e-07
1.66112e-08
-3.78645e-07
1.37809e-08
-3.84184e-07
1.06888e-08
-3.8793e-07
7.3562e-09
-3.89775e-07
3.81076e-09
-3.8963e-07
8.64465e-11
-3.87426e-07
-3.77897e-09
-3.83119e-07
-7.73953e-09
-3.76688e-07
-1.17464e-08
-3.68144e-07
-1.57461e-08
-3.57524e-07
-1.96818e-08
-3.44897e-07
-2.34947e-08
-3.30361e-07
-2.71247e-08
-3.14045e-07
-3.05122e-08
-2.96109e-07
-3.3599e-08
-2.76739e-07
-3.633e-08
-2.56148e-07
-3.86547e-08
-2.34569e-07
-4.05284e-08
-2.12258e-07
-4.19136e-08
-1.89482e-07
-4.2781e-08
-1.6652e-07
-4.31109e-08
-1.43655e-07
-4.28935e-08
-1.21172e-07
-4.21298e-08
-9.93465e-08
-4.08313e-08
-7.84463e-08
-3.90206e-08
-5.87213e-08
-3.67301e-08
-4.04003e-08
-3.40021e-08
-2.36866e-08
-3.08877e-08
-8.75357e-09
-2.74452e-08
4.25862e-09
-2.37396e-08
1.52459e-08
-1.98408e-08
2.41425e-08
-1.58229e-08
3.09233e-08
-1.1763e-08
3.56048e-08
-7.74103e-09
3.82473e-08
-3.83934e-09
3.89563e-08
-1.43721e-10
3.78844e-08
3.25613e-09
3.52347e-08
6.26327e-09
3.12633e-08
8.77212e-09
2.6284e-08
1.0665e-08
2.06708e-08
1.18104e-08
1.48597e-08
1.20642e-08
9.34351e-09
1.12804e-08
4.65731e-09
9.33521e-09
1.35215e-09
6.18981e-09
2.09194e-09
3.09925e-10
-1.78337e-09
2.52979e-10
-2.02311e-09
-7.81022e-10
-1.35719e-10
-3.17147e-09
3.05395e-09
-7.14127e-09
6.97483e-09
-1.27924e-08
1.12162e-08
-2.01386e-08
1.54974e-08
-2.9133e-08
1.96389e-08
-3.96901e-08
2.35356e-08
-5.17034e-08
2.71354e-08
-6.50576e-08
3.04221e-08
-7.96367e-08
3.34025e-08
-9.53296e-08
3.60966e-08
-1.12032e-07
3.85298e-08
-1.29648e-07
4.07278e-08
-1.48087e-07
4.27128e-08
-1.67264e-07
4.45011e-08
-1.87096e-07
4.61018e-08
-2.07498e-07
4.75163e-08
-2.28383e-07
4.87382e-08
-2.49658e-07
4.97541e-08
-2.71221e-07
5.05448e-08
-2.92962e-07
5.10858e-08
-3.14757e-07
5.13488e-08
-3.36472e-07
5.13034e-08
-3.57961e-07
5.09178e-08
-3.79065e-07
5.01606e-08
-3.99615e-07
4.90018e-08
-4.1943e-07
4.74142e-08
-4.38324e-07
4.53742e-08
-4.56103e-07
4.28635e-08
-4.7257e-07
3.98693e-08
-4.87527e-07
3.63861e-08
-5.00779e-07
3.24158e-08
-5.12136e-07
2.79686e-08
-5.21419e-07
2.30639e-08
-5.28461e-07
1.77304e-08
-5.33111e-07
1.20062e-08
-5.3524e-07
5.93941e-09
-5.34741e-07
-4.12455e-10
-5.31536e-07
-6.98385e-09
-5.25576e-07
-1.36991e-08
-5.16846e-07
-2.04764e-08
-5.05365e-07
-2.72272e-08
-4.91189e-07
-3.38581e-08
-4.74411e-07
-4.02728e-08
-4.55162e-07
-4.63734e-08
-4.33611e-07
-5.20628e-08
-4.09964e-07
-5.72468e-08
-3.84457e-07
-6.18361e-08
-3.57363e-07
-6.57491e-08
-3.28978e-07
-6.89133e-08
-2.99624e-07
-7.12679e-08
-2.69639e-07
-7.27655e-08
-2.39377e-07
-7.33737e-08
-2.09194e-07
-7.3076e-08
-1.79451e-07
-7.18732e-08
-1.50499e-07
-6.97831e-08
-1.22679e-07
-6.68411e-08
-9.63095e-08
-6.30991e-08
-7.16867e-08
-5.8625e-08
-4.90735e-08
-5.35009e-08
-2.8697e-08
-4.78217e-08
-1.0743e-08
-4.16936e-08
4.64778e-09
-3.52315e-08
1.73828e-08
-2.85579e-08
2.74211e-08
-2.18012e-08
3.47749e-08
-1.50949e-08
3.95125e-08
-8.57688e-09
4.17594e-08
-2.39062e-09
4.17014e-08
3.31415e-09
3.95859e-08
8.37872e-09
3.5725e-08
1.2633e-08
3.04974e-08
1.58927e-08
2.43492e-08
1.79585e-08
1.77939e-08
1.86195e-08
1.14088e-08
1.76655e-08
5.82963e-09
1.49144e-08
1.7522e-09
1.02672e-08
3.84414e-09
-6.22395e-11
-1.72109e-09
-1.04624e-09
-1.03913e-09
-3.4735e-09
2.29153e-09
-7.66915e-09
7.24964e-09
-1.38164e-08
1.3122e-08
-2.19894e-08
1.93892e-08
-3.21809e-08
2.56889e-08
-4.43267e-08
3.17847e-08
-5.83256e-08
3.75345e-08
-7.40555e-08
4.28652e-08
-9.13849e-08
4.77515e-08
-1.10181e-07
5.2199e-08
-1.30316e-07
5.62316e-08
-1.51668e-07
5.9881e-08
-1.74119e-07
6.31795e-08
-1.97561e-07
6.61548e-08
-2.21887e-07
6.88267e-08
-2.4699e-07
7.12047e-08
-2.72762e-07
7.32881e-08
-2.99089e-07
7.50653e-08
-3.2585e-07
7.65151e-08
-3.52913e-07
7.76078e-08
-3.80134e-07
7.83072e-08
-4.07357e-07
7.85719e-08
-4.34411e-07
7.83575e-08
-4.61112e-07
7.76186e-08
-4.87262e-07
7.63105e-08
-5.12652e-07
7.43913e-08
-5.37061e-07
7.18233e-08
-5.60262e-07
6.85752e-08
-5.82021e-07
6.46228e-08
-6.02103e-07
5.99515e-08
-6.20274e-07
5.45564e-08
-6.36302e-07
4.84444e-08
-6.49968e-07
4.16345e-08
-6.61063e-07
3.41587e-08
-6.69395e-07
2.60627e-08
-6.74795e-07
1.74057e-08
-6.77116e-07
8.26059e-09
-6.76242e-07
-1.28625e-09
-6.72089e-07
-1.11365e-08
-6.64609e-07
-2.11793e-08
-6.53791e-07
-3.12944e-08
-6.39666e-07
-4.13528e-08
-6.22305e-07
-5.1219e-08
-6.01824e-07
-6.07537e-08
-5.78381e-07
-6.98159e-08
-5.52178e-07
-7.82659e-08
-5.23457e-07
-8.59684e-08
-4.92497e-07
-9.27957e-08
-4.59616e-07
-9.86302e-08
-4.25161e-07
-1.03368e-07
-3.89507e-07
-1.06922e-07
-3.53051e-07
-1.09222e-07
-3.16202e-07
-1.10222e-07
-2.79381e-07
-1.09897e-07
-2.43008e-07
-1.08246e-07
-2.07499e-07
-1.05293e-07
-1.73253e-07
-1.01086e-07
-1.40653e-07
-9.56998e-08
-1.10049e-07
-8.92291e-08
-8.17583e-08
-8.17912e-08
-5.60577e-08
-7.35224e-08
-3.31757e-08
-6.45756e-08
-1.32895e-08
-5.51178e-08
3.48018e-09
-4.53276e-08
1.70722e-08
-3.53933e-08
2.74883e-08
-2.5511e-08
3.47959e-08
-1.58844e-08
3.91295e-08
-6.72427e-09
4.06936e-08
1.75009e-09
3.97634e-08
9.3089e-09
3.66869e-08
1.57095e-08
3.18854e-08
2.06942e-08
2.58541e-08
2.39898e-08
1.91615e-08
2.53121e-08
1.24503e-08
2.43768e-08
6.44188e-09
2.09228e-08
1.95691e-09
1.47522e-08
5.80105e-09
-5.02138e-10
-1.219e-09
-2.59421e-09
1.05296e-09
-6.66562e-09
6.36297e-09
-1.29521e-08
1.35361e-08
-2.15717e-08
2.17417e-08
-3.2551e-08
3.03684e-08
-4.58473e-08
3.89853e-08
-6.13699e-08
4.73073e-08
-7.89966e-08
5.51612e-08
-9.85878e-08
6.24564e-08
-1.19996e-07
6.91601e-08
-1.43075e-07
7.52776e-08
-1.6768e-07
8.08366e-08
-1.93673e-07
8.58745e-08
-2.20923e-07
9.04293e-08
-2.49301e-07
9.45328e-08
-2.78681e-07
9.82065e-08
-3.08935e-07
1.01459e-07
-3.39933e-07
1.04285e-07
-3.71534e-07
1.06667e-07
-4.03591e-07
1.08572e-07
-4.35942e-07
1.09959e-07
-4.68413e-07
1.10778e-07
-5.00814e-07
1.10973e-07
-5.32941e-07
1.10484e-07
-5.64574e-07
1.09252e-07
-5.9548e-07
1.07216e-07
-6.25413e-07
1.04324e-07
-6.54116e-07
1.00527e-07
-6.81328e-07
9.5787e-08
-7.06781e-07
9.00751e-08
-7.30205e-07
8.33759e-08
-7.51337e-07
7.56879e-08
-7.69917e-07
6.70252e-08
-7.85701e-07
5.74183e-08
-7.98458e-07
4.69152e-08
-8.07977e-07
3.5582e-08
-8.14074e-07
2.35026e-08
-8.16592e-07
1.07789e-08
-8.15408e-07
-2.47009e-09
-8.10435e-07
-1.61093e-08
-8.01626e-07
-2.99885e-08
-7.88976e-07
-4.39448e-08
-7.72524e-07
-5.78048e-08
-7.52356e-07
-7.13868e-08
-7.28605e-07
-8.45045e-08
-7.01451e-07
-9.69699e-08
-6.7112e-07
-1.08597e-07
-6.37883e-07
-1.19206e-07
-6.02053e-07
-1.28626e-07
-5.63982e-07
-1.36701e-07
-5.24059e-07
-1.43291e-07
-4.827e-07
-1.4828e-07
-4.40348e-07
-1.51575e-07
-3.97461e-07
-1.53109e-07
-3.5451e-07
-1.52848e-07
-3.11967e-07
-1.50789e-07
-2.70301e-07
-1.46959e-07
-2.29966e-07
-1.41421e-07
-1.91397e-07
-1.34269e-07
-1.54997e-07
-1.25629e-07
-1.21133e-07
-1.15655e-07
-9.01281e-08
-1.04528e-07
-6.22531e-08
-9.24506e-08
-3.77226e-08
-7.96483e-08
-1.66886e-08
-6.63616e-08
7.63498e-10
-5.28454e-08
1.46188e-08
-3.93663e-08
2.49355e-08
-2.62011e-08
3.18476e-08
-1.36363e-08
3.55662e-08
-1.9685e-09
3.63811e-08
8.494e-09
3.46613e-08
1.74292e-08
3.08557e-08
2.44998e-08
2.54927e-08
2.93529e-08
1.91816e-08
3.16232e-08
1.2617e-08
3.09414e-08
6.5893e-09
2.69505e-08
2.01223e-09
1.93293e-08
7.81328e-09
-9.83736e-10
-2.35265e-10
-4.30554e-09
4.3748e-09
-1.02018e-08
1.22592e-08
-1.87951e-08
2.21293e-08
-3.01182e-08
3.30648e-08
-4.41334e-08
4.43836e-08
-6.07503e-08
5.56022e-08
-7.98424e-08
6.63993e-08
-1.01261e-07
7.65794e-08
-1.24844e-07
8.60401e-08
-1.5043e-07
9.47454e-08
-1.77854e-07
1.02702e-07
-2.06961e-07
1.09943e-07
-2.37598e-07
1.16512e-07
-2.69619e-07
1.2245e-07
-3.02879e-07
1.27793e-07
-3.37235e-07
1.32562e-07
-3.7254e-07
1.36764e-07
-4.08639e-07
1.40385e-07
-4.45372e-07
1.43399e-07
-4.82563e-07
1.45763e-07
-5.20024e-07
1.4742e-07
-5.57552e-07
1.48306e-07
-5.94925e-07
1.48347e-07
-6.31909e-07
1.47468e-07
-6.6825e-07
1.45593e-07
-7.03684e-07
1.4265e-07
-7.37932e-07
1.38572e-07
-7.70708e-07
1.33303e-07
-8.01717e-07
1.26796e-07
-8.30662e-07
1.19021e-07
-8.57249e-07
1.09963e-07
-8.81187e-07
9.96257e-08
-9.02195e-07
8.80335e-08
-9.20008e-07
7.52308e-08
-9.34377e-07
6.12845e-08
-9.45079e-07
4.62838e-08
-9.51916e-07
3.03404e-08
-9.54726e-07
1.3588e-08
-9.53377e-07
-3.81836e-09
-9.47782e-07
-2.17043e-08
-9.37894e-07
-3.98769e-08
-9.23711e-07
-5.8128e-08
-9.05279e-07
-7.62368e-08
-8.82693e-07
-9.39727e-08
-8.56098e-07
-1.11099e-07
-8.25689e-07
-1.27379e-07
-7.91709e-07
-1.42576e-07
-7.54452e-07
-1.56463e-07
-7.14253e-07
-1.68824e-07
-6.71494e-07
-1.7946e-07
-6.26592e-07
-1.88193e-07
-5.79998e-07
-1.94874e-07
-5.32193e-07
-1.99381e-07
-4.83674e-07
-2.01628e-07
-4.34955e-07
-2.01567e-07
-3.86555e-07
-1.99189e-07
-3.38989e-07
-1.94524e-07
-2.92762e-07
-1.87648e-07
-2.48355e-07
-1.78676e-07
-2.06224e-07
-1.67761e-07
-1.66782e-07
-1.55096e-07
-1.304e-07
-1.4091e-07
-9.73916e-08
-1.25459e-07
-6.80111e-08
-1.09029e-07
-4.24452e-08
-9.19274e-08
-2.08083e-08
-7.44822e-08
-3.13837e-09
-5.70363e-08
1.06068e-08
-3.99463e-08
2.05517e-08
-2.35812e-08
2.6905e-08
-8.32179e-09
2.99604e-08
5.4386e-09
3.00972e-08
1.72924e-08
2.77803e-08
2.68167e-08
2.3561e-08
3.35722e-08
1.80788e-08
3.71054e-08
1.20675e-08
3.69527e-08
6.36853e-09
3.26494e-08
1.95665e-09
2.37412e-08
9.76993e-09
-1.49107e-09
1.25581e-09
-6.12601e-09
9.00971e-09
-1.39767e-08
2.01098e-08
-2.50374e-08
3.31901e-08
-3.92411e-08
4.72684e-08
-5.64725e-08
6.16151e-08
-7.65828e-08
7.57125e-08
-9.94015e-08
8.9218e-08
-1.24747e-07
1.01925e-07
-1.52434e-07
1.13727e-07
-1.82279e-07
1.24591e-07
-2.14105e-07
1.34529e-07
-2.47742e-07
1.4358e-07
-2.83025e-07
1.51794e-07
-3.19793e-07
1.59218e-07
-3.57889e-07
1.65889e-07
-3.97152e-07
1.71826e-07
-4.37419e-07
1.7703e-07
-4.78515e-07
1.81481e-07
-5.20256e-07
1.85141e-07
-5.62444e-07
1.87951e-07
-6.04866e-07
1.89842e-07
-6.4729e-07
1.9073e-07
-6.89469e-07
1.90525e-07
-7.31136e-07
1.89136e-07
-7.72013e-07
1.8647e-07
-8.11804e-07
1.82441e-07
-8.50204e-07
1.76972e-07
-8.86896e-07
1.69995e-07
-9.21563e-07
1.61462e-07
-9.53882e-07
1.5134e-07
-9.83535e-07
1.39616e-07
-1.01021e-06
1.26303e-07
-1.03361e-06
1.11436e-07
-1.05346e-06
9.50751e-08
-1.06948e-06
7.73095e-08
-1.08145e-06
5.82535e-08
-1.08916e-06
3.80486e-08
-1.09244e-06
1.68627e-08
-1.09114e-06
-5.11159e-09
-1.08519e-06
-2.76584e-08
-1.07453e-06
-5.05404e-08
-1.05915e-06
-7.35023e-08
-1.03911e-06
-9.6274e-08
-1.01451e-06
-1.18574e-07
-9.85499e-07
-1.40114e-07
-9.52274e-07
-1.60604e-07
-9.15093e-07
-1.79757e-07
-8.74262e-07
-1.97294e-07
-8.30134e-07
-2.12952e-07
-7.83109e-07
-2.26484e-07
-7.33629e-07
-2.37674e-07
-6.82171e-07
-2.46332e-07
-6.29245e-07
-2.52307e-07
-5.75384e-07
-2.55489e-07
-5.21141e-07
-2.55811e-07
-4.67073e-07
-2.53256e-07
-4.13743e-07
-2.47855e-07
-3.61699e-07
-2.39692e-07
-3.11473e-07
-2.28901e-07
-2.63569e-07
-2.15665e-07
-2.1845e-07
-2.00215e-07
-1.76534e-07
-1.82826e-07
-1.38181e-07
-1.63811e-07
-1.03689e-07
-1.43521e-07
-7.32835e-08
-1.22333e-07
-4.71128e-08
-1.00653e-07
-2.5244e-08
-7.89051e-08
-7.65787e-09
-5.75325e-08
5.75334e-09
-3.69925e-08
1.51878e-08
-1.77563e-08
2.0935e-08
-3.08612e-10
2.33761e-08
1.48513e-08
2.29841e-08
2.72087e-08
2.03245e-08
3.62318e-08
1.60578e-08
4.13721e-08
1.09459e-08
4.20646e-08
5.86392e-09
3.77314e-08
1.82055e-09
2.77845e-08
1.15905e-08
-2.01557e-09
3.27137e-09
-8.02036e-09
1.50145e-08
-1.7917e-08
3.00064e-08
-3.1562e-08
4.68351e-08
-4.87773e-08
6.44838e-08
-6.9361e-08
8.21987e-08
-9.30967e-08
9.94482e-08
-1.19763e-07
1.15885e-07
-1.49141e-07
1.31302e-07
-1.81016e-07
1.45602e-07
-2.15185e-07
1.5876e-07
-2.51455e-07
1.70798e-07
-2.89639e-07
1.81765e-07
-3.29563e-07
1.91718e-07
-3.71054e-07
2.00709e-07
-4.13941e-07
2.08775e-07
-4.58048e-07
2.15934e-07
-5.03197e-07
2.22178e-07
-5.49195e-07
2.27479e-07
-5.95838e-07
2.31784e-07
-6.42906e-07
2.3502e-07
-6.90163e-07
2.37099e-07
-7.37353e-07
2.3792e-07
-7.84203e-07
2.37375e-07
-8.30423e-07
2.35356e-07
-8.75707e-07
2.31754e-07
-9.19734e-07
2.26469e-07
-9.62176e-07
2.19413e-07
-1.00269e-06
2.10513e-07
-1.04094e-06
1.99714e-07
-1.07659e-06
1.86984e-07
-1.10929e-06
1.72317e-07
-1.13872e-06
1.55732e-07
-1.16456e-06
1.37278e-07
-1.18652e-06
1.17036e-07
-1.20433e-06
9.51145e-08
-1.21773e-06
7.16562e-08
-1.22651e-06
4.68335e-08
-1.2305e-06
2.08493e-08
-1.22955e-06
-6.06487e-09
-1.22356e-06
-3.36509e-08
-1.21247e-06
-6.16261e-08
-1.19628e-06
-8.96872e-08
-1.17504e-06
-1.17514e-07
-1.14885e-06
-1.44772e-07
-1.11784e-06
-1.7112e-07
-1.08223e-06
-1.96215e-07
-1.04227e-06
-2.19714e-07
-9.9828e-07
-2.41287e-07
-9.50616e-07
-2.60616e-07
-8.99691e-07
-2.77409e-07
-8.45964e-07
-2.91401e-07
-7.89933e-07
-3.02362e-07
-7.32134e-07
-3.10106e-07
-6.7313e-07
-3.14492e-07
-6.13507e-07
-3.15434e-07
-5.53864e-07
-3.12899e-07
-4.94803e-07
-3.06916e-07
-4.36921e-07
-2.97574e-07
-3.80799e-07
-2.85023e-07
-3.2699e-07
-2.69474e-07
-2.7601e-07
-2.51195e-07
-2.28328e-07
-2.30508e-07
-1.84356e-07
-2.07784e-07
-1.44437e-07
-1.8344e-07
-1.08842e-07
-1.57928e-07
-7.77596e-08
-1.31735e-07
-5.12919e-08
-1.05373e-07
-2.94492e-08
-7.93752e-08
-1.2147e-08
-5.42946e-08
7.9549e-10
-3.06988e-08
9.65685e-09
-9.16998e-09
1.48134e-08
9.69476e-09
1.67395e-08
2.52826e-08
1.6008e-08
3.69633e-08
1.32926e-08
4.40875e-08
9.37293e-09
4.59842e-08
5.14327e-09
4.19611e-08
1.62658e-09
3.13012e-08
1.32171e-08
-2.5514e-09
5.82274e-09
-9.96421e-09
2.24273e-08
-2.19694e-08
4.20116e-08
-3.82796e-08
6.31453e-08
-5.85989e-08
8.48031e-08
-8.26309e-08
1.06231e-07
-1.10086e-07
1.26903e-07
-1.40686e-07
1.46485e-07
-1.74169e-07
1.64786e-07
-2.10292e-07
1.81724e-07
-2.48825e-07
1.97294e-07
-2.8956e-07
2.11532e-07
-3.32297e-07
2.24502e-07
-3.76848e-07
2.36269e-07
-4.23029e-07
2.46891e-07
-4.70658e-07
2.56404e-07
-5.19548e-07
2.64823e-07
-5.69503e-07
2.72133e-07
-6.20317e-07
2.78292e-07
-6.71766e-07
2.83234e-07
-7.23613e-07
2.86867e-07
-7.756e-07
2.89085e-07
-8.27449e-07
2.89769e-07
-8.78867e-07
2.88793e-07
-9.29541e-07
2.86029e-07
-9.79142e-07
2.81355e-07
-1.02733e-06
2.74657e-07
-1.07375e-06
2.65837e-07
-1.11806e-06
2.54816e-07
-1.15988e-06
2.41536e-07
-1.19886e-06
2.25968e-07
-1.23466e-06
2.0811e-07
-1.26692e-06
1.87992e-07
-1.29532e-06
1.65678e-07
-1.31955e-06
1.41268e-07
-1.33933e-06
1.14894e-07
-1.3544e-06
8.67249e-08
-1.36453e-06
5.6966e-08
-1.36953e-06
2.58551e-08
-1.36926e-06
-6.33751e-09
-1.3636e-06
-3.93115e-08
-1.35249e-06
-7.27388e-08
-1.33591e-06
-1.06268e-07
-1.31389e-06
-1.39528e-07
-1.28653e-06
-1.72132e-07
-1.25397e-06
-2.03684e-07
-1.2164e-06
-2.33784e-07
-1.17408e-06
-2.62036e-07
-1.12732e-06
-2.88051e-07
-1.07648e-06
-3.11457e-07
-1.02198e-06
-3.31909e-07
-9.64284e-07
-3.49092e-07
-9.03917e-07
-3.62729e-07
-8.41429e-07
-3.72594e-07
-7.77412e-07
-3.7851e-07
-7.12483e-07
-3.80363e-07
-6.47278e-07
-3.78104e-07
-5.82444e-07
-3.71751e-07
-5.18624e-07
-3.61394e-07
-4.5645e-07
-3.47197e-07
-3.9653e-07
-3.29394e-07
-3.39435e-07
-3.08289e-07
-2.85691e-07
-2.84252e-07
-2.35765e-07
-2.57711e-07
-1.90054e-07
-2.29151e-07
-1.4888e-07
-1.99103e-07
-1.12477e-07
-1.68138e-07
-8.099e-08
-1.3686e-07
-5.44644e-08
-1.05901e-07
-3.28461e-08
-7.5913e-08
-1.59775e-08
-4.75674e-08
-3.59725e-09
-2.15503e-08
4.6606e-09
1.43691e-09
9.26607e-09
2.06771e-08
1.07936e-08
3.54358e-08
9.9233e-09
4.49578e-08
7.44399e-09
4.84636e-08
4.25853e-09
4.51465e-08
1.39108e-09
3.41687e-08
1.46082e-08
-3.09439e-09
8.91714e-09
-1.19392e-08
3.12721e-08
-2.60923e-08
5.61647e-08
-4.51189e-08
8.21719e-08
-6.86004e-08
1.08285e-07
-9.61413e-08
1.33772e-07
-1.27373e-07
1.58135e-07
-1.61959e-07
1.8107e-07
-1.9959e-07
2.02417e-07
-2.39988e-07
2.22123e-07
-2.82903e-07
2.40208e-07
-3.28104e-07
2.56733e-07
-3.75379e-07
2.71778e-07
-4.24529e-07
2.85419e-07
-4.7536e-07
2.97721e-07
-5.27678e-07
3.08722e-07
-5.81284e-07
3.18429e-07
-6.35971e-07
3.2682e-07
-6.91517e-07
3.33839e-07
-7.47686e-07
3.39402e-07
-8.04221e-07
3.43402e-07
-8.60847e-07
3.45711e-07
-9.1727e-07
3.46192e-07
-9.73175e-07
3.44698e-07
-1.02823e-06
3.41086e-07
-1.08209e-06
3.35217e-07
-1.1344e-06
3.26966e-07
-1.18479e-06
3.16226e-07
-1.23289e-06
3.02911e-07
-1.27831e-06
2.86964e-07
-1.3207e-06
2.68357e-07
-1.35969e-06
2.47095e-07
-1.39492e-06
2.23219e-07
-1.42605e-06
1.96809e-07
-1.45276e-06
1.67983e-07
-1.47477e-06
1.36897e-07
-1.49179e-06
1.03747e-07
-1.50359e-06
6.87696e-08
-1.50997e-06
3.22363e-08
-1.51077e-06
-5.54396e-09
-1.50585e-06
-4.42298e-08
-1.49514e-06
-8.34484e-08
-1.47861e-06
-1.22801e-07
-1.45627e-06
-1.61865e-07
-1.4282e-06
-2.00201e-07
-1.39452e-06
-2.37359e-07
-1.35543e-06
-2.72882e-07
-1.31115e-06
-3.06313e-07
-1.26199e-06
-3.37206e-07
-1.20832e-06
-3.65131e-07
-1.15055e-06
-3.89683e-07
-1.08915e-06
-4.10493e-07
-1.02464e-06
-4.27232e-07
-9.57612e-07
-4.39625e-07
-8.88666e-07
-4.47456e-07
-8.18454e-07
-4.50575e-07
-7.4765e-07
-4.48908e-07
-6.76943e-07
-4.42457e-07
-6.07028e-07
-4.3131e-07
-5.38589e-07
-4.15636e-07
-4.72293e-07
-3.9569e-07
-4.08774e-07
-3.71809e-07
-3.48618e-07
-3.44408e-07
-2.92354e-07
-3.13975e-07
-2.40441e-07
-2.81063e-07
-1.93258e-07
-2.46285e-07
-1.51095e-07
-2.103e-07
-1.14144e-07
-1.73811e-07
-8.24941e-08
-1.37551e-07
-5.61269e-08
-1.0228e-07
-3.49151e-08
-6.87793e-08
-1.86196e-08
-3.78458e-08
-6.89037e-09
-1.02923e-08
7.33302e-10
1.30534e-08
4.82241e-09
3.13467e-08
6.05795e-09
4.37223e-08
5.23178e-09
4.92897e-08
3.24823e-09
4.71301e-08
1.12566e-09
3.62912e-08
1.57338e-08
-3.64112e-09
1.25583e-08
-1.39299e-08
4.15609e-08
-3.02506e-08
7.24854e-08
-5.20189e-08
1.0394e-07
-7.86907e-08
1.34957e-07
-1.09768e-07
1.64849e-07
-1.44802e-07
1.93169e-07
-1.83392e-07
2.19659e-07
-2.25181e-07
2.44206e-07
-2.69857e-07
2.66799e-07
-3.17142e-07
2.87493e-07
-3.66788e-07
3.06379e-07
-4.18569e-07
3.23559e-07
-4.72274e-07
3.39124e-07
-5.27699e-07
3.53146e-07
-5.84641e-07
3.65664e-07
-6.42891e-07
3.7668e-07
-7.02232e-07
3.86161e-07
-7.62429e-07
3.94037e-07
-8.23233e-07
4.00206e-07
-8.84374e-07
4.04542e-07
-9.4556e-07
4.06898e-07
-1.00648e-06
4.07115e-07
-1.06681e-06
4.05028e-07
-1.1262e-06
4.00477e-07
-1.1843e-06
3.93308e-07
-1.24072e-06
3.83386e-07
-1.29508e-06
3.70593e-07
-1.34701e-06
3.54841e-07
-1.39612e-06
3.3607e-07
-1.44202e-06
3.14257e-07
-1.48434e-06
2.89414e-07
-1.52271e-06
2.61593e-07
-1.55679e-06
2.30888e-07
-1.58624e-06
1.97436e-07
-1.61076e-06
1.61417e-07
-1.63007e-06
1.23052e-07
-1.6439e-06
8.26062e-08
-1.65205e-06
4.03852e-08
-1.65433e-06
-3.26562e-09
-1.6506e-06
-4.79658e-08
-1.64075e-06
-9.32987e-08
-1.62473e-06
-1.38819e-07
-1.60254e-06
-1.84055e-07
-1.57422e-06
-2.28515e-07
-1.53989e-06
-2.71691e-07
-1.49971e-06
-3.13069e-07
-1.45389e-06
-3.52132e-07
-1.40272e-06
-3.88371e-07
-1.34656e-06
-4.21294e-07
-1.28581e-06
-4.50434e-07
-1.22094e-06
-4.75359e-07
-1.15249e-06
-4.95682e-07
-1.08104e-06
-5.11073e-07
-1.00723e-06
-5.21266e-07
-9.31738e-07
-5.26071e-07
-8.55268e-07
-5.25378e-07
-7.78558e-07
-5.19168e-07
-7.02353e-07
-5.07515e-07
-6.27398e-07
-4.90591e-07
-5.54422e-07
-4.68666e-07
-4.84126e-07
-4.42105e-07
-4.17166e-07
-4.11368e-07
-3.54141e-07
-3.77e-07
-2.95578e-07
-3.39626e-07
-2.41925e-07
-2.99939e-07
-1.93531e-07
-2.58694e-07
-1.50646e-07
-2.16696e-07
-1.1341e-07
-1.74787e-07
-8.18493e-08
-1.33841e-07
-5.58712e-08
-9.47574e-08
-3.52654e-08
-5.84516e-08
-1.97026e-08
-2.5855e-08
-8.73611e-09
2.0869e-09
-1.80266e-09
2.44132e-08
1.77544e-09
4.01442e-08
2.78896e-09
4.82762e-08
2.1398e-09
4.77793e-08
8.38354e-10
3.75927e-08
1.65722e-08
-4.18823e-09
1.67465e-08
-1.59224e-08
5.32951e-08
-3.44127e-08
9.09756e-08
-5.89244e-08
1.28452e-07
-8.87871e-08
1.64819e-07
-1.23399e-07
1.99461e-07
-1.62228e-07
2.31998e-07
-2.04808e-07
2.6224e-07
-2.50736e-07
2.90134e-07
-2.99661e-07
3.15724e-07
-3.51281e-07
3.39112e-07
-4.05326e-07
3.60425e-07
-4.61559e-07
3.79791e-07
-5.19756e-07
3.97321e-07
-5.79705e-07
4.13095e-07
-6.41194e-07
4.27153e-07
-7.04008e-07
4.39493e-07
-7.67918e-07
4.50071e-07
-8.32681e-07
4.588e-07
-8.98035e-07
4.65561e-07
-9.637e-07
4.70207e-07
-1.02937e-06
4.72571e-07
-1.09473e-06
4.72474e-07
-1.15944e-06
4.69732e-07
-1.22313e-06
4.64169e-07
-1.28544e-06
4.55616e-07
-1.34598e-06
4.43925e-07
-1.40436e-06
4.28975e-07
-1.46019e-06
4.10671e-07
-1.51307e-06
3.88954e-07
-1.56262e-06
3.63802e-07
-1.60844e-06
3.35237e-07
-1.65017e-06
3.0332e-07
-1.68744e-06
2.6816e-07
-1.71991e-06
2.29911e-07
-1.74727e-06
1.88773e-07
-1.76921e-06
1.44992e-07
-1.78546e-06
9.8861e-08
-1.79579e-06
5.07156e-08
-1.8e-06
9.36121e-10
-1.7979e-06
-5.0061e-08
-1.78938e-06
-1.01816e-07
-1.77436e-06
-1.5384e-07
-1.7528e-06
-2.05613e-07
-1.72473e-06
-2.5659e-07
-1.69021e-06
-3.06208e-07
-1.64939e-06
-3.53893e-07
-1.60245e-06
-3.99066e-07
-1.54967e-06
-4.41153e-07
-1.49137e-06
-4.79594e-07
-1.42795e-06
-5.13854e-07
-1.35987e-06
-5.43435e-07
-1.28767e-06
-5.67882e-07
-1.21194e-06
-5.86803e-07
-1.13334e-06
-5.99874e-07
-1.05255e-06
-6.06852e-07
-9.70347e-07
-6.07585e-07
-8.87494e-07
-6.02021e-07
-8.04794e-07
-5.90215e-07
-7.23054e-07
-5.72331e-07
-6.43073e-07
-5.48647e-07
-5.65623e-07
-5.19554e-07
-4.9144e-07
-4.85551e-07
-4.21201e-07
-4.47239e-07
-3.55512e-07
-4.05314e-07
-2.94895e-07
-3.60556e-07
-2.39772e-07
-3.13817e-07
-1.9046e-07
-2.66008e-07
-1.47157e-07
-2.18089e-07
-1.09941e-07
-1.71057e-07
-7.87631e-08
-1.25936e-07
-5.34468e-08
-8.37679e-08
-3.36893e-08
-4.56126e-08
-1.90618e-08
-1.25406e-08
-9.0128e-09
1.43642e-08
-2.87105e-09
3.40024e-08
1.50726e-10
4.52544e-08
9.5152e-10
4.69785e-08
5.34408e-10
3.80098e-08
1.71066e-08
-4.73229e-09
2.14788e-08
-1.79027e-08
6.64655e-08
-3.85478e-08
1.11621e-07
-6.57829e-08
1.55687e-07
-9.88109e-08
1.97847e-07
-1.36926e-07
2.37576e-07
-1.79513e-07
2.74585e-07
-2.26042e-07
3.08768e-07
-2.76058e-07
3.4015e-07
-3.29177e-07
3.68843e-07
-3.85067e-07
3.95002e-07
-4.43442e-07
4.188e-07
-5.04049e-07
4.40398e-07
-5.66656e-07
4.59928e-07
-6.31042e-07
4.77481e-07
-6.96988e-07
4.93099e-07
-7.64271e-07
5.06776e-07
-8.32655e-07
5.18455e-07
-9.0189e-07
5.28034e-07
-9.71705e-07
5.35377e-07
-1.04181e-06
5.40314e-07
-1.1119e-06
5.42657e-07
-1.18163e-06
5.42208e-07
-1.25066e-06
5.38765e-07
-1.31863e-06
5.32134e-07
-1.38515e-06
5.22133e-07
-1.44983e-06
5.08606e-07
-1.51227e-06
4.91421e-07
-1.57208e-06
4.70481e-07
-1.62886e-06
4.45726e-07
-1.68219e-06
4.1714e-07
-1.7317e-06
3.84747e-07
-1.777e-06
3.48621e-07
-1.81773e-06
3.08882e-07
-1.85352e-06
2.65699e-07
-1.88404e-06
2.19293e-07
-1.90897e-06
1.6993e-07
-1.92804e-06
1.17927e-07
-1.94097e-06
6.36486e-08
-1.94754e-06
7.50517e-09
-1.94755e-06
-5.00501e-08
-1.94085e-06
-1.08521e-07
-1.92731e-06
-1.67375e-07
-1.90688e-06
-2.26045e-07
-1.87954e-06
-2.83935e-07
-1.84532e-06
-3.40427e-07
-1.80432e-06
-3.94886e-07
-1.75672e-06
-4.46669e-07
-1.70274e-06
-4.95133e-07
-1.64268e-06
-5.3965e-07
-1.57693e-06
-5.79609e-07
-1.50593e-06
-6.14437e-07
-1.4302e-06
-6.43607e-07
-1.35035e-06
-6.66654e-07
-1.26704e-06
-6.83185e-07
-1.181e-06
-6.92895e-07
-1.093e-06
-6.95579e-07
-1.00388e-06
-6.91141e-07
-9.14494e-07
-6.79604e-07
-8.25706e-07
-6.61118e-07
-7.38393e-07
-6.35961e-07
-6.53408e-07
-6.04539e-07
-5.71572e-07
-5.67388e-07
-4.9365e-07
-5.25161e-07
-4.20337e-07
-4.78627e-07
-3.52241e-07
-4.28652e-07
-2.8987e-07
-3.76189e-07
-2.33613e-07
-3.22264e-07
-1.83741e-07
-2.67961e-07
-1.40391e-07
-2.14408e-07
-1.03564e-07
-1.62762e-07
-7.31273e-08
-1.14205e-07
-4.88082e-08
-6.99317e-08
-3.02012e-08
-3.11476e-08
-1.67696e-08
9.32621e-10
-7.85067e-09
2.50835e-08
-2.66141e-09
4.00651e-08
-3.05694e-10
4.46228e-08
2.16886e-10
3.74872e-08
1.73235e-08
-5.26963e-09
2.67484e-08
-1.98567e-08
8.10526e-08
-4.26255e-08
1.3439e-07
-7.25426e-08
1.85604e-07
-1.08686e-07
2.3399e-07
-1.50246e-07
2.79137e-07
-1.96526e-07
3.20865e-07
-2.4693e-07
3.59173e-07
-3.00957e-07
3.94177e-07
-3.58184e-07
4.2607e-07
-4.18255e-07
4.55073e-07
-4.80864e-07
4.8141e-07
-5.45746e-07
5.0528e-07
-6.12659e-07
5.26841e-07
-6.81375e-07
5.46196e-07
-7.51669e-07
5.63393e-07
-8.23312e-07
5.78419e-07
-8.96063e-07
5.91206e-07
-9.69665e-07
6.01637e-07
-1.04384e-06
6.09555e-07
-1.1183e-06
6.14771e-07
-1.19272e-06
6.17076e-07
-1.26676e-06
6.16252e-07
-1.34008e-06
6.12078e-07
-1.41229e-06
6.04344e-07
-1.48301e-06
5.92856e-07
-1.55185e-06
5.77447e-07
-1.61841e-06
5.57978e-07
-1.68228e-06
5.34349e-07
-1.74305e-06
5.065e-07
-1.80032e-06
4.74415e-07
-1.8537e-06
4.38125e-07
-1.90279e-06
3.97712e-07
-1.94722e-06
3.53305e-07
-1.98661e-06
3.05089e-07
-2.02061e-06
2.53298e-07
-2.0489e-06
1.98218e-07
-2.07116e-06
1.40188e-07
-2.08711e-06
7.95955e-08
-2.09648e-06
1.68794e-08
-2.09906e-06
-4.7475e-08
-2.09464e-06
-1.12937e-07
-2.08309e-06
-1.78933e-07
-2.06428e-06
-2.44852e-07
-2.03816e-06
-3.10048e-07
-2.00474e-06
-3.73848e-07
-1.96407e-06
-4.35558e-07
-1.91627e-06
-4.94467e-07
-1.86154e-06
-5.49865e-07
-1.80015e-06
-6.01045e-07
-1.73244e-06
-6.4732e-07
-1.65884e-06
-6.88035e-07
-1.57986e-06
-7.22581e-07
-1.49611e-06
-7.5041e-07
-1.40824e-06
-7.71052e-07
-1.31701e-06
-7.84126e-07