/*--------------------------------*- C++ -*----------------------------------*\
  =========                 |
  \\      /  F ield         | OpenFOAM: The Open Source CFD Toolbox
   \\    /   O peration     | Website:  https://openfoam.org
    \\  /    A nd           | Version:  7
     \\/     M anipulation  |
\*---------------------------------------------------------------------------*/
FoamFile
{
    version     2.0;
    format      ascii;
    class       surfaceScalarField;
    location    "2.075";
    object      phi;
}
// * * * * * * * * * * * * * * * * * * * * * * * * * * * * * * * * * * * * * //

dimensions      [0 3 -1 0 0 0 0];

internalField   nonuniform List<scalar> 
12640
(
2.20298e-10
-2.30674e-10
6.20076e-10
-3.99727e-10
9.42998e-10
-3.22954e-10
1.05584e-09
-1.12875e-10
8.9905e-10
1.56814e-10
4.53021e-10
4.46065e-10
-2.79283e-10
7.32302e-10
-1.28279e-09
1.00346e-09
-2.53594e-09
1.25313e-09
-4.01414e-09
1.47822e-09
-5.69186e-09
1.67774e-09
-7.54374e-09
1.85189e-09
-9.54534e-09
2.00159e-09
-1.16735e-08
2.12817e-09
-1.39066e-08
2.23311e-09
-1.62246e-08
2.31795e-09
-1.86088e-08
2.38418e-09
-2.10419e-08
2.43314e-09
-2.35079e-08
2.46606e-09
-2.59919e-08
2.48396e-09
-2.84796e-08
2.48769e-09
-3.09575e-08
2.47788e-09
-3.34125e-08
2.45503e-09
-3.58319e-08
2.41944e-09
-3.82032e-08
2.37127e-09
-4.05138e-08
2.3106e-09
-4.27512e-08
2.23739e-09
-4.49027e-08
2.15156e-09
-4.69557e-08
2.05298e-09
-4.88973e-08
1.94155e-09
-5.07144e-08
1.81718e-09
-5.23943e-08
1.67984e-09
-5.39239e-08
1.52961e-09
-5.52906e-08
1.36667e-09
-5.64819e-08
1.19132e-09
-5.74859e-08
1.00404e-09
-5.82914e-08
8.05473e-10
-5.88879e-08
5.96449e-10
-5.92659e-08
3.77999e-10
-5.94172e-08
1.5136e-10
-5.93352e-08
-8.20276e-11
-5.90147e-08
-3.20518e-10
-5.84524e-08
-5.6227e-10
-5.76472e-08
-8.05257e-10
-5.65999e-08
-1.04729e-09
-5.53138e-08
-1.28604e-09
-5.37948e-08
-1.51905e-09
-5.2051e-08
-1.74378e-09
-5.00933e-08
-1.95767e-09
-4.79352e-08
-2.15812e-09
-4.55926e-08
-2.34258e-09
-4.30841e-08
-2.50857e-09
-4.04303e-08
-2.65375e-09
-3.76543e-08
-2.77594e-09
-3.47811e-08
-2.87321e-09
-3.18373e-08
-2.94385e-09
-2.88508e-08
-2.98647e-09
-2.58508e-08
-3.00002e-09
-2.2867e-08
-2.9838e-09
-1.99295e-08
-2.93751e-09
-1.70682e-08
-2.86126e-09
-1.43127e-08
-2.75557e-09
-1.16913e-08
-2.62138e-09
-9.2312e-09
-2.46007e-09
-6.95776e-09
-2.27342e-09
-4.8941e-09
-2.06364e-09
-3.06074e-09
-1.83336e-09
-1.47515e-09
-1.5856e-09
-1.51282e-10
-1.32389e-09
9.00962e-10
-1.05227e-09
1.67631e-09
-7.75371e-10
2.17505e-09
-4.98752e-10
2.40424e-09
-2.2918e-10
2.37949e-09
2.47593e-11
2.12806e-09
2.51448e-10
1.69317e-09
4.34895e-10
1.14092e-09
5.52232e-10
5.71205e-10
5.69702e-10
1.33583e-10
4.37614e-10
1.3358e-10
3.96606e-10
-6.27239e-10
9.11558e-10
-9.1466e-10
1.15102e-09
-5.62476e-10
8.76238e-10
1.61856e-10
-4.70747e-11
1.08009e-09
-1.67791e-09
2.0769e-09
-4.02565e-09
3.08007e-09
-7.06709e-09
4.04492e-09
-1.07593e-08
4.94534e-09
-1.5048e-08
5.76689e-09
-1.9873e-08
6.50274e-09
-2.5172e-08
7.1509e-09
-3.0883e-08
7.71255e-09
-3.69455e-08
8.19071e-09
-4.33019e-08
8.58947e-09
-4.98973e-08
8.9134e-09
-5.66802e-08
9.16712e-09
-6.36021e-08
9.35504e-09
-7.06172e-08
9.48116e-09
-7.76822e-08
9.54897e-09
-8.47559e-08
9.56138e-09
-9.17987e-08
9.52071e-09
-9.87724e-08
9.4287e-09
-1.05639e-07
9.28658e-09
-1.12363e-07
9.0951e-09
-1.18907e-07
8.85465e-09
-1.25235e-07
8.56532e-09
-1.31311e-07
8.22701e-09
-1.37097e-07
7.83957e-09
-1.42559e-07
7.40284e-09
-1.47658e-07
6.91682e-09
-1.5236e-07
6.38172e-09
-1.56629e-07
5.7981e-09
-1.60429e-07
5.16691e-09
-1.63727e-07
4.48963e-09
-1.66491e-07
3.76828e-09
-1.68692e-07
3.00555e-09
-1.703e-07
2.20477e-09
-1.71292e-07
1.37001e-09
-1.71647e-07
5.06063e-10
-1.71347e-07
-3.81549e-10
-1.70381e-07
-1.28658e-09
-1.68741e-07
-2.20208e-09
-1.66426e-07
-3.12047e-09
-1.6344e-07
-4.03361e-09
-1.59793e-07
-4.93283e-09
-1.55503e-07
-5.80911e-09
-1.50593e-07
-6.65313e-09
-1.45096e-07
-7.45542e-09
-1.39047e-07
-8.20656e-09
-1.32493e-07
-8.89722e-09
-1.25483e-07
-9.51845e-09
-1.18075e-07
-1.00617e-08
-1.10331e-07
-1.05192e-08
-1.02321e-07
-1.08839e-08
-9.41148e-08
-1.11497e-08
-8.57898e-08
-1.13116e-08
-7.7424e-08
-1.13658e-08
-6.90979e-08
-1.13099e-08
-6.08925e-08
-1.1143e-08
-5.28882e-08
-1.08655e-08
-4.51643e-08
-1.04795e-08
-3.7797e-08
-9.98863e-09
-3.0859e-08
-9.39806e-09
-2.44178e-08
-8.7146e-09
-1.85349e-08
-7.94662e-09
-1.32641e-08
-7.10413e-09
-8.65092e-09
-6.19881e-09
-4.73065e-09
-5.24418e-09
-1.52715e-09
-4.25578e-09
9.49138e-10
-3.25166e-09
2.70339e-09
-2.25299e-09
3.75941e-09
-1.28519e-09
4.16374e-09
-3.79575e-10
3.991e-09
4.24167e-10
3.35112e-09
1.07475e-09
2.39817e-09
1.50516e-09
1.33909e-09
1.62878e-09
4.35672e-10
1.34101e-09
5.69248e-10
3.26976e-10
-9.54247e-10
5.68507e-10
-1.15625e-09
2.88375e-10
-2.82305e-10
-7.86718e-10
1.23698e-09
-2.82047e-09
3.11385e-09
-5.89216e-09
5.14856e-09
-1.00187e-08
7.20656e-09
-1.51739e-08
9.20016e-09
-2.13028e-08
1.10743e-08
-2.83321e-08
1.27962e-08
-3.61776e-08
1.43482e-08
-4.47498e-08
1.57231e-08
-5.39577e-08
1.69205e-08
-6.37113e-08
1.79443e-08
-7.3923e-08
1.88011e-08
-8.45086e-08
1.9499e-08
-9.53879e-08
2.00465e-08
-1.06485e-07
2.04517e-08
-1.17726e-07
2.07225e-08
-1.29043e-07
2.08657e-08
-1.40368e-07
2.08871e-08
-1.51639e-07
2.07914e-08
-1.62793e-07
2.05823e-08
-1.73768e-07
2.02623e-08
-1.84506e-07
1.98332e-08
-1.94948e-07
1.92961e-08
-2.05034e-07
1.86515e-08
-2.14706e-07
1.78994e-08
-2.23907e-07
1.704e-08
-2.32577e-07
1.60733e-08
-2.4066e-07
1.49997e-08
-2.48099e-07
1.38203e-08
-2.54837e-07
1.25366e-08
-2.60821e-07
1.11511e-08
-2.65999e-07
9.66748e-09
-2.70321e-07
8.0905e-09
-2.73742e-07
6.42624e-09
-2.7622e-07
4.68224e-09
-2.77717e-07
2.86749e-09
-2.78203e-07
9.92503e-10
-2.77654e-07
-9.30695e-10
-2.76052e-07
-2.8886e-09
-2.73388e-07
-4.8663e-09
-2.69661e-07
-6.84757e-09
-2.6488e-07
-8.81504e-09
-2.59062e-07
-1.07503e-08
-2.52237e-07
-1.26343e-08
-2.44443e-07
-1.44474e-08
-2.35728e-07
-1.61696e-08
-2.26154e-07
-1.7781e-08
-2.15789e-07
-1.92622e-08
-2.04713e-07
-2.05945e-08
-1.93015e-07
-2.17599e-08
-1.80792e-07
-2.27422e-08
-1.68149e-07
-2.35267e-08
-1.55198e-07
-2.41007e-08
-1.42056e-07
-2.4454e-08
-1.28843e-07
-2.45786e-08
-1.15683e-07
-2.44698e-08
-1.027e-07
-2.41256e-08
-9.00184e-08
-2.35472e-08
-7.77589e-08
-2.27391e-08
-6.60384e-08
-2.17091e-08
-5.4968e-08
-2.04685e-08
-4.46507e-08
-1.90319e-08
-3.518e-08
-1.74173e-08
-2.66376e-08
-1.56465e-08
-1.90919e-08
-1.37445e-08
-1.25953e-08
-1.17407e-08
-7.1824e-09
-9.66871e-09
-2.86689e-09
-7.56717e-09
3.61302e-10
-5.4812e-09
2.54007e-09
-3.46398e-09
3.73973e-09
-1.57926e-09
4.0689e-09
9.49839e-11
3.68099e-09
1.46266e-09
2.78178e-09
2.40438e-09
1.6355e-09
2.77508e-09
5.68897e-10
2.40762e-09
1.13813e-09
1.20106e-10
-1.07438e-09
-1.57964e-10
-8.78227e-10
-1.24617e-09
8.05936e-10
-3.4109e-09
3.40174e-09
-6.81421e-09
6.51717e-09
-1.15356e-08
9.86991e-09
-1.75905e-08
1.32615e-08
-2.49475e-08
1.65571e-08
-3.35413e-08
1.96681e-08
-4.32842e-08
2.25391e-08
-5.4074e-08
2.5138e-08
-6.58006e-08
2.74497e-08
-7.83503e-08
2.94701e-08
-9.1609e-08
3.1203e-08
-1.05465e-07
3.26568e-08
-1.19808e-07
3.38427e-08
-1.34535e-07
3.47732e-08
-1.49544e-07
3.54607e-08
-1.64739e-07
3.59172e-08
-1.80026e-07
3.61531e-08
-1.95317e-07
3.61778e-08
-2.10524e-07
3.59989e-08
-2.25564e-07
3.56222e-08
-2.40354e-07
3.50522e-08
-2.54813e-07
3.4292e-08
-2.6886e-07
3.33436e-08
-2.82417e-07
3.22083e-08
-2.95405e-07
3.08867e-08
-3.07744e-07
2.93795e-08
-3.19358e-07
2.76874e-08
-3.3017e-07
2.58117e-08
-3.40105e-07
2.37548e-08
-3.49088e-07
2.152e-08
-3.57049e-07
1.91123e-08
-3.6392e-07
1.65386e-08
-3.69637e-07
1.38074e-08
-3.74141e-07
1.09297e-08
-3.77377e-07
7.91891e-09
-3.79301e-07
4.79066e-09
-3.79871e-07
1.56319e-09
-3.79059e-07
-1.74279e-09
-3.76844e-07
-5.10414e-09
-3.73215e-07
-8.49544e-09
-3.68173e-07
-1.18892e-08
-3.61732e-07
-1.52559e-08
-3.53918e-07
-1.85646e-08
-3.44769e-07
-2.17832e-08
-3.34338e-07
-2.48786e-08
-3.2269e-07
-2.78174e-08
-3.09904e-07
-3.05665e-08
-2.96073e-07
-3.30932e-08
-2.81302e-07
-3.53663e-08
-2.65705e-07
-3.73561e-08
-2.49412e-07
-3.90355e-08
-2.32559e-07
-4.03799e-08
-2.15291e-07
-4.13684e-08
-1.97761e-07
-4.19839e-08
-1.80126e-07
-4.22136e-08
-1.62547e-07
-4.20495e-08
-1.45184e-07
-4.14884e-08
-1.28199e-07
-4.05326e-08
-1.11748e-07
-3.91899e-08
-9.59832e-08
-3.74736e-08
-8.10489e-08
-3.54029e-08
-6.70781e-08
-3.30026e-08
-5.41918e-08
-3.03037e-08
-4.24954e-08
-2.73429e-08
-3.20767e-08
-2.41632e-08
-2.30031e-08
-2.08144e-08
-1.53183e-08
-1.73535e-08
-9.03971e-09
-1.38458e-08
-4.15448e-09
-1.03664e-08
-6.15559e-10
-7.00293e-09
1.66296e-09
-3.85781e-09
2.81084e-09
-1.05292e-09
3.00761e-09
1.2659e-09
2.48836e-09
2.92367e-09
1.55012e-09
3.71333e-09
5.61165e-10
3.39657e-09
1.69928e-09
-1.5384e-10
-9.20517e-10
-1.10492e-09
7.28182e-11
-3.19573e-09
2.89675e-09
-6.6545e-09
6.86052e-09
-1.16194e-08
1.14821e-08
-1.81545e-08
1.6405e-08
-2.62637e-08
2.13707e-08
-3.59048e-08
2.61982e-08
-4.70013e-08
3.07646e-08
-5.94521e-08
3.49899e-08
-7.31399e-08
3.88259e-08
-8.79377e-08
4.22474e-08
-1.03713e-07
4.52455e-08
-1.20333e-07
4.78224e-08
-1.37663e-07
4.99877e-08
-1.55576e-07
5.17552e-08
-1.73944e-07
5.3141e-08
-1.92645e-07
5.41618e-08
-2.11561e-07
5.48335e-08
-2.30579e-07
5.51709e-08
-2.49588e-07
5.51868e-08
-2.68481e-07
5.48918e-08
-2.87153e-07
5.42945e-08
-3.05502e-07
5.34014e-08
-3.23427e-07
5.22173e-08
-3.40829e-07
5.07454e-08
-3.57609e-07
4.8988e-08
-3.73669e-07
4.69469e-08
-3.88913e-07
4.46234e-08
-4.03245e-07
4.20196e-08
-4.16572e-07
3.91384e-08
-4.28801e-07
3.59838e-08
-4.39843e-07
3.25621e-08
-4.49612e-07
2.88814e-08
-4.58026e-07
2.49527e-08
-4.65009e-07
2.07899e-08
-4.70489e-07
1.64101e-08
-4.74404e-07
1.18339e-08
-4.76699e-07
7.08542e-09
-4.77328e-07
2.19236e-09
-4.76257e-07
-2.81391e-09
-4.73463e-07
-7.89852e-09
-4.68935e-07
-1.30233e-08
-4.62677e-07
-1.81471e-08
-4.54707e-07
-2.32261e-08
-4.45057e-07
-2.82141e-08
-4.33777e-07
-3.30633e-08
-4.20931e-07
-3.7725e-08
-4.06599e-07
-4.21496e-08
-3.90877e-07
-4.62882e-08
-3.73877e-07
-5.00928e-08
-3.55727e-07
-5.35171e-08
-3.36565e-07
-5.65175e-08
-3.16547e-07
-5.9054e-08
-2.95836e-07
-6.10908e-08
-2.74607e-07
-6.25969e-08
-2.53044e-07
-6.35473e-08
-2.31334e-07
-6.39232e-08
-2.09671e-07
-6.37129e-08
-1.88247e-07
-6.29119e-08
-1.67256e-07
-6.15239e-08
-1.46886e-07
-5.95603e-08
-1.27318e-07
-5.70413e-08
-1.08725e-07
-5.39955e-08
-9.12677e-08
-5.04601e-08
-7.50902e-08
-4.64812e-08
-6.03192e-08
-4.21138e-08
-4.70601e-08
-3.74223e-08
-3.53937e-08
-3.24808e-08
-2.53734e-08
-2.73738e-08
-1.70213e-08
-2.21978e-08
-1.0325e-08
-1.70628e-08
-5.23322e-09
-1.20947e-08
-1.65209e-09
-7.43893e-09
5.5951e-10
-3.26451e-09
1.59453e-09
2.30889e-10
1.70286e-09
2.81534e-09
1.19761e-09
4.21857e-09
4.65596e-10
4.12858e-09
2.16488e-09
-4.58494e-10
-4.61985e-10
-2.17051e-09
1.78484e-09
-5.38734e-09
6.11355e-09
-1.02783e-08
1.17514e-08
-1.69413e-08
1.81452e-08
-2.54123e-08
2.4876e-08
-3.56745e-08
3.1633e-08
-4.76693e-08
3.8193e-08
-6.13055e-08
4.44007e-08
-7.64679e-08
5.01523e-08
-9.30249e-08
5.53828e-08
-1.10834e-07
6.00566e-08
-1.29747e-07
6.41588e-08
-1.49614e-07
6.76894e-08
-1.70285e-07
7.06583e-08
-1.91611e-07
7.30816e-08
-2.13449e-07
7.49787e-08
-2.35658e-07
7.63701e-08
-2.581e-07
7.72759e-08
-2.80644e-07
7.77148e-08
-3.0316e-07
7.77031e-08
-3.25523e-07
7.72548e-08
-3.4761e-07
7.63812e-08
-3.69299e-07
7.5091e-08
-3.90473e-07
7.3391e-08
-4.11014e-07
7.12859e-08
-4.30805e-07
6.87794e-08
-4.49733e-07
6.58744e-08
-4.67683e-07
6.25739e-08
-4.84545e-07
5.88815e-08
-5.00209e-07
5.48021e-08
-5.14567e-07
5.03425e-08
-5.27518e-07
4.55123e-08
-5.3896e-07
4.03238e-08
-5.48801e-07
3.47934e-08
-5.56952e-07
2.8941e-08
-5.63333e-07
2.27914e-08
-5.67873e-07
1.63736e-08
-5.70509e-07
9.72179e-09
-5.71191e-07
2.87482e-09
-5.69882e-07
-4.12357e-09
-5.66555e-07
-1.1225e-08
-5.61202e-07
-1.83765e-08
-5.53828e-07
-2.55214e-08
-5.44455e-07
-3.25992e-08
-5.33122e-07
-3.95466e-08
-5.19887e-07
-4.62981e-08
-5.04826e-07
-5.27867e-08
-4.8803e-07
-5.89449e-08
-4.69613e-07
-6.47058e-08
-4.49702e-07
-7.00037e-08
-4.28443e-07
-7.47757e-08
-4.05998e-07
-7.89623e-08
-3.82543e-07
-8.2509e-08
-3.58267e-07
-8.53669e-08
-3.3337e-07
-8.74939e-08
-3.08062e-07
-8.88559e-08
-2.82558e-07
-8.94273e-08
-2.57079e-07
-8.9192e-08
-2.31846e-07
-8.81443e-08
-2.07081e-07
-8.62889e-08
-1.82999e-07
-8.36419e-08
-1.5981e-07
-8.02309e-08
-1.3771e-07
-7.6095e-08
-1.16885e-07
-7.12856e-08
-9.74999e-08
-6.58662e-08
-7.97015e-08
-5.99122e-08
-6.36115e-08
-5.35123e-08
-4.93245e-08
-4.67678e-08
-3.69041e-08
-3.97943e-08
-2.63792e-08
-3.27227e-08
-1.77411e-08
-2.57009e-08
-1.09392e-08
-1.88966e-08
-5.87776e-09
-1.25003e-08
-2.4123e-09
-6.72996e-09
-3.45667e-10
-1.83575e-09
5.75984e-10
1.89366e-09
6.68361e-10
4.12618e-09
3.17332e-10
4.4796e-09
2.48223e-09
-7.74459e-10
3.12473e-10
-3.29287e-09
4.30329e-09
-7.70749e-09
1.05282e-08
-1.41176e-08
1.81615e-08
-2.25699e-08
2.65975e-08
-3.30622e-08
3.53683e-08
-4.55496e-08
4.41203e-08
-5.99509e-08
5.25944e-08
-7.61568e-08
6.06066e-08
-9.4036e-08
6.80315e-08
-1.13442e-07
7.47886e-08
-1.34217e-07
8.08321e-08
-1.562e-07
8.61412e-08
-1.79224e-07
9.07134e-08
-2.03124e-07
9.45586e-08
-2.27737e-07
9.76947e-08
-2.52903e-07
1.00144e-07
-2.78463e-07
1.01931e-07
-3.04267e-07
1.03079e-07
-3.30163e-07
1.03611e-07
-3.56007e-07
1.03547e-07
-3.81657e-07
1.02904e-07
-4.06972e-07
1.01696e-07
-4.31816e-07
9.99347e-08
-4.56053e-07
9.76281e-08
-4.7955e-07
9.4783e-08
-5.02175e-07
9.14046e-08
-5.23798e-07
8.74978e-08
-5.44291e-07
8.3067e-08
-5.63528e-07
7.81183e-08
-5.81385e-07
7.2659e-08
-5.97742e-07
6.66994e-08
-6.12483e-07
6.0253e-08
-6.25496e-07
5.33374e-08
-6.36678e-07
4.59749e-08
-6.4593e-07
3.8193e-08
-6.53163e-07
3.00248e-08
-6.58299e-07
2.15095e-08
-6.6127e-07
1.26924e-08
-6.6202e-07
3.6249e-09
-6.60508e-07
-5.6353e-09
-6.56708e-07
-1.50246e-08
-6.50611e-07
-2.44739e-08
-6.42224e-07
-3.39089e-08
-6.31572e-07
-4.32508e-08
-6.18701e-07
-5.24173e-08
-6.03676e-07
-6.13233e-08
-5.86581e-07
-6.98819e-08
-5.6752e-07
-7.80056e-08
-5.46618e-07
-8.56076e-08
-5.24019e-07
-9.2603e-08
-4.99884e-07
-9.89103e-08
-4.74394e-07
-1.04453e-07
-4.47744e-07
-1.09159e-07
-4.20144e-07
-1.12967e-07
-3.91816e-07
-1.15821e-07
-3.62994e-07
-1.17678e-07
-3.33918e-07
-1.18504e-07
-3.04832e-07
-1.18278e-07
-2.75985e-07
-1.16992e-07
-2.47621e-07
-1.14653e-07
-2.19982e-07
-1.11281e-07
-1.93301e-07
-1.06912e-07
-1.67799e-07
-1.01597e-07
-1.43682e-07
-9.54022e-08
-1.21138e-07
-8.84101e-08
-1.00332e-07
-8.07189e-08
-8.14009e-08
-7.24431e-08
-6.44545e-08
-6.37142e-08
-4.95678e-08
-5.4681e-08
-3.67791e-08
-4.55113e-08
-2.60866e-08
-3.63935e-08
-1.74446e-08
-2.75386e-08
-1.0761e-08
-1.9184e-08
-5.89394e-09
-1.1597e-08
-2.64949e-09
-5.08021e-09
-7.78272e-10
2.24213e-11
2.74636e-11
3.32044e-09
1.3886e-10
4.36821e-09
2.62111e-09
-1.09157e-09
1.404e-09
-4.43473e-09
7.64647e-09
-1.00835e-08
1.61769e-08
-1.80618e-08
2.61399e-08
-2.83585e-08
3.68941e-08
-4.09265e-08
4.79363e-08
-5.56862e-08
5.888e-08
-7.25294e-08
6.94376e-08
-9.13246e-08
7.94018e-08
-1.11922e-07
8.86289e-08
-1.34159e-07
9.70255e-08
-1.57863e-07
1.04537e-07
-1.82858e-07
1.11136e-07
-2.08965e-07
1.1682e-07
-2.36003e-07
1.21597e-07
-2.63797e-07
1.25488e-07
-2.9217e-07
1.28518e-07
-3.20953e-07
1.30714e-07
-3.49977e-07
1.32104e-07
-3.7908e-07
1.32714e-07
-4.08099e-07
1.32567e-07
-4.3688e-07
1.31684e-07
-4.65266e-07
1.30083e-07
-4.93106e-07
1.27775e-07
-5.20251e-07
1.24773e-07
-5.46552e-07
1.21084e-07
-5.71864e-07
1.16716e-07
-5.96042e-07
1.11676e-07
-6.18945e-07
1.0597e-07
-6.40433e-07
9.96063e-08
-6.6037e-07
9.25962e-08
-6.78624e-07
8.49536e-08
-6.95068e-07
7.66968e-08
-7.0958e-07
6.78492e-08
-7.22045e-07
5.84401e-08
-7.32357e-07
4.85053e-08
-7.4042e-07
3.80875e-08
-7.46147e-07
2.72369e-08
-7.49466e-07
1.6011e-08
-7.50316e-07
4.47539e-09
-7.48654e-07
-7.29724e-09
-7.44452e-07
-1.92267e-08
-7.377e-07
-3.12261e-08
-7.28407e-07
-4.32022e-08
-7.16601e-07
-5.50565e-08
-7.02333e-07
-6.66859e-08
-6.85672e-07
-7.79841e-08
-6.66711e-07
-8.88427e-08
-6.45564e-07
-9.91526e-08
-6.22366e-07
-1.08806e-07
-5.97273e-07
-1.17696e-07
-5.70462e-07
-1.25722e-07
-5.42127e-07
-1.32787e-07
-5.12482e-07
-1.38804e-07
-4.81755e-07
-1.43694e-07
-4.50189e-07
-1.47388e-07
-4.18037e-07
-1.4983e-07
-3.85561e-07
-1.5098e-07
-3.53028e-07
-1.5081e-07
-3.20709e-07
-1.49311e-07
-2.88873e-07
-1.46489e-07
-2.57783e-07
-1.4237e-07
-2.27697e-07
-1.36999e-07
-1.98856e-07
-1.30437e-07
-1.7149e-07
-1.22768e-07
-1.45805e-07
-1.14095e-07
-1.21985e-07
-1.04539e-07
-1.00186e-07
-9.42425e-08
-8.0531e-08
-8.3369e-08
-6.31096e-08
-7.21024e-08
-4.79716e-08
-6.06493e-08
-3.51252e-08
-4.92398e-08
-2.45337e-08
-3.81301e-08
-1.61129e-08
-2.76048e-08
-9.72902e-09
-1.79809e-08
-5.19678e-09
-9.61246e-09
-2.27798e-09
-2.89638e-09
-6.80042e-10
1.72252e-09
-5.54673e-11
3.74365e-09
2.56565e-09
-1.40451e-09
2.80849e-09
-5.57422e-09
1.18162e-08
-1.24693e-08
2.3072e-08
-2.20374e-08
3.5708e-08
-3.42055e-08
4.90623e-08
-4.88777e-08
6.26085e-08
-6.59351e-08
7.59374e-08
-8.52384e-08
8.87409e-08
-1.06631e-07
1.00794e-07
-1.29941e-07
1.1194e-07
-1.5499e-07
1.22074e-07
-1.81589e-07
1.31135e-07
-2.09547e-07
1.39094e-07
-2.38671e-07
1.45944e-07
-2.6877e-07
1.51696e-07
-2.99653e-07
1.56371e-07
-3.31133e-07
1.59998e-07
-3.63027e-07
1.62607e-07
-3.95154e-07
1.6423e-07
-4.27337e-07
1.64897e-07
-4.59403e-07
1.64633e-07
-4.91183e-07
1.63464e-07
-5.22508e-07
1.61407e-07
-5.53213e-07
1.5848e-07
-5.83136e-07
1.54696e-07
-6.12116e-07
1.50064e-07
-6.39994e-07
1.44594e-07
-6.66613e-07
1.38296e-07
-6.9182e-07
1.31177e-07
-7.15464e-07
1.2325e-07
-7.37397e-07
1.14529e-07
-7.57476e-07
1.05032e-07
-7.75563e-07
9.47839e-08
-7.91527e-07
8.38134e-08
-8.05245e-07
7.2158e-08
-8.16602e-07
5.98625e-08
-8.25495e-07
4.698e-08
-8.31831e-07
3.35727e-08
-8.35531e-07
1.97115e-08
-8.36532e-07
5.47667e-09
-8.34787e-07
-9.04259e-09
-8.30265e-07
-2.37485e-08
-8.22956e-07
-3.8535e-08
-8.1287e-07
-5.32889e-08
-8.00036e-07
-6.78904e-08
-7.84507e-07
-8.22144e-08
-7.66359e-07
-9.61321e-08
-7.4569e-07
-1.09512e-07
-7.22621e-07
-1.22222e-07
-6.97295e-07
-1.34131e-07
-6.69881e-07
-1.4511e-07
-6.40565e-07
-1.55037e-07
-6.09557e-07
-1.63795e-07
-5.77085e-07
-1.71277e-07
-5.43393e-07
-1.77386e-07
-5.08741e-07
-1.8204e-07
-4.73401e-07
-1.8517e-07
-4.37655e-07
-1.86726e-07
-4.01792e-07
-1.86673e-07
-3.66103e-07
-1.85e-07
-3.30878e-07
-1.81714e-07
-2.96405e-07
-1.76844e-07
-2.62961e-07
-1.70443e-07
-2.30811e-07
-1.62587e-07
-2.00205e-07
-1.53375e-07
-1.71371e-07
-1.42929e-07
-1.44511e-07
-1.31399e-07
-1.19799e-07
-1.18954e-07
-9.73765e-08
-1.05791e-07
-7.7348e-08
-9.21309e-08
-5.97777e-08
-7.82196e-08
-4.46868e-08
-6.43307e-08
-3.2051e-08
-5.07659e-08
-2.17979e-08
-3.78578e-08
-1.3806e-08
-2.59728e-08
-7.90306e-09
-1.55153e-08
-3.86674e-09
-6.93269e-09
-1.42467e-09
-7.19539e-10
-2.56903e-10
2.57589e-09
2.30874e-09
-1.71061e-09
4.51913e-09
-6.69862e-09
1.68042e-08
-1.4836e-08
3.12094e-08
-2.59953e-08
4.68673e-08
-4.00409e-08
6.31079e-08
-5.6825e-08
7.93927e-08
-7.61868e-08
9.52992e-08
-9.79526e-08
1.10507e-07
-1.21938e-07
1.24779e-07
-1.47949e-07
1.3795e-07
-1.75785e-07
1.49911e-07
-2.05243e-07
1.60594e-07
-2.36118e-07
1.69968e-07
-2.68202e-07
1.78029e-07
-3.01292e-07
1.84786e-07
-3.35186e-07
1.90265e-07
-3.69686e-07
1.94497e-07
-4.04595e-07
1.97517e-07
-4.39722e-07
1.99358e-07
-4.7488e-07
2.00055e-07
-5.09884e-07
1.99637e-07
-5.44551e-07
1.98131e-07
-5.78704e-07
1.9556e-07
-6.12165e-07
1.91941e-07
-6.4476e-07
1.87291e-07
-6.76317e-07
1.81621e-07
-7.06665e-07
1.74943e-07
-7.35638e-07
1.67268e-07
-7.6307e-07
1.58609e-07
-7.88799e-07
1.48979e-07
-8.12668e-07
1.38398e-07
-8.34524e-07
1.26888e-07
-8.5422e-07
1.1448e-07
-8.71615e-07
1.01209e-07
-8.86579e-07
8.71217e-08
-8.98989e-07
7.22722e-08
-9.08733e-07
5.67249e-08
-9.15715e-07
4.05545e-08
-9.1985e-07
2.38462e-08
-9.21069e-07
6.69585e-09
-9.19322e-07
-1.07901e-08
-9.14575e-07
-2.84951e-08
-9.06817e-07
-4.62933e-08
-8.96056e-07
-6.40501e-08
-8.82322e-07
-8.16235e-08
-8.65672e-07
-9.88654e-08
-8.46181e-07
-1.15623e-07
-8.23953e-07
-1.3174e-07
-7.99114e-07
-1.47061e-07
-7.71816e-07
-1.61429e-07
-7.42234e-07
-1.74693e-07
-7.10566e-07
-1.86706e-07
-6.77031e-07
-1.9733e-07
-6.41871e-07
-2.06437e-07
-6.05344e-07
-2.13912e-07
-5.67727e-07
-2.19657e-07
-5.29308e-07
-2.23589e-07
-4.90389e-07
-2.25645e-07
-4.51276e-07
-2.25786e-07
-4.12281e-07
-2.23994e-07
-3.73718e-07
-2.20277e-07
-3.35892e-07
-2.14669e-07
-2.99106e-07
-2.07229e-07
-2.63646e-07
-1.98047e-07
-2.29783e-07
-1.87238e-07
-1.97766e-07
-1.74946e-07
-1.67819e-07
-1.61346e-07
-1.40136e-07
-1.46637e-07
-1.14876e-07
-1.31051e-07
-9.21631e-08
-1.14844e-07
-7.20772e-08
-9.83055e-08
-5.46561e-08
-8.17519e-08
-3.98906e-08
-6.55314e-08
-2.77237e-08
-5.00247e-08
-1.80492e-08
-3.56473e-08
-1.07119e-08
-2.28527e-08
-5.50798e-09
-1.21366e-08
-2.1879e-09
-4.03961e-09
-4.60384e-10
8.48384e-10
1.84835e-09
-2.00863e-09
6.52778e-09
-7.80057e-09
2.25962e-08
-1.71654e-08
4.05743e-08
-2.99033e-08
5.96051e-08
-4.5816e-08
7.90206e-08
-6.47033e-08
9.82799e-08
-8.63603e-08
1.16956e-07
-1.10577e-07
1.34724e-07
-1.37139e-07
1.51341e-07
-1.65829e-07
1.6664e-07
-1.96424e-07
1.80506e-07
-2.28704e-07
1.92874e-07
-2.62449e-07
2.03713e-07
-2.97439e-07
2.13018e-07
-3.33457e-07
2.20805e-07
-3.70291e-07
2.271e-07
-4.07732e-07
2.31938e-07
-4.45573e-07
2.35358e-07
-4.83613e-07
2.37398e-07
-5.21655e-07
2.38096e-07
-5.59503e-07
2.37485e-07
-5.96965e-07
2.35594e-07
-6.33853e-07
2.32448e-07
-6.6998e-07
2.28068e-07
-7.05161e-07
2.22472e-07
-7.39214e-07
2.15674e-07
-7.71959e-07
2.07688e-07
-8.03218e-07
1.98527e-07
-8.32817e-07
1.88208e-07
-8.60584e-07
1.76747e-07
-8.86353e-07
1.64167e-07
-9.09962e-07
1.50497e-07
-9.31254e-07
1.35772e-07
-9.50082e-07
1.20037e-07
-9.66306e-07
1.03346e-07
-9.79797e-07
8.57632e-08
-9.90437e-07
6.73649e-08
-9.98122e-07
4.82389e-08
-1.00276e-06
2.84852e-08
-1.00428e-06
8.21605e-09
-1.00263e-06
-1.24443e-08
-9.97762e-07
-3.33598e-08
-9.89671e-07
-5.43839e-08
-9.78362e-07
-7.53599e-08
-9.63863e-07
-9.61225e-08
-9.46229e-07
-1.16499e-07
-9.25539e-07
-1.36313e-07
-9.01898e-07
-1.55381e-07
-8.75436e-07
-1.73522e-07
-8.46309e-07
-1.90555e-07
-8.147e-07
-2.06302e-07
-7.80813e-07
-2.20593e-07
-7.44879e-07
-2.33264e-07
-7.07149e-07
-2.44167e-07
-6.67895e-07
-2.53166e-07
-6.27407e-07
-2.60145e-07
-5.8599e-07
-2.65005e-07
-5.43963e-07
-2.67673e-07
-5.01651e-07
-2.68098e-07
-4.59386e-07
-2.66259e-07
-4.17502e-07
-2.62162e-07
-3.76328e-07
-2.55843e-07
-3.36186e-07
-2.47371e-07
-2.97388e-07
-2.36845e-07
-2.60226e-07
-2.244e-07
-2.24972e-07
-2.102e-07
-1.91874e-07
-1.94444e-07
-1.61145e-07
-1.77365e-07
-1.32969e-07
-1.59227e-07
-1.07486e-07
-1.40327e-07
-8.47988e-08
-1.20993e-07
-6.49626e-08
-1.01588e-07
-4.79869e-08
-8.2507e-08
-3.38328e-08
-6.41789e-08
-2.24122e-08
-4.70679e-08
-1.35889e-08
-3.1676e-08
-7.17989e-09
-1.85455e-08
-2.95922e-09
-8.26027e-09
-6.63263e-10
-1.44757e-09
1.18509e-09
-2.298e-09
8.8258e-09
-8.87583e-09
2.9174e-08
-1.94462e-08
5.11446e-08
-3.37396e-08
7.38985e-08
-5.14971e-08
9.6778e-08
-7.24656e-08
1.19248e-07
-9.63958e-08
1.40886e-07
-1.2304e-07
1.61368e-07
-1.52153e-07
1.80454e-07
-1.8349e-07
1.97977e-07
-2.16809e-07
2.13825e-07
-2.5187e-07
2.27935e-07
-2.88438e-07
2.4028e-07
-3.26279e-07
2.50859e-07
-3.65166e-07
2.59691e-07
-4.04874e-07
2.66808e-07
-4.45186e-07
2.72249e-07
-4.85885e-07
2.76057e-07
-5.26761e-07
2.78274e-07
-5.67607e-07
2.78942e-07
-6.08219e-07
2.78097e-07
-6.48398e-07
2.75772e-07
-6.87944e-07
2.71994e-07
-7.26663e-07
2.66787e-07
-7.64362e-07
2.6017e-07
-8.00848e-07
2.5216e-07
-8.35934e-07
2.42774e-07
-8.69433e-07
2.32026e-07
-9.01161e-07
2.19936e-07
-9.30939e-07
2.06525e-07
-9.58592e-07
1.9182e-07
-9.83949e-07
1.75854e-07
-1.00685e-06
1.5867e-07
-1.02713e-06
1.40319e-07
-1.04465e-06
1.20865e-07
-1.05927e-06
1.00383e-07
-1.07086e-06
7.89612e-08
-1.07933e-06
5.67001e-08
-1.08456e-06
3.37151e-08
-1.08648e-06
1.01355e-08
-1.08502e-06
-1.38961e-08
-1.08016e-06
-3.82239e-08
-1.07186e-06
-6.26798e-08
-1.06014e-06
-8.70843e-08
-1.04501e-06
-1.11248e-07
-1.02654e-06
-1.34974e-07
-1.00479e-06
-1.58057e-07
-9.79885e-07
-1.80291e-07
-9.51941e-07
-2.01466e-07
-9.21124e-07
-2.21373e-07
-8.87618e-07
-2.39808e-07
-8.51636e-07
-2.56574e-07
-8.13415e-07
-2.71485e-07
-7.73217e-07
-2.84365e-07
-7.31324e-07
-2.95059e-07
-6.8804e-07
-3.03429e-07
-6.43684e-07
-3.09361e-07
-5.98592e-07
-3.12765e-07
-5.53107e-07
-3.13583e-07
-5.07582e-07
-3.11784e-07
-4.62371e-07
-3.07373e-07
-4.17825e-07
-3.00389e-07
-3.74291e-07
-2.90905e-07
-3.32103e-07
-2.79033e-07
-2.91579e-07
-2.64924e-07
-2.53015e-07
-2.48763e-07
-2.16683e-07
-2.30777e-07
-1.82822e-07
-2.11227e-07
-1.51636e-07
-1.90413e-07
-1.23291e-07
-1.68671e-07
-9.79111e-08
-1.46373e-07
-7.55731e-08
-1.23926e-07
-5.63076e-08
-1.01773e-07
-4.00959e-08
-8.03905e-08
-2.68707e-08
-6.02931e-08
-1.65163e-08
-4.20303e-08
-8.87166e-09
-2.61902e-08
-3.73377e-09
-1.33982e-08
-8.64508e-10
-4.31683e-09
3.20584e-10
-2.5785e-09
1.14043e-08
-9.92191e-09
3.65174e-08
-2.16709e-08
6.28936e-08
-3.74897e-08
8.97174e-08
-5.70602e-08
1.16349e-07
-8.00776e-08
1.42266e-07
-1.06248e-07
1.67057e-07
-1.35285e-07
1.90406e-07
-1.66913e-07
2.12082e-07
-2.00859e-07
2.31923e-07
-2.36859e-07
2.49825e-07
-2.74655e-07
2.65731e-07
-3.13995e-07
2.7962e-07
-3.54633e-07
2.91498e-07
-3.9633e-07
3.01388e-07
-4.3885e-07
3.09329e-07
-4.81967e-07
3.15366e-07
-5.25456e-07
3.19546e-07
-5.69098e-07
3.21917e-07
-6.12679e-07
3.22523e-07
-6.55987e-07
3.21406e-07
-6.98815e-07
3.186e-07
-7.40956e-07
3.14136e-07
-7.82208e-07
3.08039e-07
-8.2237e-07
3.00332e-07
-8.61243e-07
2.91033e-07
-8.98631e-07
2.80161e-07
-9.34338e-07
2.67734e-07
-9.68176e-07
2.53774e-07
-9.99955e-07
2.38304e-07
-1.02949e-06
2.21358e-07
-1.05661e-06
2.02973e-07
-1.08114e-06
1.83199e-07
-1.10292e-06
1.62095e-07
-1.12178e-06
1.39733e-07
-1.1376e-06
1.16198e-07
-1.15023e-06
9.15919e-08
-1.15956e-06
6.60283e-08
-1.16548e-06
3.9638e-08
-1.16791e-06
1.2567e-08
-1.16679e-06
-1.50232e-08
-1.16205e-06
-4.29566e-08
-1.15369e-06
-7.10432e-08
-1.14169e-06
-9.90801e-08
-1.12609e-06
-1.26854e-07
-1.10692e-06
-1.5414e-07
-1.08427e-06
-1.80709e-07
-1.05824e-06
-2.06324e-07
-1.02895e-06
-2.30749e-07
-9.96579e-07
-2.53747e-07
-9.61303e-07
-2.75084e-07
-9.23342e-07
-2.94536e-07
-8.82938e-07
-3.11889e-07
-8.40361e-07
-3.26942e-07
-7.95904e-07
-3.39516e-07
-7.49882e-07
-3.49451e-07
-7.02629e-07
-3.56613e-07
-6.54496e-07
-3.60898e-07
-6.05846e-07
-3.62233e-07
-5.5705e-07
-3.6058e-07
-5.08484e-07
-3.55939e-07
-4.60523e-07
-3.48349e-07
-4.13539e-07
-3.37889e-07
-3.67891e-07
-3.24682e-07
-3.23922e-07
-3.08892e-07
-2.81957e-07
-2.90728e-07
-2.42293e-07
-2.70441e-07
-2.05195e-07
-2.48324e-07
-1.70897e-07
-2.24712e-07
-1.39587e-07
-1.9998e-07
-1.11416e-07
-1.74544e-07
-8.64843e-08
-1.48858e-07
-6.48462e-08
-1.23411e-07
-4.65059e-08
-9.87308e-08
-3.14183e-08
-7.53807e-08
-1.94897e-08
-5.39589e-08
-1.05807e-08
-3.50991e-08
-4.51072e-09
-1.94681e-08
-1.06418e-09
-7.76337e-09
-7.43586e-10
-2.85005e-09
1.42543e-08
-1.09373e-08
4.46047e-08
-2.38344e-08
7.57908e-08
-4.1143e-08
1.07026e-07
-6.24876e-08
1.37693e-07
-8.75129e-08
1.67291e-07
-1.15881e-07
1.95425e-07
-1.47268e-07
2.21793e-07
-1.81365e-07
2.46178e-07
-2.17874e-07
2.68431e-07
-2.56506e-07
2.88458e-07
-2.96986e-07
3.06211e-07
-3.39044e-07
3.21679e-07
-3.82423e-07
3.34876e-07
-4.2687e-07
3.45835e-07
-4.72142e-07
3.54601e-07
-5.18001e-07
3.61225e-07
-5.64216e-07
3.65761e-07
-6.10561e-07
3.68262e-07
-6.56814e-07
3.68776e-07
-7.02758e-07
3.67349e-07
-7.48177e-07
3.64019e-07
-7.92859e-07
3.58818e-07
-8.36596e-07
3.51776e-07
-8.7918e-07
3.42915e-07
-9.20405e-07
3.32258e-07
-9.60068e-07
3.19824e-07
-9.97969e-07
3.05635e-07
-1.03391e-06
2.89714e-07
-1.06769e-06
2.7209e-07
-1.09914e-06
2.52799e-07
-1.12805e-06
2.31884e-07
-1.15425e-06
2.09402e-07
-1.17757e-06
1.85419e-07
-1.19786e-06
1.60016e-07
-1.21495e-06
1.33289e-07
-1.22871e-06
1.0535e-07
-1.23901e-06
7.63287e-08
-1.24574e-06
4.63699e-08
-1.24881e-06
1.56368e-08
-1.24814e-06
-1.56905e-08
-1.24368e-06
-4.74153e-08
-1.2354e-06
-7.93257e-08
-1.22328e-06
-1.11195e-07
-1.20735e-06
-1.42784e-07
-1.18765e-06
-1.73843e-07
-1.16424e-06
-2.04114e-07
-1.13724e-06
-2.33332e-07
-1.10676e-06
-2.6123e-07
-1.07296e-06
-2.87542e-07
-1.03604e-06
-3.12005e-07
-9.96211e-07
-3.34364e-07
-9.53723e-07
-3.54377e-07
-9.0885e-07
-3.71815e-07
-8.61895e-07
-3.86471e-07
-8.13184e-07
-3.98162e-07
-7.63063e-07
-4.06734e-07
-7.11901e-07
-4.12061e-07
-6.60076e-07
-4.14057e-07
-6.07983e-07
-4.12674e-07
-5.56018e-07
-4.07904e-07
-5.04583e-07
-3.99784e-07
-4.54073e-07
-3.88399e-07
-4.04875e-07
-3.73879e-07
-3.57363e-07
-3.56405e-07
-3.11888e-07
-3.36203e-07
-2.68778e-07
-3.13551e-07
-2.28329e-07
-2.88773e-07
-1.908e-07
-2.6224e-07
-1.56412e-07
-2.34368e-07
-1.25342e-07
-2.05615e-07
-9.77169e-08
-1.76482e-07
-7.36178e-08
-1.4751e-07
-5.30734e-08
-1.19275e-07
-3.60624e-08
-9.23917e-08
-2.2514e-08
-6.75074e-08
-1.23105e-08
-4.53026e-08
-5.29216e-09
-2.64865e-08
-1.2631e-09
-1.17924e-08
-2.00667e-09
-3.1126e-09
1.73669e-08
-1.19208e-08
5.34129e-08
-2.59332e-08
8.98032e-08
-4.46914e-08
1.25784e-07
-6.77654e-08
1.60767e-07
-9.4751e-08
1.94277e-07
-1.25267e-07
2.2594e-07
-1.58953e-07
2.55479e-07
-1.95466e-07
2.82692e-07
-2.34483e-07
3.07448e-07
-2.75692e-07
3.29667e-07
-3.18798e-07
3.49317e-07
-3.63517e-07
3.66398e-07
-4.09576e-07
3.80935e-07
-4.56713e-07
3.92972e-07
-5.04674e-07
4.02562e-07
-5.53214e-07
4.09765e-07
-6.02095e-07
4.14641e-07
-6.51083e-07
4.1725e-07
-6.9995e-07
4.17644e-07
-7.48474e-07
4.15873e-07
-7.96434e-07
4.11979e-07
-8.43612e-07
4.05997e-07
-8.89795e-07
3.97958e-07
-9.34768e-07
3.87889e-07
-9.78321e-07
3.75811e-07
-1.02024e-06
3.61749e-07
-1.06033e-06
3.45724e-07
-1.09838e-06
3.27763e-07
-1.13419e-06
3.079e-07
-1.16757e-06
2.86172e-07
-1.19831e-06
2.6263e-07
-1.22624e-06
2.37334e-07
-1.25119e-06
2.1036e-07
-1.27297e-06
1.81796e-07
-1.29143e-06
1.51749e-07
-1.30642e-06
1.20343e-07
-1.31781e-06
8.77198e-08
-1.32548e-06
5.40399e-08
-1.32933e-06
1.94835e-08
-1.32927e-06
-1.57508e-08
-1.32524e-06
-5.14461e-08
-1.31719e-06
-8.7368e-08
-1.30512e-06
-1.23266e-07
-1.28903e-06
-1.58876e-07
-1.26895e-06
-1.9392e-07
-1.24495e-06
-2.28113e-07
-1.21713e-06
-2.61158e-07
-1.1856e-06
-2.92761e-07
-1.15052e-06
-3.22621e-07