/*--------------------------------*- C++ -*----------------------------------*\
  =========                 |
  \\      /  F ield         | OpenFOAM: The Open Source CFD Toolbox
   \\    /   O peration     | Website:  https://openfoam.org
    \\  /    A nd           | Version:  7
     \\/     M anipulation  |
\*---------------------------------------------------------------------------*/
FoamFile
{
    version     2.0;
    format      ascii;
    class       volScalarField;
    location    "0.2";
    object      p;
}
// * * * * * * * * * * * * * * * * * * * * * * * * * * * * * * * * * * * * * //

dimensions      [0 2 -2 0 0 0 0];

internalField   nonuniform List<scalar> 
6400
(
-2.05279e-08
-5.93421e-06
-1.71895e-05
-3.09898e-05
-4.4582e-05
-5.62201e-05
-6.47108e-05
-6.93167e-05
-6.96162e-05
-6.53957e-05
-5.65774e-05
-4.31702e-05
-2.52332e-05
-2.84966e-06
2.38903e-05
5.49002e-05
9.01029e-05
0.000129433
0.000172837
0.000220268
0.000271692
0.000327076
0.000386391
0.00044961
0.000516703
0.000587639
0.00066238
0.000740881
0.00082309
0.000908943
0.000998367
0.00109128
0.00118757
0.00128715
0.00138987
0.0014956
0.00160418
0.00171543
0.00182916
0.00194515
0.00206318
0.002183
0.00230433
0.0024269
0.00255039
0.00267449
0.00279885
0.00292313
0.00304694
0.0031699
0.00329163
0.00341172
0.00352975
0.00364531
0.00375799
0.00386736
0.003973
0.00407451
0.00417148
0.00426352
0.00435023
0.00443127
0.00450626
0.00457489
0.00463685
0.00469187
0.00473969
0.00478014
0.00481305
0.00483837
0.00485612
0.00486643
0.0048696
0.00486611
0.00485674
0.00484265
0.00482553
0.00480778
0.00479298
0.00478484
6.19783e-06
2.82661e-07
-8.56712e-06
-1.87308e-05
-2.85637e-05
-3.67277e-05
-4.22438e-05
-4.44403e-05
-4.28779e-05
-3.72879e-05
-2.75225e-05
-1.35186e-05
4.73316e-06
2.72099e-05
5.3871e-05
8.46693e-05
0.000119557
0.000158492
0.000201435
0.000248351
0.00029921
0.000353984
0.000412645
0.000475165
0.000541514
0.000611659
0.000685561
0.000763174
0.000844443
0.000929302
0.00101768
0.00110948
0.00120462
0.00130297
0.00140442
0.00150881
0.00161599
0.00172578
0.00183799
0.00195241
0.0020688
0.00218693
0.00230653
0.0024273
0.00254896
0.00267117
0.00279361
0.00291593
0.00303776
0.00315872
0.00327842
0.00339648
0.00351249
0.00362603
0.0037367
0.00384409
0.0039478
0.00404742
0.00414256
0.00423284
0.0043179
0.00439739
0.00447098
0.00453836
0.00459926
0.00465345
0.00470073
0.00474096
0.00477406
0.00480003
0.00481895
0.00483106
0.00483669
0.00483641
0.00483099
0.00482149
0.00480934
0.00479641
0.00478488
0.00477679
1.79859e-05
9.43874e-06
4.84055e-07
-8.39556e-06
-1.64764e-05
-2.27811e-05
-2.65411e-05
-2.72046e-05
-2.43814e-05
-1.78098e-05
-7.32622e-06
7.16142e-06
2.56957e-05
4.82865e-05
7.49236e-05
0.000105586
0.000140248
0.000178883
0.000221466
0.000267971
0.000318375
0.000372653
0.000430782
0.000492735
0.000558484
0.000627996
0.000701232
0.000778145
0.00085868
0.000942772
0.00103035
0.00112132
0.00121559
0.00131304
0.00141355
0.00151697
0.00162315
0.00173191
0.00184306
0.00195638
0.00207165
0.00218863
0.00230704
0.00242661
0.00254704
0.002668
0.00278918
0.00291021
0.00303074
0.00315039
0.00326879
0.00338554
0.00350024
0.00361249
0.00372188
0.00382802
0.00393049
0.00402891
0.0041229
0.00421209
0.00429611
0.00437463
0.00444734
0.00451396
0.00457423
0.00462795
0.00467494
0.00471509
0.00474836
0.0047748
0.00479452
0.00480777
0.00481494
0.00481654
0.00481331
0.00480616
0.00479627
0.00478506
0.00477354
0.00476229
3.23437e-05
1.9897e-05
9.45488e-06
4.89961e-07
-7.07122e-06
-1.25373e-05
-1.53346e-05
-1.50534e-05
-1.13864e-05
-4.11357e-06
6.91277e-06
2.17857e-05
4.05586e-05
6.32569e-05
8.98877e-05
0.000120447
0.000154924
0.000193306
0.000235579
0.000281726
0.000331729
0.000385572
0.000443233
0.000504691
0.000569919
0.000638886
0.000711553
0.000787877
0.000867803
0.000951267
0.0010382
0.0011285
0.00122209
0.00131885
0.00141865
0.00152135
0.0016268
0.00173481
0.0018452
0.00195775
0.00207225
0.00218844
0.00230606
0.00242483
0.00254445
0.0026646
0.00278496
0.00290518
0.00302489
0.00314374
0.00326133
0.00337727
0.00349118
0.00360264
0.00371127
0.00381665
0.00391839
0.0040161
0.00410941
0.00419794
0.00428136
0.00435932
0.00443154
0.00449772
0.00455765
0.00461111
0.00465797
0.00469813
0.00473156
0.00475833
0.00477857
0.00479253
0.00480057
0.00480319
0.00480101
0.00479478
0.00478548
0.00477417
0.00476089
0.00474499
4.64406e-05
2.9936e-05
1.75348e-05
7.89431e-06
2.65106e-07
-4.88688e-06
-7.15695e-06
-6.27414e-06
-2.02285e-06
5.76313e-06
1.72026e-05
3.23761e-05
5.13359e-05
7.41137e-05
0.000100727
0.000131182
0.00016548
0.000203621
0.000245597
0.000291401
0.000341023
0.00039445
0.00045167
0.000512662
0.000577404
0.000645867
0.000718016
0.000793809
0.000873193
0.000956108
0.00104248
0.00113223
0.00122525
0.00132145
0.00142068
0.00152282
0.0016277
0.00173515
0.00184498
0.00195698
0.00207093
0.00218658
0.00230366
0.00242191
0.00254101
0.00266065
0.00278051
0.00290023
0.00301946
0.00313783
0.00325495
0.00337045
0.00348391
0.00359494
0.00370314
0.00380811
0.00390946
0.00400679
0.00409974
0.00418793
0.00427103
0.0043487
0.00442066
0.00448663
0.00454639
0.00459975
0.00464657
0.00468678
0.00472035
0.00474736
0.00476794
0.00478233
0.00479086
0.00479399
0.00479222
0.00478619
0.00477667
0.00476448
0.00474885
0.0047282
5.85048e-05
3.81366e-05
2.36351e-05
1.29977e-05
4.92464e-06
-2.8649e-07
-2.36728e-06
-1.16974e-06
3.43412e-06
1.15536e-05
2.3272e-05
3.86502e-05
5.77318e-05
8.05476e-05
0.000107119
0.000137459
0.000171579
0.000209483
0.000251175
0.000296653
0.000345914
0.000398954
0.000455762
0.000516326
0.000580625
0.000648636
0.000720326
0.000795657
0.000874578
0.000957033
0.00104295
0.00113225
0.00122484
0.0013206
0.00141942
0.00152116
0.00162566
0.00173274
0.00184223
0.0019539
0.00206754
0.0021829
0.00229972
0.00241772
0.00253659
0.00265603
0.0027757
0.00289526
0.00301434
0.00313257
0.00324958
0.00336497
0.00347834
0.00358929
0.00369742
0.00380233
0.00390362
0.00400091
0.00409381
0.00418196
0.00426502
0.00434266
0.0044146
0.00448056
0.00454033
0.00459371
0.00464059
0.00468087
0.00471456
0.00474172
0.00476247
0.00477705
0.00478576
0.00478899
0.00478718
0.00478083
0.00477058
0.00475707
0.00473897
0.00471395
6.72359e-05
4.34021e-05
2.68509e-05
1.50692e-05
6.32818e-06
8.04081e-07
-1.33977e-06
-5.70576e-08
4.70284e-06
1.29947e-05
2.48651e-05
4.03517e-05
5.94851e-05
8.22911e-05
0.00010879
0.000139001
0.000172936
0.000210608
0.000252026
0.000297195
0.00034612
0.000398801
0.000455235
0.000515413
0.000579321
0.000646938
0.000718237
0.000793182
0.000871729
0.000953821
0.00103939
0.00112837
0.00122065
0.00131613
0.0014147
0.00151621
0.00162051
0.00172744
0.00183679
0.00194837
0.00206195
0.00217728
0.0022941
0.00241214
0.00253109
0.00265063
0.00277043
0.00289015
0.00300942
0.00312787
0.00324511
0.00336075
0.00347438
0.00358561
0.00369402
0.00379922
0.00390079
0.00399835
0.00409152
0.00417992
0.00426322
0.00434109
0.00441323
0.00447938
0.00453931
0.00459284
0.00463984
0.00468024
0.00471403
0.00474126
0.00476206
0.00477663
0.00478525
0.00478828
0.00478608
0.00477906
0.00476777
0.00475277
0.00473228
0.0047035
7.17351e-05
4.49086e-05
2.64719e-05
1.35253e-05
4.01298e-06
-1.97323e-06
-4.34861e-06
-3.14769e-06
1.61545e-06
9.94723e-06
2.18596e-05
3.73667e-05
5.64852e-05
7.92328e-05
0.000105628
0.000135688
0.00016943
0.000206871
0.000248024
0.000292902
0.000341514
0.000393868
0.000449966
0.000509805
0.000573374
0.00064066
0.000711638
0.000786279
0.000864541
0.000946372
0.00103171
0.00112048
0.00121259
0.00130795
0.00140642
0.00150788
0.00161218
0.00171914
0.00182858
0.00194029
0.00205405
0.00216961
0.00228671
0.00240506
0.00252438
0.00264433
0.00276459
0.00288479
0.00300459
0.00312359
0.00324141
0.00335764
0.00347189
0.00358374
0.00369277
0.00379859
0.00390077
0.00399892
0.00409266
0.00418161
0.00426541
0.00434374
0.00441629
0.0044828
0.00454305
0.00459684
0.00464404
0.00468458
0.00471845
0.00474569
0.00476643
0.00478085
0.0047892
0.00479181
0.00478899
0.00478111
0.00476866
0.00475213
0.00472948
0.00469758
7.13916e-05
4.20425e-05
2.19339e-05
7.87608e-06
-2.43305e-06
-8.95727e-06
-1.1669e-05
-1.06655e-05
-6.01322e-06
2.25376e-06
1.41169e-05
2.95689e-05
4.86122e-05
7.12562e-05
9.75148e-05
0.000127405
0.000160945
0.000198154
0.000239052
0.000283656
0.000331981
0.000384041
0.000439843
0.00049939
0.000562678
0.000629696
0.000700428
0.000774848
0.000852918
0.000934592
0.00101981
0.0011085
0.00120058
0.00129595
0.0013945
0.00149608
0.00160056
0.00170776
0.00181749
0.00192956
0.00204374
0.00215979
0.00227743
0.00239639
0.00251636
0.00263703
0.00275805
0.00287907
0.00299972
0.00311961
0.00323834
0.00335552
0.00347073
0.00358355
0.00369355
0.00380032
0.00390343
0.00400249
0.00409709
0.00418685
0.00427141
0.00435042
0.00442359
0.00449064
0.00455133
0.00460548
0.00465296
0.00469367
0.00472761
0.00475482
0.00477542
0.00478958
0.00479754
0.00479958
0.00479603
0.00478718
0.00477352
0.00475553
0.00473099
0.00469655
6.57976e-05
3.43536e-05
1.27958e-05
-2.2834e-06
-1.33688e-05
-2.0459e-05
-2.3567e-05
-2.28378e-05
-1.83786e-05
-1.02564e-05
1.48475e-06
1.68191e-05
3.57358e-05
5.82361e-05
8.43295e-05
0.000114031
0.000147361
0.000184341
0.000224993
0.000269341
0.000317406
0.000369206
0.000424755
0.00048406
0.000547124
0.000613943
0.000684504
0.000758787
0.000836761
0.000918382
0.0010036
0.00109234
0.00118452
0.00128006
0.00137883
0.00148071
0.00158556
0.00169319
0.00180344
0.0019161
0.00203094
0.00214772
0.00226618
0.00238602
0.00250694
0.00262863
0.00275073
0.00287288
0.00299472
0.00311584
0.00323584
0.00335431
0.00347083
0.00358496
0.00369626
0.00380432
0.00390869
0.00400896
0.00410471
0.00419555
0.00428111
0.00436104
0.00443501
0.00450276
0.00456403
0.00461864
0.00466644
0.00470736
0.00474137
0.00476853
0.00478893
0.00480276
0.00481023
0.00481164
0.00480727
0.00479742
0.00478258
0.00476324
0.00473706
0.00470056
5.46892e-05
2.15173e-05
-1.28125e-06
-1.72786e-05
-2.90952e-05
-3.67499e-05
-4.02834e-05
-3.98762e-05
-3.56671e-05
-2.77486e-05
-1.61852e-05
-1.01853e-06
1.77297e-05
4.00531e-05
6.59571e-05
9.54556e-05
0.000128569
0.000165322
0.000205741
0.000249854
0.000297686
0.000349261
0.000404599
0.000463715
0.000526615
0.000593302
0.000663769
0.000738001
0.000815972
0.000897645
0.000982969
0.00107188
0.00116431
0.00126016
0.00135933
0.00146168
0.00156708
0.00167535
0.00178633
0.0018998
0.00201554
0.00213331
0.00225284
0.00237385
0.00249602
0.00261903
0.00274253
0.00286615
0.00298951
0.00311221
0.00323383
0.00335394
0.00347212
0.00358791
0.00370086
0.00381054
0.00391649
0.00401827
0.00411546
0.00420766
0.00429446
0.00437551
0.00445048
0.00451907
0.00458105
0.00463621
0.00468441
0.00472557
0.00475967
0.00478675
0.00480693
0.00482037
0.00482732
0.00482803
0.00482282
0.00481198
0.004796
0.00477541
0.00474781
0.00470962
3.79026e-05
3.30419e-06
-2.05533e-05
-3.73671e-05
-4.98599e-05
-5.80611e-05
-6.20296e-05
-6.19719e-05
-5.80502e-05
-5.03769e-05
-3.90329e-05
-2.4072e-05
-5.52536e-06
1.65947e-05
4.22903e-05
7.15744e-05
0.000104468
0.000141
0.000181199
0.000225096
0.000272724
0.000324111
0.000379282
0.000438259
0.000501054
0.000567676
0.000638125
0.00071239
0.000790453
0.00087228
0.000957828
0.00104704
0.00113985
0.00123616
0.00133587
0.00143887
0.001545
0.00165412
0.00176603
0.00188054
0.00199742
0.00211644
0.00223732
0.00235978
0.00248349
0.00260814
0.00273336
0.00285879
0.00298402
0.00310864
0.00323224
0.00335435
0.00347455
0.00359235
0.00370731
0.00381894
0.0039268
0.00403041
0.00412933
0.00422314
0.00431142
0.00439381
0.00446996
0.00453956
0.00460236
0.00465817
0.00470684
0.00474827
0.00478247
0.00480948
0.00482941
0.00484244
0.00484882
0.00484882
0.00484275
0.00483092
0.00481385
0.00479211
0.00476326
0.00472364
1.53414e-05
-2.04458e-05
-4.52118e-05
-6.2751e-05
-7.5865e-05
-8.45875e-05
-8.89888e-05
-8.92942e-05
-8.56833e-05
-7.82837e-05
-6.71885e-05
-5.24618e-05
-3.41417e-05
-1.22451e-05
1.3228e-05
4.22903e-05
7.49648e-05
0.000111281
0.000151274
0.000194977
0.000242429
0.000293662
0.000348709
0.000407596
0.000470344
0.000536966
0.00060747
0.000681851
0.000760095
0.000842176
0.000928058
0.00101769
0.001111
0.00120792
0.00130834
0.00141215
0.0015192
0.00162935
0.00174241
0.00185819
0.00197646
0.00209698
0.00221948
0.00234368
0.00246925
0.00259585
0.00272313
0.0028507
0.00297815
0.00310507
0.003231
0.00335549
0.00347807
0.00359826
0.00371557
0.00382951
0.0039396
0.00404535
0.00414629
0.00424198
0.00433199
0.00441593
0.00449344
0.0045642
0.00462796
0.00468451
0.0047337
0.00477546
0.00480978
0.00483671
0.00485639
0.00486899
0.00487478
0.00487404
0.0048671
0.00485429
0.00483617
0.00481334
0.00478334
0.00474247
-1.30486e-05
-4.98445e-05
-7.54005e-05
-9.35896e-05
-0.000107276
-0.000116493
-0.000121319
-0.000121993
-0.000118706
-0.000111599
-0.000100774
-8.63016e-05
-6.82262e-05
-4.65675e-05
-2.13267e-05
7.50958e-06
3.9966e-05
7.60753e-05
0.000115875
0.000159405
0.000206706
0.00025782
0.000312782
0.000371627
0.000434381
0.000501065
0.000571692
0.000646265
0.000724777
0.000807209
0.00089353
0.000983696
0.00107765
0.00117531
0.00127659
0.00138137
0.00148952
0.0016009
0.00171532
0.00183259
0.00195249
0.00207478
0.00219918
0.00232541
0.00245314
0.00258203
0.00271171
0.00284178
0.00297182
0.0031014
0.00323005
0.00335729
0.00348264
0.00360558
0.00372562
0.00384222
0.00395488
0.00406309
0.00416635
0.00426419
0.00435617
0.00444188
0.00452093
0.00459301
0.00465785
0.00471524
0.00476503
0.00480716
0.00484163
0.00486849
0.0048879
0.00490005
0.00490522
0.00490371
0.00489589
0.00488209
0.00486292
0.00483902
0.00480794
0.00476592
-4.7296e-05
-8.49711e-05
-0.000111229
-0.000130009
-0.000144226
-0.000153915
-0.000159157
-0.000160199
-0.000157245
-0.000150442
-0.000139901
-0.000125698
-0.00010788
-8.64694e-05
-6.14674e-05
-3.28595e-05
-6.18739e-07
3.52907e-05
7.49101e-05
0.000118284
0.00016546
0.000216482
0.000271396
0.000330241
0.00039305
0.000459852
0.000530667
0.000605503
0.000684363
0.000767233
0.000854092
0.000944902
0.00103961
0.00113815
0.00124043
0.00134635
0.00145578
0.00156857
0.00168456
0.00180356
0.00192534
0.00204966
0.00217625
0.00230481
0.00243502
0.00256653
0.00269896
0.00283189
0.0029649
0.00309752
0.00322927
0.00335966
0.00348817
0.00361426
0.00373739
0.00385702
0.00397261
0.0040836
0.00418949
0.00428977
0.00438397
0.00447166
0.00455246
0.00462602
0.00469207
0.0047504
0.00480087
0.00484342
0.00487806
0.00490486
0.00492398
0.00493565
0.00494015
0.00493784
0.00492908
0.00491426
0.00489402
0.00486907
0.00483692
0.0047938
-8.74167e-05
-0.000125884
-0.000152781
-0.000172109
-0.000186828
-0.00019697
-0.000202618
-0.000204028
-0.000201411
-0.000194921
-0.000184674
-0.00017075
-0.0001532
-0.000132045
-0.000107287
-7.89087e-05
-4.68817e-05
-1.11664e-05
2.82829e-05
7.15159e-05
0.000118585
0.000169542
0.000224438
0.000283319
0.000346226
0.000413195
0.000484252
0.000559415
0.000638693
0.000722083
0.000809571
0.000901126
0.000996705
0.00109625
0.00119967
0.00130688
0.00141776
0.00153217
0.00164994
0.00177088
0.00189478
0.0020214
0.00215047
0.00228167
0.0024147
0.00254917
0.0026847
0.00282087
0.00295723
0.00309329
0.00322856
0.0033625
0.00349457
0.00362421
0.00375083
0.00387387
0.00399274
0.00410686
0.0042157
0.00431871
0.0044154
0.00450532
0.00458806
0.00466327
0.00473067
0.00479006
0.00484129
0.0048843
0.00491912
0.00494585
0.00496466
0.0049758
0.00497958
0.00497639
0.00496663
0.00495074
0.00492938
0.00490334
0.00487012
0.0048259
-0.000133422
-0.000172629
-0.000200128
-0.000219976
-0.000235176
-0.000245758
-0.000251806
-0.000253583
-0.000251307
-0.000245136
-0.000235192
-0.000221556
-0.00020428
-0.000183388
-0.000158878
-0.000130732
-9.89194e-05
-6.33953e-05
-2.41098e-05
1.89924e-05
6.59694e-05
0.00011688
0.000171782
0.000230727
0.000293766
0.000360941
0.000432286
0.00050783
0.000587589
0.000671569
0.000759766
0.000852158
0.000948711
0.00104937
0.00115408
0.00126273
0.00137523
0.00149143
0.00161119
0.00173431
0.00186058
0.00198977
0.0021216
0.00225576
0.00239192
0.00252971
0.00266872
0.00280851
0.00294862
0.00308853
0.00322773
0.00336564
0.0035017
0.0036353
0.00376583
0.00389267
0.00401521
0.00413283
0.00424495
0.00435101
0.00445047
0.00454287
0.00462778
0.00470483
0.00477374
0.00483429
0.00488635
0.00492988
0.0049649
0.00499153
0.00500998
0.00502051
0.00502349
0.00501933
0.00500848
0.00499143
0.0049689
0.00494173
0.00490741
0.00486207
-0.000185325
-0.000225249
-0.00025333
-0.000273682
-0.000289353
-0.000300368
-0.000306814
-0.000308961
-0.00030703
-0.000301185
-0.000291549
-0.000278209
-0.000261216
-0.000240593
-0.000216337
-0.00018843
-0.000156834
-0.000121502
-8.23788e-05
-3.94031e-05
7.48967e-06
5.83651e-05
0.000113287
0.000172317
0.000235512
0.000302921
0.000374591
0.000450557
0.000530847
0.000615477
0.000704451
0.000797762
0.000895384
0.000997278
0.00110338
0.00121363
0.0013279
0.00144608
0.00156803
0.00169355
0.00182245
0.00195447
0.00208936
0.00222679
0.00236643
0.00250789
0.00265075
0.00279456
0.00293883
0.00308302
0.00322658
0.00336891
0.00350939
0.00364739
0.00378226
0.00391333
0.00403994
0.00416145
0.00427722
0.00438666
0.00448921
0.00458437
0.00467168
0.00475078
0.00482135
0.00488319
0.00493617
0.00498024
0.00501545
0.00504195
0.00505996
0.0050698
0.00507187
0.00506662
0.00505458
0.00503627
0.00501249
0.00498412
0.00494866
0.00490217
-0.000243143
-0.000283784
-0.000312443
-0.000333295
-0.000349434
-0.000360882
-0.000367729
-0.000370249
-0.000368669
-0.000363156
-0.000353838
-0.000340803
-0.000324101
-0.000303756
-0.000279765
-0.000252103
-0.000220732
-0.000185599
-0.000146643
-0.000103797
-5.69884e-05
-6.14616e-06
4.88016e-05
0.000107924
0.000171285
0.000238947
0.000310963
0.000387381
0.000468239
0.000553565
0.000643375
0.000737673
0.000836448
0.000939671
0.0010473
0.00115926
0.00127547
0.00139581
0.00152013
0.00164828
0.00178004
0.00191517
0.0020534
0.00219442
0.00233788
0.00248338
0.00263048
0.00277872
0.00292757
0.00307647
0.00322484
0.00337205
0.00351742
0.0036603
0.00379996
0.00393571
0.00406684
0.00419266
0.00431248
0.00442568
0.00453166
0.00462988
0.00471986
0.00480122
0.00487364
0.00493689
0.00499085
0.00503549
0.00507087
0.00509717
0.00511465
0.00512367
0.00512469
0.00511823
0.00510486
0.00508519
0.00506007
0.00503045
0.00499379
0.00494608
-0.000306904
-0.000348277
-0.000377522
-0.00039888
-0.000415491
-0.000427378
-0.000434631
-0.000437531
-0.00043631
-0.00043114
-0.00042215
-0.00040943
-0.000393032
-0.000372979
-0.000349264
-0.000321862
-0.000290729
-0.000255807
-0.00021703
-0.000174324
-0.000127611
-7.68101e-05
-2.18436e-05
3.73664e-05
0.000100894
0.000168811
0.000241183
0.000318068
0.000399517
0.000485571
0.00057626
0.000671601
0.000771598
0.000876237
0.000985486
0.00109929
0.00121757
0.00134023
0.00146714
0.00159811
0.00173297
0.00187148
0.00201335
0.00215827
0.00230589
0.00245579
0.00260753
0.00276061
0.00291448
0.00306856
0.00322221
0.00337477
0.00352554
0.00367378
0.00381874
0.00395967
0.0040958
0.00422638
0.0043507
0.00446807
0.00457785
0.00467947
0.00477242
0.00485628
0.00493072
0.0049955
0.00505051
0.00509572
0.00513123
0.00515724
0.00517407
0.00518214
0.00518196
0.00517413
0.0051593
0.00513814
0.00511158
0.00508061
0.00504268
0.00499369
-0.000376642
-0.000418776
-0.000448625
-0.000470501
-0.000487595
-0.000499931
-0.000507601
-0.000510892
-0.000510041
-0.000505225
-0.000496577
-0.000484186
-0.000468108
-0.000448363
-0.000424943
-0.00039782
-0.000366945
-0.000332255
-0.000293678
-0.000251133
-0.000204535
-0.000153797
-9.88316e-05
-3.95519e-05
2.41273e-05
9.22879e-05
0.000165008
0.00024236
0.000324407
0.000411206
0.000502802
0.000599227
0.000700501
0.000806627
0.000917587
0.00103334
0.00115383
0.00127896
0.00140862
0.00154263
0.00168082
0.00182295
0.00196875
0.00211789
0.00227001
0.00242468
0.00258146
0.0027398
0.00289915
0.00305888
0.00321832
0.00337676
0.00353344
0.00368758
0.00383838
0.00398502
0.00412668
0.00426255
0.00439185
0.00451385
0.00462785
0.00473324
0.00482946
0.00491608
0.00499272
0.00505917
0.00511528
0.00516105
0.00519662
0.00522223
0.00523826
0.0052452
0.00524365
0.00523429
0.00521785
0.00519506
0.00516693
0.00513452
0.00509523
0.00504487
-0.000452403
-0.000495335
-0.000525813
-0.000548225
-0.000565819
-0.000578618
-0.000586719
-0.000590414
-0.000589948
-0.000585502
-0.000577212
-0.000565171
-0.000549432
-0.000530017
-0.000506917
-0.000480098
-0.000449508
-0.000415079
-0.000376732
-0.000334381
-0.000287932
-0.00023729
-0.00018236
-0.000123043
-5.92435e-05
9.13363e-06
8.21796e-05
0.000159981
0.000242617
0.00033016
0.000422672
0.000520204
0.000622792
0.000730459
0.000843203
0.000961002
0.00108381
0.00121155
0.00134411
0.00148135
0.00162309
0.00176909
0.00191908
0.00207275
0.00222971
0.00238954
0.00255176
0.00271581
0.00288111
0.00304699
0.00321274
0.0033776
0.00354077
0.0037014
0.00385863
0.00401158
0.00415935
0.00430107
0.0044359
0.00456303
0.00468171
0.00479127
0.00489111
0.00498075
0.0050598
0.005128
0.00518525
0.00523156
0.0052671
0.00529217
0.00530724
0.00531287
0.00530976
0.00529868
0.00528044
0.00525586
0.00522602
0.00519204
0.00515127
0.00509944
-0.000534239
-0.000578012
-0.00060915
-0.000632122
-0.000650236
-0.000663517
-0.000672066
-0.000676183
-0.000676121
-0.000672064
-0.000664153
-0.000652484
-0.000637111
-0.000618054
-0.000595304
-0.000568822
-0.000538554
-0.000504425
-0.00046635
-0.000424236
-0.000377982
-0.000327485
-0.000272639
-0.000213333
-0.00014946
-8.09109e-05
-7.57976e-06
7.06355e-05
0.000153832
0.000242098
0.000335517
0.000434158
0.000538079
0.000647318
0.000761896
0.000881809
0.00100703
0.00113749
0.00127311
0.00141374
0.00155922
0.00170932
0.00186378
0.00202227
0.00218441
0.00234977
0.00251784
0.00268806
0.0028598
0.00303236
0.00320498
0.00337686
0.00354714
0.0037149
0.0038792
0.0040391
0.00419363
0.00434183
0.00448278
0.00461561
0.00473948
0.00485365
0.00495747
0.00505041
0.00513205
0.00520213
0.00526055
0.00530734
0.00534273
0.00536712
0.00538103
0.00538514
0.00538024
0.00536722
0.00534697
0.0053204
0.00528866
0.00525294
0.00521057
0.00515717
-0.000622211
-0.000666874
-0.000698706
-0.000722265
-0.000740922
-0.000754708
-0.000763726
-0.000768287
-0.000768649
-0.000765005
-0.000757499
-0.00074623
-0.000731253
-0.00071259
-0.000690227
-0.000664125
-0.000634223
-0.000600443
-0.000562694
-0.000520874
-0.000474877
-0.000424588
-0.000369889
-0.00031066
-0.000246778
-0.00017812
-0.000104564
-2.59899e-05
5.77166e-05
0.000146666
0.00024096
0.00034069
0.000445935
0.000556756
0.000673193
0.000795264
0.00092296
0.00105624
0.00119502
0.0013392
0.0014886
0.00164301
0.00180219
0.00196579
0.00213345
0.00230471
0.00247906
0.00265591
0.0028346
0.0030144
0.0031945
0.00337403
0.00355208
0.00372765
0.00389974
0.00406731
0.0042293
0.00438468
0.00453242
0.00467155
0.00480116
0.00492042
0.00502862
0.00512516
0.0052096
0.00528166
0.00534125
0.00538847
0.00542359
0.0054471
0.00545963
0.00546198
0.00545505
0.00543982
0.0054173
0.00538848
0.00535462
0.00531698
0.00527287
0.00521782
-0.000716386
-0.000761991
-0.000794555
-0.000818731
-0.00083796
-0.000852275
-0.000861787
-0.000866816
-0.000867629
-0.000864425
-0.000857353
-0.000846517
-0.000831974
-0.000813745
-0.000791816
-0.000766144
-0.000736664
-0.000703294
-0.000665936
-0.000624482
-0.000578815
-0.000528812
-0.000474342
-0.000415272
-0.000351465
-0.00028278
-0.00020908
-0.000130225
-4.60807e-05
4.34857e-05
0.000138598
0.000239372
0.000345907
0.000458289
0.000576583
0.000700828
0.000831038
0.000967192
0.00110923
0.00125706
0.00141054
0.00156946
0.00173358
0.00190257
0.00207607
0.00225361
0.00243467
0.00261864
0.00280482
0.00299243
0.00318064
0.00336851
0.00355505
0.00373919
0.00391984
0.00409586
0.00426611
0.00442942
0.00458468
0.00473079
0.00486675
0.00499162
0.00510462
0.00520508
0.00529253
0.00536668
0.00542747
0.00547503
0.00550974
0.00553216
0.00554306
0.00554336
0.00553407
0.00551631
0.0054912
0.00545984
0.0054236
0.00538384
0.00533785
0.00528106
-0.00081684
-0.000863441
-0.000896778
-0.000921603
-0.000941434
-0.000956308
-0.000966341
-0.000971865
-0.000973157
-0.000970424
-0.000963822
-0.000953458
-0.000939392
-0.000921645
-0.000900203
-0.000875021
-0.000846029
-0.000813142
-0.000776254
-0.00073525
-0.000690004
-0.000640381
-0.000586239
-0.000527429
-0.000463799
-0.000395192
-0.000321451
-0.000242416
-0.00015793
-6.78384e-05
2.80085e-05
0.000129749
0.000237511
0.000351402
0.000471515
0.000597915
0.00073064
0.000869694
0.00101504
0.00116662
0.00132429
0.00148787
0.00165715
0.0018318
0.00201145
0.00219565
0.00238385
0.00257542
0.00276964
0.00296569
0.00316268
0.00335961
0.00355541
0.00374894
0.003939
0.00412434
0.00430369
0.00447579
0.00463936
0.0047932
0.00493617
0.00506724
0.0051855
0.00529024
0.00538094
0.0054573
0.00551929
0.00556712
0.00560124
0.00562234
0.0056313
0.00562919
0.00561716
0.00559648
0.0055684
0.00553416
0.00549524
0.00545314
0.00540512
0.00534654
-0.000923652
-0.000971305
-0.00100546
-0.00103097
-0.00105143
-0.0010669
-0.00107748
-0.00108353
-0.00108534
-0.00108311
-0.00107702
-0.00106717
-0.00105363
-0.00103642
-0.00101553
-0.000990904
-0.000962478
-0.000930157
-0.000893831
-0.000853376
-0.000808656
-0.000759525
-0.000705826
-0.000647397
-0.000584068
-0.000515665
-0.00044201
-0.000362922
-0.000278219
-0.000187721
-9.12551e-05
1.13444e-05
0.000120231
0.000235543
0.000357399
0.000485893
0.000621093
0.000763032
0.000911705
0.00106707
0.00122902
0.00139741
0.00157202
0.00175256
0.00193867
0.00212988
0.00232564
0.00252532
0.00272815
0.00293328
0.00313976
0.00334653
0.00355243
0.00375622
0.00395661
0.00415221
0.00434162
0.00452342
0.00469621
0.00485861
0.00500934
0.00514723
0.00527129
0.0053807
0.00547492
0.00555363
0.00561685
0.00566484
0.00569817
0.00571765
0.00572431
0.00571936
0.00570414
0.00568006
0.00564856
0.00561104
0.00556914
0.00552445
0.00547428
0.00541385
-0.00103691
-0.00108567
-0.00112069
-0.00114692
-0.00116806
-0.00118414
-0.00119531
-0.00120192
-0.00120427
-0.00120259
-0.00119705
-0.00118777
-0.00117481
-0.0011582
-0.00113793
-0.00111394
-0.00108617
-0.00105451
-0.00101885
-0.000979061
-0.000934988
-0.000886476
-0.000833355
-0.000775448
-0.000712566
-0.000644517
-0.0005711
-0.000492111
-0.000407344
-0.000316593
-0.000219658
-0.000116346
-6.47391e-06
0.000110127
0.000233605
0.000364088
0.000501677
0.000646438
0.000798402
0.000957558
0.00112384
0.00129713
0.00147722
0.00166387
0.0018567
0.00205526
0.00225902
0.00246729
0.00267931
0.00289419
0.0031109
0.00332832
0.00354521
0.00376022
0.00397193
0.00417882
0.00437933
0.00457187
0.00475486
0.00492674
0.00508606
0.00523151
0.00536196
0.00547651
0.00557456
0.00565581
0.00572027
0.00576832
0.00580061
0.00581811
0.00582201
0.00581371
0.00579473
0.00576671
0.00573128
0.00569005
0.0056448
0.00559728
0.0055448
0.00548249
-0.0011567
-0.00120664
-0.00124256
-0.00126955
-0.0012914
-0.00130814
-0.00131993
-0.00132714
-0.00133007
-0.00132898
-0.00132404
-0.00131538
-0.00130306
-0.00128713
-0.00126755
-0.00124429
-0.00121727
-0.00118639
-0.00115151
-0.00111251
-0.00106922
-0.00102147
-0.000969081
-0.000911857
-0.000849591
-0.00078207
-0.00070907
-0.000630363
-0.000545717
-0.000454901
-0.000357686
-0.000253849
-0.000143176
-2.54654e-05
9.94662e-05
0.000231783
0.000371623
0.000519093
0.000674266
0.00083717
0.00100778
0.00118601
0.0013717
0.00156461
0.0017644
0.00197064
0.00218278
0.00240014
0.00262193
0.00284722
0.00307493
0.00330387
0.00353269
0.00375995
0.00398408
0.00420339
0.00441614
0.00462056
0.00481484
0.00499724
0.00516611
0.00531995
0.00545748
0.00557772
0.00567998
0.00576395
0.00582969
0.00587764
0.0059086
0.00592368
0.00592428
0.00591199
0.00588861
0.00585602
0.00581609
0.00577063
0.00572165
0.00567102
0.00561607
0.00555186
-0.00128312
-0.00133429
-0.00137117
-0.00139897
-0.00142156
-0.001439
-0.00145144
-0.00145928
-0.00146285
-0.00146239
-0.0014581
-0.00145012
-0.00143852
-0.00142333
-0.00140454
-0.00138211
-0.00135594
-0.00132595
-0.00129199
-0.00125392
-0.00121156
-0.00116474
-0.00111326
-0.0010569
-0.000995442
-0.000928648
-0.000856272
-0.000778061
-0.000693757
-0.000603102
-0.000505837
-0.000401708
-0.000290468
-0.000171878
-4.57171e-05
8.82208e-05
0.000230117
0.000380126
0.000538366
0.000704913
0.000879788
0.00106295
0.00125428
0.00145357
0.00166052
0.00187471
0.0020956
0.00232252
0.00255464
0.00279102
0.00303052
0.00327187
0.00351364
0.00375425
0.00399195
0.00422492
0.00445119
0.00466875
0.00487557
0.00506967
0.00524916
0.00541235
0.00555779
0.00568434
0.00579125
0.00587818
0.00594523
0.00599291
0.00602216
0.00603428
0.0060309
0.00601391
0.00598538
0.00594748
0.00590239
0.00585216
0.00579899
0.00574492
0.00568733
0.0056212
-0.00141627
-0.00146874
-0.00150662
-0.00153527
-0.00155865
-0.00157682
-0.00158996
-0.00159848
-0.00160272
-0.00160295
-0.00159937
-0.00159212
-0.00158131
-0.00156695
-0.00154904
-0.00152754
-0.00150235
-0.00147338
-0.00144047
-0.00140349
-0.00136224
-0.00131652
-0.00126614
-0.00121085
-0.00115042
-0.00108457
-0.00101306
-0.000935592
-0.00085189
-0.000761663
-0.000664625
-0.000560487
-0.000448965
-0.000329782
-0.000202673
-6.73876e-05
7.63072e-05
0.000228617
0.000389714
0.000559729
0.000738737
0.00092675
0.0011237
0.00132942
0.00154366
0.00176601
0.00199598
0.00223287
0.00247589
0.00272402
0.00297612
0.00323081
0.00348658
0.00374169
0.00399426
0.00424222
0.0044834
0.00471552
0.00493628
0.00514342
0.00533479
0.00550844
0.00566273
0.00579635
0.00590844
0.00599862
0.00606699
0.00611417
0.00614125
0.00614977
0.00614165
0.00611909
0.00608454
0.00604052
0.00598951
0.00593385
0.00587596
0.00581808
0.00575765
0.00568963
-0.00155626
-0.00161009
-0.00164903
-0.00167857
-0.00170278
-0.00172173
-0.00173561
-0.00174484
-0.0017498
-0.00175076
-0.00174795
-0.00174152
-0.00173156
-0.00171813
-0.0017012
-0.00168074
-0.00165666
-0.00162884
-0.00159715
-0.00156142
-0.00152145
-0.00147705
-0.00142797
-0.00137398
-0.0013148
-0.00125017
-0.00117978
-0.00110334
-0.00102054
-0.000931056
-0.000834568
-0.000730755
-0.000619294
-0.000499865
-0.000372155
-0.000235862
-9.06996e-05
6.35978e-05
0.000227263
0.00040049
0.000583416
0.000776115
0.000978578
0.0011907
0.00141227
0.00164294
0.00188222
0.00212947
0.00238388
0.00264443
0.00290991
0.0031789
0.00344976
0.00372063
0.00398941
0.00425384
0.00451146
0.00475971
0.00499599
0.0052177
0.00542239
0.00560782
0.00577208
0.00591366