/*--------------------------------*- C++ -*----------------------------------*\
  =========                 |
  \\      /  F ield         | OpenFOAM: The Open Source CFD Toolbox
   \\    /   O peration     | Website:  https://openfoam.org
    \\  /    A nd           | Version:  7
     \\/     M anipulation  |
\*---------------------------------------------------------------------------*/
FoamFile
{
    version     2.0;
    format      ascii;
    class       volScalarField;
    location    "2";
    object      p;
}
// * * * * * * * * * * * * * * * * * * * * * * * * * * * * * * * * * * * * * //

dimensions      [0 2 -2 0 0 0 0];

internalField   nonuniform List<scalar> 
6400
(
-1.33374e-08
2.57902e-06
-3.00114e-05
-9.71888e-05
-0.00019149
-0.000305881
-0.00043433
-0.000571697
-0.000714004
-0.000858257
-0.0010023
-0.00114459
-0.00128404
-0.00141986
-0.00155145
-0.00167825
-0.0017997
-0.00191517
-0.00202391
-0.00212507
-0.00221764
-0.00230051
-0.00237244
-0.00243213
-0.0024782
-0.00250925
-0.00252393
-0.00252092
-0.00249905
-0.00245726
-0.00239473
-0.00231087
-0.00220541
-0.0020784
-0.00193026
-0.00176184
-0.00157445
-0.00136981
-0.00115014
-0.000918118
-0.000676844
-0.000429849
-0.000181021
6.54515e-05
0.000305158
0.00053355
0.000746048
0.000938148
0.00110554
0.00124421
0.00135061
0.00142169
0.00145505
0.00144901
0.00140268
0.001316
0.00118974
0.00102555
0.000825841
0.000593823
0.000333371
4.89468e-05
-0.000254502
-0.000571655
-0.000896951
-0.00122469
-0.00154914
-0.00186462
-0.00216562
-0.0024468
-0.00270313
-0.00292987
-0.0031227
-0.00327782
-0.00339219
-0.00346402
-0.00349367
-0.00348532
-0.00344888
-0.00340233
-3.89809e-06
-1.17664e-06
-3.08722e-05
-8.93514e-05
-0.000170166
-0.000268508
-0.000379866
-0.000500152
-0.000626102
-0.000755087
-0.000885095
-0.00101461
-0.00114247
-0.00126782
-0.00138992
-0.00150813
-0.00162181
-0.00173028
-0.00183279
-0.00192851
-0.00201648
-0.00209567
-0.00216494
-0.00222309
-0.00226888
-0.00230106
-0.0023184
-0.00231971
-0.00230394
-0.00227014
-0.00221756
-0.00214569
-0.00205428
-0.00194336
-0.00181335
-0.001665
-0.0014995
-0.00131843
-0.00112381
-0.000918057
-0.000704007
-0.000484872
-0.000264191
-4.57752e-05
0.000166362
0.000368084
0.000555227
0.000723701
0.000869594
0.000989284
0.00107955
0.00113765
0.00116145
0.00114946
0.00110093
0.00101584
0.000894981
0.000739886
0.000552836
0.000336797
9.53548e-05
-0.000167378
-0.000446861
-0.000738234
-0.00103642
-0.00133623
-0.00163248
-0.00192007
-0.00219406
-0.00244976
-0.00268278
-0.00288912
-0.00306523
-0.00320818
-0.00331585
-0.00338722
-0.00342322
-0.00342714
-0.00340251
-0.00335586
2.79815e-05
2.73586e-05
-2.8628e-06
-5.792e-05
-0.000131984
-0.000221187
-0.000321974
-0.000431075
-0.000545742
-0.00066374
-0.000783301
-0.000903048
-0.00102191
-0.00113901
-0.00125365
-0.00136515
-0.00147287
-0.00157614
-0.00167423
-0.0017663
-0.00185147
-0.00192874
-0.00199706
-0.00205529
-0.00210228
-0.00213685
-0.00215784
-0.00216416
-0.00215478
-0.00212882
-0.00208556
-0.00202447
-0.0019453
-0.00184806
-0.00173307
-0.00160102
-0.00145297
-0.00129035
-0.00111501
-0.000929199
-0.000735516
-0.000536961
-0.000336825
-0.000138663
5.37718e-05
0.000236604
0.000405927
0.000557904
0.000688864
0.000795407
0.000874506
0.000923604
0.0009407
0.000924423
0.000874085
0.000789719
0.000672094
0.000522702
0.000343734
0.000138028
-9.10045e-05
-0.000339463
-0.000603058
-0.000877211
-0.00115716
-0.00143808
-0.00171515
-0.00198369
-0.00223918
-0.0024774
-0.00269444
-0.00288681
-0.00305147
-0.00318598
-0.00328855
-0.00335831
-0.00339589
-0.00340321
-0.00337816
-0.00331913
9.6309e-05
8.54864e-05
5.0024e-05
-6.09735e-06
-7.82804e-05
-0.000163233
-0.000258005
-0.000359947
-0.000466818
-0.000576787
-0.00068839
-0.000800472
-0.000912117
-0.00102257
-0.00113119
-0.00123736
-0.00134049
-0.00143992
-0.00153497
-0.00162484
-0.00170868
-0.00178554
-0.00185441
-0.0019142
-0.0019638
-0.00200206
-0.00202788
-0.00204016
-0.00203791
-0.00202023
-0.00198639
-0.00193582
-0.00186821
-0.0017835
-0.00168193
-0.00156408
-0.00143086
-0.0012836
-0.00112397
-0.000954074
-0.000776341
-0.000593601
-0.000408973
-0.000225844
-4.78039e-05
0.000121431
0.000278101
0.000418506
0.0005391
0.000636589
0.000708042
0.000750981
0.000763467
0.000744176
0.000692448
0.000608329
0.000492578
0.000346667
0.00017274
-2.6434e-05
-0.00024753
-0.000486763
-0.000739984
-0.00100279
-0.00127061
-0.00153884
-0.00180295
-0.00205851
-0.00230136
-0.0025276
-0.00273368
-0.00291646
-0.00307324
-0.00320183
-0.00330053
-0.00336828
-0.00340516
-0.00341184
-0.0033822
-0.00330971
0.000194707
0.000167371
0.000122461
6.1932e-05
-1.15257e-05
-9.51563e-05
-0.000186546
-0.000283636
-0.000384699
-0.000488332
-0.000593418
-0.000699074
-0.000804594
-0.000909386
-0.00101293
-0.0011147
-0.00121419
-0.0013108
-0.00140388
-0.0014927
-0.00157643
-0.00165417
-0.00172493
-0.00178765
-0.00184124
-0.00188458
-0.00191655
-0.00193605
-0.00194206
-0.00193366
-0.00191004
-0.00187059
-0.00181489
-0.00174278
-0.00165441
-0.0015502
-0.00143095
-0.00129783
-0.00115238
-0.000996539
-0.000832629
-0.000663301
-0.000491552
-0.000320654
-0.000154085
4.53172e-06
0.00015152
0.000283244
0.000396208
0.000487161
0.000553196
0.000591855
0.000601206
0.000579924
0.000527348
0.000443512
0.000329161
0.000185749
1.5393e-05
-0.000179172
-0.00039467
-0.000627376
-0.000873222
-0.0011279
-0.00138698
-0.00164602
-0.00190066
-0.00214672
-0.00238026
-0.00259767
-0.00279568
-0.00297144
-0.00312249
-0.00324679
-0.00334269
-0.00340893
-0.00344511
-0.00345099
-0.00341809
-0.00333721
0.000316606
0.000268371
0.000210576
0.000142815
6.54234e-05
-1.93693e-05
-0.00010965
-0.000203941
-0.000301033
-0.000399965
-0.000499995
-0.000600546
-0.000701158
-0.000801443
-0.000901034
-0.000999549
-0.00109655
-0.00119154
-0.00128392
-0.00137301
-0.00145803
-0.00153809
-0.00161223
-0.00167941
-0.00173852
-0.00178843
-0.00182799
-0.00185608
-0.0018716
-0.00187357
-0.00186109
-0.00183345
-0.00179012
-0.00173082
-0.00165553
-0.00156455
-0.00145854
-0.00133851
-0.00120587
-0.00106242
-0.000910337
-0.000752185
-0.000590859
-0.000429549
-0.000271677
-0.000120822
1.93602e-05
0.000145237
0.000253304
0.000340284
0.000403237
0.000439663
0.000447588
0.000425644
0.000373126
0.000290033
0.000177083
3.57032e-05
-0.000132007
-0.000323327
-0.000534997
-0.000763315
-0.00100424
-0.00125352
-0.0015068
-0.00175971
-0.00200802
-0.00224771
-0.00247503
-0.00268655
-0.00287926
-0.00305048
-0.00319796
-0.00331979
-0.00341433
-0.00348017
-0.0035166
-0.00352285
-0.00348931
-0.0034058
0.000455773
0.00038349
0.000310231
0.000232958
0.000149435
6.13867e-05
-2.975e-05
-0.000123072
-0.000217893
-0.000313703
-0.000410149
-0.000506985
-0.000604026
-0.000701114
-0.000798064
-0.000894637
-0.000990519
-0.0010853
-0.00117845
-0.00126936
-0.00135725
-0.00144128
-0.00152048
-0.00159381
-0.00166014
-0.00171829
-0.00176707
-0.00180526
-0.00183171
-0.00184531
-0.00184505
-0.00183009
-0.00179975
-0.00175359
-0.00169144
-0.00161346
-0.00152013
-0.00141231
-0.00129128
-0.00115871
-0.00101666
-0.000867621
-0.00071441
-0.000560177
-0.000408327
-0.000262446
-0.000126221
-3.33391e-06
0.000102643
0.00018835
0.000250756
0.000287262
0.000295799
0.000274908
0.000223803
0.000142413
3.1401e-05
-0.000107843
-0.00027324
-0.000462081
-0.000671104
-0.000896598
-0.00113452
-0.00138062
-0.00163054
-0.00187998
-0.00212475
-0.00236093
-0.00258487
-0.0027933
-0.00298335
-0.00315251
-0.00329866
-0.00341999
-0.0035149
-0.0035819
-0.00362011
-0.00362846
-0.00359719
-0.00351618
0.000606087
0.000507574
0.000416967
0.000328446
0.000237085
0.000144123
5.05326e-05
-4.33614e-05
-0.000137401
-0.000231532
-0.000325803
-0.000420315
-0.000515178
-0.00061047
-0.00070621
-0.000802322
-0.000898617
-0.000994783
-0.00109038
-0.00118482
-0.00127738
-0.00136722
-0.00145337
-0.00153476
-0.00161021
-0.00167848
-0.0017383
-0.00178836
-0.00182737
-0.0018541
-0.00186738
-0.00186621
-0.00184975
-0.00181737
-0.00176874
-0.00170381
-0.00162292
-0.00152677
-0.00141648
-0.00129361
-0.00116012
-0.00101843
-0.000871303
-0.000721884
-0.000573591
-0.000430056
-0.000295036
-0.000172312
-6.5577e-05
2.16759e-05
8.62691e-05
0.000125452
0.000137005
0.000119328
7.15071e-05
-6.63939e-06
-0.000114538
-0.000250864
-0.000413575
-0.000599977
-0.0008068
-0.00103032
-0.00126645
-0.00151092
-0.00175935
-0.00200741
-0.00225094
-0.00248602
-0.00270908
-0.00291693
-0.00310677
-0.00327623
-0.00342326
-0.00354615
-0.00364333
-0.00371333
-0.00375517
-0.00376766
-0.0037415
-0.00366729
0.000761688
0.00063549
0.000526194
0.000425151
0.000324673
0.000225519
0.000128193
3.24368e-05
-6.21241e-05
-0.000155904
-0.000249356
-0.000342937
-0.00043706
-0.000532055
-0.000628145
-0.000725424
-0.000823841
-0.000923184
-0.00102308
-0.001123
-0.00122224
-0.00131996
-0.00141517
-0.00150675
-0.00159346
-0.00167399
-0.00174694
-0.00181087
-0.00186436
-0.00190599
-0.00193443
-0.00194849
-0.00194711
-0.00192949
-0.00189506
-0.00184361
-0.00177528
-0.00169059
-0.00159053
-0.00147652
-0.00135044
-0.00121462
-0.00107182
-0.000925177
-0.000778144
-0.000634431
-0.000497904
-0.000372482
-0.000262023
-0.000170204
-0.000100404
-5.55776e-05
-3.81512e-05
-4.99243e-05
-9.19937e-05
-0.000164704
-0.000267613
-0.000399499
-0.000558391
-0.000741628
-0.000945948
-0.0011676
-0.00140246
-0.0016462
-0.00189438
-0.00214262
-0.00238671
-0.00262271
-0.00284704
-0.00305654
-0.00324845
-0.00342044
-0.00357054
-0.00369709
-0.00379856
-0.00387353
-0.00392098
-0.00393972
-0.00392128
-0.00385733
0.000916985
0.00076213
0.000633234
0.000518782
0.000408261
0.000301944
0.000199863
0.000101159
4.92187e-06
-8.97374e-05
-0.00018369
-0.00027775
-0.000372631
-0.000468919
-0.000567049
-0.000667287
-0.000769712
-0.000874214
-0.00098049
-0.00108805
-0.00119621
-0.00130413
-0.00141076
-0.00151494
-0.00161534
-0.00171053
-0.00179898
-0.00187911
-0.00194929
-0.00200794
-0.00205351
-0.00208457
-0.00209986
-0.00209832
-0.00207919
-0.00204202
-0.00198674
-0.00191371
-0.00182374
-0.00171811
-0.00159861
-0.0014675
-0.0013275
-0.00118178
-0.00103384
-0.000887492
-0.000746729
-0.000615647
-0.000498309
-0.000398628
-0.000320231
-0.000266339
-0.000239646
-0.000242213
-0.000275386
-0.000339734
-0.000435006
-0.000560135
-0.000713263
-0.000891801
-0.00109252
-0.00131164
-0.00154503
-0.00178826
-0.00203683
-0.00228625
-0.00253224
-0.00277077
-0.00299821
-0.00321135
-0.00340742
-0.00358409
-0.0037394
-0.00387172
-0.00397956
-0.00406153
-0.00411663
-0.00414365
-0.00413523
-0.0040843
0.00106651
0.000882394
0.000733329
0.00060489
0.000483693
0.000369498
0.000261853
0.000159289
6.03395e-05
-3.63656e-05
-0.000132115
-0.00022808
-0.000325278
-0.000424551
-0.000526543
-0.000631685
-0.000740187
-0.000852033
-0.000966987
-0.00108459
-0.00120418
-0.00132486
-0.00144556
-0.00156503
-0.00168184
-0.00179442
-0.00190108
-0.00200006
-0.00208954
-0.00216768
-0.00223273
-0.00228298
-0.00231693
-0.00233327
-0.00233095
-0.00230931
-0.00226804
-0.00220727
-0.00212765
-0.00203032
-0.00191693
-0.00178967
-0.00165123
-0.00150478
-0.0013539
-0.00120249
-0.00105472
-0.000914878
-0.000787275
-0.000676098
-0.000585285
-0.00051838
-0.000478415
-0.000467787
-0.000488162
-0.00054041
-0.000624545
-0.000739723
-0.000884259
-0.00105569
-0.00125084
-0.00146598
-0.00169692
-0.00193917
-0.00218812
-0.00243917
-0.00268791
-0.00293019
-0.00316225
-0.00338077
-0.00358292
-0.00376629
-0.0039289
-0.00406909
-0.00418538
-0.00427641
-0.00434114
-0.00437839
-0.00438199
-0.00434627
0.00120486
0.000991175
0.000821646
0.000678893
0.000546616
0.000424039
0.000310197
0.000202988
0.000100377
5.10585e-07
-9.83224e-05
-0.000197651
-0.000298794
-0.000402845
-0.000510651
-0.000622802
-0.000739632
-0.000861214
-0.00098737
-0.00111767
-0.00125143
-0.00138774
-0.00152546
-0.00166322
-0.00179949
-0.00193254
-0.0020605
-0.00218138
-0.00229314
-0.00239371
-0.00248102
-0.00255313
-0.00260821
-0.00264468
-0.00266121
-0.00265685
-0.00263103
-0.00258365
-0.00251513
-0.00242648
-0.00231909
-0.00219517
-0.00205732
-0.00190871
-0.00175298
-0.00159415
-0.00143654
-0.00128469
-0.00114317
-0.0010165
-0.000908974
-0.000824531
-0.000766615
-0.000738038
-0.00074088
-0.000776397
-0.000844959
-0.00094603
-0.00107818
-0.00123913
-0.00142585
-0.00163465
-0.00186133
-0.00210136
-0.00235
-0.00260254
-0.00285437
-0.00310117
-0.00333901
-0.0035644
-0.00377435
-0.00396633
-0.00413825
-0.00428836
-0.00441517
-0.00451729
-0.0045936
-0.00464294
-0.00466033
-0.00464159
0.00132663
0.00108334
0.000893279
0.000736093
0.000592523
0.00046122
0.000340674
0.000228131
0.000120975
1.68566e-05
-8.6355e-05
-0.000190549
-0.000297341
-0.000408068
-0.000523771
-0.000645195
-0.000772788
-0.000906707
-0.00104682
-0.00119271
-0.00134368
-0.00149877
-0.00165676
-0.00181617
-0.00197532
-0.0021323
-0.00228503
-0.00243131
-0.00256881
-0.00269518
-0.00280807
-0.0029052
-0.00298444
-0.00304386
-0.00308184
-0.00309707
-0.00308872
-0.00305638
-0.00300028
-0.0029213
-0.00282017
-0.00269944
-0.00256155
-0.00240962
-0.0022473
-0.00207875
-0.00190846
-0.00174119
-0.00158185
-0.00143529
-0.00130625
-0.00119913
-0.00111786
-0.00106576
-0.00104543
-0.00105861
-0.00110614
-0.0011879
-0.0013028
-0.00144886
-0.00162324
-0.00182236
-0.00204208
-0.00227781
-0.00252472
-0.00277793
-0.00303262
-0.00328426
-0.00352866
-0.00376211
-0.00398137
-0.00418371
-0.00436685
-0.00452892
-0.00466828
-0.00478348
-0.00487323
-0.00493654
-0.00496926
-0.00496896
0.00142642
0.00115371
0.000943265
0.0007717
0.000616771
0.000476522
0.000348862
0.000230361
0.00011781
8.35611e-06
-0.000100556
-0.00021117
-0.000325397
-0.000444805
-0.000570624
-0.000703745
-0.000844725
-0.000993791
-0.00115085
-0.00131549
-0.00148699
-0.00166432
-0.00184617
-0.00203093
-0.00221676
-0.00240154
-0.00258298
-0.0027586
-0.00292579
-0.00308189
-0.00322421
-0.00335012
-0.00345713
-0.00354296
-0.00360559
-0.00364338
-0.00365513
-0.00364014
-0.00359823
-0.00352973
-0.00343635
-0.0033193
-0.00318115
-0.00302504
-0.00285464
-0.00267419
-0.00248837
-0.00230218
-0.00212085
-0.00194966
-0.00179381
-0.00165823
-0.00154745
-0.00146539
-0.00141528
-0.00139948
-0.00141941
-0.0014755
-0.00156714
-0.00169272
-0.00184972
-0.00203476
-0.00224379
-0.00247221
-0.00271512
-0.00296744
-0.00322415
-0.00348041
-0.00373174
-0.00397409
-0.00420393
-0.00441821
-0.00461439
-0.00479035
-0.00494426
-0.00507452
-0.0051797
-0.00525836
-0.00530805
-0.00532752
0.00149881
0.00119712
0.000966604
0.000780857
0.000614625
0.000465299
0.00033018
0.000205137
8.63523e-05
-2.9535e-05
-0.000145509
-0.000264166
-0.000387698
-0.000517904
-0.000656195
-0.0008036
-0.000960773
-0.00112801
-0.00130524
-0.00149204
-0.00168767
-0.00189102
-0.00210067
-0.00231487
-0.00253158
-0.00274848
-0.00296302
-0.00317243
-0.00337381
-0.00356412
-0.00374032
-0.00389941
-0.00403847
-0.00415481
-0.00424601
-0.00431002
-0.00434523
-0.00435056
-0.00432549
-0.00427014
-0.00418545
-0.00407287
-0.00393471
-0.00377396
-0.00359428
-0.00339997
-0.00319584
-0.00298717
-0.00277952
-0.00257861
-0.00239018
-0.00221976
-0.00207256
-0.00195323
-0.00186574
-0.00181321
-0.0017978
-0.00182062
-0.0018817
-0.00197996
-0.00211329
-0.00227862
-0.00247209
-0.00268915
-0.00292482
-0.00317388
-0.00343101
-0.00369107
-0.0039492
-0.00420093
-0.00444231
-0.00466991
-0.00488079
-0.00507249
-0.0052429
-0.00539016
-0.00551256
-0.00560835
-0.00567638
-0.00571682
0.00153838
0.00120838
0.000958289
0.000758679
0.000581294
0.000422829
0.000279944
0.000147791
2.19259e-05
-0.000101526
-0.000225976
-0.000354365
-0.000489168
-0.000632405
-0.000785661
-0.000950095
-0.00112645
-0.00131508
-0.00151594
-0.0017286
-0.00195225
-0.00218572
-0.00242745
-0.00267555
-0.00292777
-0.00318156
-0.00343409
-0.00368229
-0.00392289
-0.00415251
-0.00436769
-0.004565
-0.00474108
-0.00489278
-0.00501721
-0.00511186
-0.00517463
-0.005204
-0.00519904
-0.00515948
-0.00508582
-0.00497929
-0.00484194
-0.0046766
-0.00448684
-0.00427698
-0.00405197
-0.00381731
-0.00357891
-0.00334297
-0.00311579
-0.00290359
-0.00271235
-0.00254757
-0.00241409
-0.00231595
-0.00225622
-0.00223687
-0.00225873
-0.00232142
-0.00242341
-0.00256208
-0.00273383
-0.00293427
-0.0031584
-0.00340083
-0.00365597
-0.00391831
-0.00418252
-0.00444364
-0.0046972
-0.00493923
-0.00516631
-0.00537549
-0.00556427
-0.00573044
-0.00587187
-0.00598647
-0.00607427
-0.00613689
0.00153976
0.00118236
0.000913347
0.000700298
0.000511984
0.000344368
0.000193431
5.35911e-05
-8.02273e-05
-0.000212418
-0.000346815
-0.000486707
-0.000634841
-0.000793458
-0.000964308
-0.00114867
-0.00134739
-0.00156084
-0.00178902
-0.00203147
-0.00228733
-0.00255533
-0.00283379
-0.00312064
-0.00341342
-0.00370933
-0.00400524
-0.00429775
-0.00458322
-0.00485786
-0.00511777
-0.00535904
-0.00557784
-0.0057705
-0.00593359
-0.00606407
-0.00615933
-0.00621729
-0.00623652
-0.00621629
-0.00615664
-0.00605843
-0.00592338
-0.00575408
-0.00555396
-0.0053273
-0.00507913
-0.00481515
-0.00454162
-0.00426521
-0.00399284
-0.00373148
-0.00348795
-0.00326873
-0.00307969
-0.00292595
-0.00281167
-0.00273989
-0.00271243
-0.00272981
-0.00279128
-0.00289483
-0.00303728
-0.0032145
-0.00342153
-0.00365286
-0.00390263
-0.00416488
-0.00443377
-0.00470375
-0.00496968
-0.00522696
-0.00547151
-0.00569979
-0.00590875
-0.00609569
-0.00625797
-0.00639305
-0.00650208
-0.00658816
0.00149766
0.00111401
0.000826884
0.000600919
0.000401961
0.000225205
6.59337e-05
-8.21879e-05
-0.000224868
-0.000367022
-0.000512906
-0.000666152
-0.000829778
-0.00100624
-0.00119744
-0.00140478
-0.00162919
-0.00187111
-0.00213051
-0.00240694
-0.00269947
-0.00300673
-0.0033269
-0.00365773
-0.00399654
-0.00434025
-0.00468543
-0.00502832
-0.00536487
-0.00569085
-0.0060019
-0.00629358
-0.00656153
-0.0068015
-0.00700949
-0.00718182
-0.0073153
-0.00740723
-0.0074556
-0.0074591
-0.00741724
-0.0073304
-0.0071999
-0.00702798
-0.00681787
-0.00657371
-0.00630056
-0.00600428
-0.00569144
-0.00536918
-0.00504506
-0.00472685
-0.00442231
-0.00413899
-0.00388396
-0.00366357
-0.00348329
-0.00334744
-0.00325907
-0.00321984
-0.00323
-0.00328834
-0.00339233
-0.0035382
-0.00372117
-0.00393564
-0.0041755
-0.00443434
-0.0047057
-0.00498334
-0.00526134
-0.00553429
-0.00579733
-0.00604614
-0.00627697
-0.00648652
-0.00667148
-0.00682873
-0.00696056
-0.00707149
0.00140693
0.000998432
0.00069415
0.000455878
0.000246608
6.07411e-05
-0.00010716
-0.000264184
-0.000416679
-0.000570077
-0.000729059
-0.000897592
-0.00107896
-0.00127583
-0.00149026
-0.00172378
-0.00197738
-0.00225156
-0.00254631
-0.00286114
-0.00319506
-0.00354659
-0.00391378
-0.00429419
-0.00468488
-0.00508252
-0.00548333
-0.00588316
-0.00627756
-0.00666181
-0.00703104
-0.00738025
-0.00770448
-0.00799886
-0.00825872
-0.00847974
-0.00865799
-0.00879012
-0.00887342
-0.00890591
-0.00888648
-0.00881493
-0.00869205
-0.00851968
-0.0083007
-0.00803906
-0.00773974
-0.0074087
-0.00705278
-0.00667956
-0.00629725
-0.00591443
-0.00553988
-0.00518232
-0.00485015
-0.00455115
-0.00429229
-0.00407941
-0.00391706
-0.00380831
-0.00375467
-0.00375601
-0.00381063
-0.00391535
-0.00406569
-0.0042561
-0.00448021
-0.00473115
-0.00500182
-0.00528513
-0.00557427
-0.00586286
-0.00614506
-0.00641561
-0.00666989
-0.00690382
-0.0071133
-0.00729448
-0.00745075
-0.00758811
0.00126264
0.000830928
0.000510599
0.000260703
4.14902e-05
-0.000153449
-0.000330289
-0.000496871
-0.00066018
-0.000826165
-0.000999924
-0.00118575
-0.00138721
-0.00160715
-0.0018478
-0.00211081
-0.00239725
-0.00270766
-0.00304204
-0.00339989
-0.00378014
-0.00418123
-0.00460104
-0.00503693
-0.00548574
-0.00594381
-0.00640703
-0.00687085
-0.00733036
-0.00778034
-0.00821535
-0.00862982
-0.00901811
-0.00937467
-0.00969412
-0.00997137
-0.0102017
-0.0103811
-0.0105059
-0.0105736
-0.0105821
-0.0105306
-0.0104193
-0.0102496
-0.0100237
-0.00974546
-0.00941959
-0.00905207
-0.00864994
-0.00822119
-0.0077746
-0.00731962
-0.00686606
-0.0064239
-0.00600298
-0.0056127
-0.00526173
-0.00495769
-0.0047069
-0.00451414
-0.00438249
-0.0043132
-0.0043057
-0.00435764
-0.00446504
-0.00462251
-0.00482353
-0.00506078
-0.00532643
-0.0056125
-0.0059111
-0.00621472
-0.00651634
-0.00680957
-0.00708871
-0.00734873
-0.00758456
-0.00779149
-0.00797398
-0.00813956
0.00106013
0.000607082
0.000271953
1.11887e-05
-0.000217563
-0.000421534
-0.000607641
-0.000784473
-0.000959646
-0.00113962
-0.00132989
-0.0015351
-0.00175905
-0.0020048
-0.00227476
-0.00257067
-0.0028937
-0.00324443
-0.0036229
-0.00402855
-0.00446029
-0.00491642
-0.00539468
-0.00589223
-0.00640567
-0.00693101
-0.00746379
-0.00799902
-0.00853133
-0.00905495
-0.00956384
-0.0100518
-0.0105125
-0.0109396
-0.0113269
-0.0116686
-0.0119591
-0.0121935
-0.0123672
-0.0124769
-0.0125197
-0.012494
-0.0123993
-0.0122361
-0.0120064
-0.0117133
-0.0113615
-0.0109567
-0.0105062
-0.0100181
-0.00950183
-0.00896765
-0.00842643
-0.00788943
-0.00736804
-0.00687341
-0.00641612
-0.00600583
-0.00565091
-0.00535818
-0.00513265
-0.0049773
-0.00489302
-0.00487859
-0.0049308
-0.00504463
-0.00521353
-0.00542976
-0.00568477
-0.00596957
-0.00627507
-0.00659241
-0.00691321
-0.0072297
-0.0075349
-0.00782263
-0.00808663
-0.00832119
-0.00853184
-0.00872766
0.000795092
0.000322828
-2.57215e-05
-0.000296531
-0.000534388
-0.00074735
-0.000943073
-0.00113088
-0.00131901
-0.00151442
-0.001723
-0.00194971
-0.00219862
-0.002473
-0.0027754
-0.00310771
-0.00347116
-0.00386641
-0.0042935
-0.00475187
-0.00524036
-0.00575718
-0.00629991
-0.0068655
-0.00745028
-0.00804997
-0.0086597
-0.00927406
-0.00988715
-0.0104926
-0.0110839
-0.0116539
-0.0121957
-0.0127021
-0.0131662
-0.013581
-0.0139402
-0.0142379
-0.0144686
-0.0146279
-0.0147122
-0.0147188
-0.0146463
-0.0144947
-0.0142651
-0.0139602
-0.0135841
-0.0131425
-0.0126424
-0.0120923
-0.011502
-0.0108825
-0.0102457
-0.00960421
-0.00897093
-0.0083589
-0.0077808
-0.00724854
-0.00677286
-0.00636296
-0.00602615
-0.00576755
-0.0055899
-0.00549351
-0.00547625
-0.00553375
-0.0056596
-0.00584579
-0.00608302
-0.00636123
-0.00667
-0.00699894
-0.00733805
-0.00767797
-0.00801017
-0.00832707
-0.00862106
-0.00888519
-0.00912608
-0.00935443
0.000463651
-2.54828e-05
-0.00038594
-0.00066591
-0.000912413
-0.00113433
-0.00134003
-0.00153958
-0.00174179
-0.0019541
-0.00218282
-0.00243321
-0.00270959
-0.00301543
-0.00335346
-0.00372568
-0.00413343
-0.00457743
-0.00505774
-0.0055738
-0.00612438
-0.00670761
-0.0073209
-0.007961
-0.00862398
-0.00930521
-0.00999943
-0.0107008
-0.0114028
-0.0120986
-0.0127807
-0.0134417
-0.0140735
-0.0146683
-0.0152181
-0.0157151
-0.0161519
-0.0165216
-0.0168178
-0.0170349
-0.0171684
-0.0172145
-0.017171
-0.0170368
-0.0168124
-0.0164997
-0.0161023
-0.0156255
-0.0150761
-0.0144627
-0.0137954
-0.0130858
-0.0123467
-0.011592
-0.0108362
-0.0100942
-0.00938101
-0.00871091
-0.00809732
-0.00755215
-0.00708541
-0.0067048
-0.00641539
-0.00621944
-0.00611635
-0.0061027
-0.00617256
-0.00631775
-0.00652835
-0.00679318
-0.00710036
-0.0074378
-0.00779363
-0.00815661
-0.00851642
-0.00886379
-0.0091895
-0.0094852
-0.00975857
-0.010022
6.24443e-05
-0.000441
-0.000811731
-0.00109992
-0.00135459
-0.0015854
-0.00180148
-0.00201353
-0.00223097
-0.0024617
-0.00271239
-0.00298863
-0.00329498
-0.00363513
-0.00401196
-0.00442761
-0.00488352
-0.00538049
-0.00591861
-0.00649731
-0.00711532
-0.00777066
-0.0084606
-0.00918168
-0.00992967
-0.0106996
-0.0114859
-0.012282
-0.0130811
-0.0138755
-0.0146573
-0.015418
-0.0161488
-0.016841
-0.0174856
-0.0180738
-0.0185973
-0.0190479
-0.0194183
-0.0197017
-0.0198924
-0.0199859
-0.0199786
-0.0198686
-0.0196553
-0.01934
-0.0189255
-0.0184166
-0.0178197
-0.0171434
-0.0163978
-0.015595
-0.0147486
-0.0138735
-0.0129859
-0.0121026
-0.0112408
-0.0104175
-0.00964881
-0.00894985
-0.0083337
-0.00781108
-0.00738991
-0.00707493
-0.00686756
-0.00676582
-0.00676456
-0.00685575
-0.00702897
-0.00727196
-0.00757129
-0.00791298
-0.00828306
-0.00866811
-0.0090557
-0.00943462
-0.00979372
-0.010123
-0.0104312
-0.0107327
-0.000411313
-0.000926312
-0.00130557
-0.00160099
-0.00186331
-0.00210298
-0.00232979
-0.00255514
-0.00278895
-0.00303959
-0.00331409
-0.00361834
-0.00395715
-0.0043344
-0.00475315
-0.00521569
-0.00572356
-0.00627764
-0.00687807
-0.00752427
-0.00821493
-0.00894798
-0.00972053
-0.0105289
-0.0113686
-0.0122343
-0.0131199
-0.0140185
-0.0149225
-0.0158238
-0.0167135
-0.0175824
-0.018421
-0.0192193
-0.0199675
-0.0206559
-0.0212748
-0.0218152
-0.0222684
-0.0226266
-0.022883
-0.0230318
-0.0230685
-0.02299
-0.0227947
-0.0224831
-0.022057
-0.0215205
-0.0208796
-0.0201425
-0.0193193
-0.0184223
-0.0174656
-0.0164651
-0.0154385
-0.0144042
-0.0133818
-0.0123908
-0.0114507
-0.0105797
-0.00979432
-0.00910892
-0.00853477
-0.00807968
-0.00774766
-0.00753875
-0.00744905
-0.00747107
-0.0075941
-0.00780493
-0.00808856
-0.00842894
-0.00880977
-0.00921515
-0.00963021
-0.0100414
-0.0104355
-0.0108004
-0.011146
-0.0114885
-0.000959757
-0.00148338
-0.00186933
-0.00217092
-0.00244035
-0.0026888
-0.00292673
-0.00316613
-0.00341745
-0.00368947
-0.00398958
-0.00432394
-0.00469761
-0.00511468
-0.00557839
-0.00609115
-0.00665465
-0.00726983
-0.00793689
-0.00865526
-0.00942359
-0.0102397
-0.0111005
-0.0120022
-0.01294
-0.0139081
-0.0149
-0.0159083
-0.0169248
-0.0179406
-0.0189461
-0.0199313
-0.0208857
-0.0217984
-0.0226586
-0.0234554
-0.0241782
-0.0248166
-0.0253609
-0.0258023
-0.0261325
-0.0263447
-0.0264333
-0.026394
-0.0262243
-0.0259233
-0.0254923
-0.0249342
-0.0242545
-0.0234608
-0.0225628
-0.0215729
-0.0205055
-0.0193773
-0.0182068
-0.0170143
-0.0158215
-0.0146506
-0.013524
-0.0124635
-0.0114896
-0.0106206
-0.0098715
-0.00925401
-0.00877535
-0.00843822
-0.00824062
-0.00817606
-0.00823394
-0.0084003
-0.00865858
-0.00899062
-0.00937753
-0.00980062
-0.0102422
-0.0106862
-0.0111165
-0.011519
-0.0119046
-0.0122916
-0.00158432
-0.00211349
-0.0025042
-0.00281086
-0.00308683
-0.00334397
-0.00359335
-0.00384754
-0.00411746
-0.00441227
-0.0047397
-0.00510618
-0.00551702
-0.00597649
-0.00648802
-0.00705417
-0.00767675
-0.00835679
-0.00909454
-0.00988946
-0.0107401
-0.0116443
-0.0125988
-0.0135994
-0.0146411
-0.0157177
-0.0168224
-0.017947
-0.0190827
-0.02022
-0.0213485
-0.0224572
-0.0235347
-0.0245693
-0.0255489
-0.0264616
-0.0272957
-0.0280397
-0.0286829
-0.0292149
-0.0296267
-0.0299101
-0.0300584
-0.0300662
-0.0299298
-0.0296474
-0.0292189
-0.0286465
-0.0279348
-0.0270905
-0.026123
-0.0250441
-0.0238684
-0.0226128
-0.0212968
-0.0199421
-0.018572
-0.0172113
-0.0158856
-0.0146203
-0.0134399
-0.0123669
-0.011421
-0.0106182
-0.00996968
-0.00948164
-0.00915469
-0.00898398
-0.00895954
-0.00906698
-0.00928838
-0.00960339
-0.00999037
-0.0104275
-0.010894
-0.0113706
-0.0118383
-0.0122803
-0.0127088
-0.0131438
-0.00228567
-0.00281718
-0.00321064
-0.00352124
-0.00380313
-0.00406882
-0.00432996
-0.00459961
-0.00488914
-0.00520808
-0.00556444
-0.00596492
-0.00641506
-0.00691933
-0.00748133
-0.00810379
-0.00878862
-0.00953696
-0.0103491
-0.0112246
-0.0121618
-0.0131586
-0.0142114
-0.015316
-0.0164668
-0.0176575
-0.0188804
-0.0201271
-0.0213881
-0.0226529
-0.0239105
-0.0251489
-0.0263558
-0.0275184
-0.0286237
-0.0296587
-0.0306105
-0.0314666
-0.0322151
-0.0328446
-0.0333448
-0.0337066
-0.033922
-0.0339845
-0.0338893
-0.0336333
-0.0332157
-0.0326373
-0.0319017
-0.0310148
-0.0299851
-0.0288238
-0.0275451
-0.026166
-0.0247064
-0.0231888
-0.0216382
-0.0200816
-0.0185474
-0.0170646
-0.0156617
-0.0143661
-0.0132024
-0.0121914
-0.0113494
-0.0106866
-0.0102071
-0.00990871
-0.00978262
-0.00981455
-0.00998549
-0.010273
-0.0106525
-0.011099
-0.0115878
-0.0120964
-0.0126023
-0.0130857
-0.0135597
-0.0140466
-0.00306367
-0.00359423
-0.00398838
-0.00430172
-0.00458889
-0.00486294
-0.00513608
-0.0054218
-0.00573186
-0.00607611
-0.00646286
-0.00689904
-0.00739041
-0.00794163
-0.00855648
-0.00923782
-0.00998772
-0.0108074
-0.0116972
-0.0126566
-0.0136842
-0.0147774
-0.0159327
-0.0171455
-0.0184099
-0.0197191
-0.0210651
-0.0224386
-0.0238296
-0.0252268
-0.0266183
-0.0279913
-0.0293324
-0.0306279
-0.0318638
-0.033026
-0.0341005
-0.0350738
-0.0359328
-0.0366652
-0.0372597
-0.0377059
-0.0379949
-0.0381191
-0.0380726
-0.0378513
-0.037453
-0.0368777
-0.0361276
-0.0352075
-0.034125
-0.0328903
-0.031517
-0.0300215
-0.0284239
-0.0267469
-0.0250168
-0.0232622
-0.0215141
-0.0198048
-0.018167
-0.0166327
-0.0152319
-0.0139911
-0.0129319
-0.01207
-0.0114138
-0.0109644
-0.0107153
-0.010653
-0.0107578
-0.0110055
-0.0113685
-0.011818
-0.0123258
-0.0128652
-0.0134097
-0.0139361
-0.0144583
-0.0150011
-0.00391738
-0.00444364
-0.00483636
-0.00515123
-0.00544295
-0.00572513
-0.0060104
-0.00631269
-0.00664406
-0.00701467
-0.00743308
-0.00790644
-0.00844069
-0.00904072
-0.00971044
-0.0104529
-0.0112702
-0.0121638
-0.0131339
-0.0141802
-0.0153011
-0.0164939
-0.0177549
-0.0190793
-0.0204608
-0.021892
-0.0233645
-0.0248685
-0.026393
-0.0279261
-0.0294549
-0.0309658
-0.0324445
-0.0338762
-0.0352458
-0.0365384
-0.0377389
-0.0388328
-0.039806
-0.0406453
-0.0413383
-0.0418738
-0.0422418
-0.0424338
-0.0424429
-0.0422638
-0.0418934
-0.0413304
-0.0405758
-0.0396333
-0.0385091
-0.0372123
-0.0357554
-0.0341541
-0.0324277
-0.0305992
-0.028695
-0.0267451
-0.0247824
-0.0228422
-0.020961
-0.0191756
-0.0175215
-0.0160313
-0.0147327
-0.0136475
-0.0127897
-0.0121649
-0.0117698
-0.0115926
-0.0116136
-0.011807
-0.0121426
-0.0125878
-0.01311
-0.0136781
-0.0142611
-0.0148318
-0.0154051
-0.0160078
-0.00484499
-0.00536358
-0.00575275
-0.00606786
-0.00636339
-0.00665336
-0.00695083
-0.00727004
-0.00762335
-0.00802117
-0.00847226
-0.00898399
-0.00956249
-0.0102128
-0.010939
-0.0117443
-0.0126309
-0.0136003
-0.0146529
-0.0157882
-0.0170046
-0.0182993
-0.0196684
-0.0211066
-0.0226075
-0.0241632
-0.0257645
-0.027401
-0.0290611
-0.0307321
-0.0324001
-0.0340506
-0.0356684
-0.0372377
-0.0387426
-0.0401669
-0.0414949
-0.042711
-0.0438003
-0.0447486
-0.0455428
-0.0461708
-0.0466218
-0.0468864
-0.0469569
-0.0468269
-0.0464924
-0.0459508
-0.0452021
-0.0442486
-0.0430951
-0.0417493
-0.0402224
-0.0385287
-0.0366866
-0.0347182
-0.03265
-0.0305125
-0.0283398
-0.0261695
-0.0240416
-0.0219974
-0.0200778
-0.0183216
-0.0167635
-0.0154322
-0.0143483
-0.0135232
-0.0129579
-0.0126434
-0.012561
-0.0126839
-0.0129794
-0.0134112
-0.0139421
-0.014536
-0.0151569
-0.015773
-0.0163998
-0.0170667
-0.00584387
-0.00635144
-0.00673492
-0.00704898