/*--------------------------------*- C++ -*----------------------------------*\
  =========                 |
  \\      /  F ield         | OpenFOAM: The Open Source CFD Toolbox
   \\    /   O peration     | Website:  https://openfoam.org
    \\  /    A nd           | Version:  7
     \\/     M anipulation  |
\*---------------------------------------------------------------------------*/
FoamFile
{
    version     2.0;
    format      ascii;
    class       surfaceScalarField;
    location    "2";
    object      phi;
}
// * * * * * * * * * * * * * * * * * * * * * * * * * * * * * * * * * * * * * //

dimensions      [0 3 -1 0 0 0 0];

internalField   nonuniform List<scalar> 
12640
(
3.15977e-10
-3.15792e-10
9.42868e-10
-6.26944e-10
1.52942e-09
-5.86518e-10
1.87134e-09
-3.41952e-10
1.8735e-09
-2.1845e-12
1.50529e-09
3.68201e-10
7.68396e-10
7.36877e-10
-3.15543e-10
1.08396e-09
-1.71687e-09
1.40133e-09
-3.40345e-09
1.68657e-09
-5.34407e-09
1.94062e-09
-7.51041e-09
2.16634e-09
-9.87785e-09
2.36743e-09
-1.24256e-08
2.54775e-09
-1.51364e-08
2.71082e-09
-1.7996e-08
2.85958e-09
-2.09922e-08
2.99623e-09
-2.41144e-08
3.12213e-09
-2.73522e-08
3.2378e-09
-3.06952e-08
3.343e-09
-3.4132e-08
3.43678e-09
-3.76496e-08
3.5176e-09
-4.1233e-08
3.5834e-09
-4.48647e-08
3.63172e-09
-4.85245e-08
3.65986e-09
-5.21895e-08
3.66494e-09
-5.58335e-08
3.64404e-09
-5.94278e-08
3.59427e-09
-6.29407e-08
3.51289e-09
-6.63381e-08
3.39741e-09
-6.95837e-08
3.24565e-09
-7.26396e-08
3.05587e-09
-7.54664e-08
2.82682e-09
-7.80243e-08
2.55788e-09
-8.02734e-08
2.24909e-09
-8.21746e-08
1.9012e-09
-8.36904e-08
1.5158e-09
-8.47857e-08
1.09531e-09
-8.54288e-08
6.43045e-10
-8.5592e-08
1.63243e-10
-8.52529e-08
-3.39096e-10
-8.4395e-08
-8.57943e-10
-8.30083e-08
-1.38661e-09
-8.10906e-08
-1.91769e-09
-7.86475e-08
-2.44319e-09
-7.56927e-08
-2.95471e-09
-7.22491e-08
-3.4436e-09
-6.83479e-08
-3.90118e-09
-6.4029e-08
-4.31891e-09
-5.93404e-08
-4.68867e-09
-5.43374e-08
-5.00295e-09
-4.90823e-08
-5.25512e-09
-4.36427e-08
-5.43961e-09
-3.80906e-08
-5.5521e-09
-3.25009e-08
-5.5897e-09
-2.69498e-08
-5.55105e-09
-2.15134e-08
-5.43639e-09
-1.62658e-08
-5.24759e-09
-1.12777e-08
-4.98812e-09
-6.61476e-09
-4.66295e-09
-2.33631e-09
-4.27843e-09
1.50581e-09
-3.84212e-09
4.86835e-09
-3.36255e-09
7.71729e-09
-2.84895e-09
1.00285e-08
-2.31124e-09
1.17882e-08
-1.75964e-09
1.29928e-08
-1.20457e-09
1.36493e-08
-6.56592e-10
1.37757e-08
-1.26427e-10
1.34009e-08
3.74873e-10
1.25653e-08
8.35578e-10
1.13226e-08
1.24273e-09
9.74132e-09
1.58125e-09
7.90861e-09
1.83271e-09
5.93501e-09
1.97359e-09
3.96127e-09
1.97374e-09
2.16516e-09
1.79611e-09
7.67566e-10
1.39759e-09
2.0306e-11
7.47258e-10
2.03129e-11
6.3353e-10
-9.49374e-10
1.5753e-09
-1.56869e-09
2.25616e-09
-1.26741e-09
2.32086e-09
-4.06617e-10
1.56749e-09
7.51202e-10
-9.56246e-11
2.03128e-09
-2.68255e-09
3.32379e-09
-6.16328e-09
4.56467e-09
-1.04813e-08
5.71935e-09
-1.55683e-08
6.77363e-09
-2.13536e-08
7.72584e-09
-2.77689e-08
8.5817e-09
-3.47522e-08
9.35073e-09
-4.22482e-08
1.00438e-08
-5.02086e-08
1.06711e-08
-5.85907e-08
1.12417e-08
-6.73565e-08
1.17621e-08
-7.64705e-08
1.22362e-08
-8.5898e-08
1.26653e-08
-9.56031e-08
1.30482e-08
-1.05547e-07
1.33811e-08
-1.15688e-07
1.36585e-08
-1.25978e-07
1.38728e-08
-1.36362e-07
1.40155e-08
-1.46779e-07
1.40769e-08
-1.57161e-07
1.4047e-08
-1.67432e-07
1.39157e-08
-1.77511e-07
1.36731e-08
-1.87308e-07
1.33098e-08
-1.96729e-07
1.28178e-08
-2.05673e-07
1.21901e-08
-2.14039e-07
1.14213e-08
-2.2172e-07
1.05082e-08
-2.28612e-07
9.44966e-09
-2.3461e-07
8.24697e-09
-2.39613e-07
6.90424e-09
-2.43525e-07
5.42842e-09
-2.46259e-07
3.82944e-09
-2.47737e-07
2.12038e-09
-2.47891e-07
3.17432e-10
-2.46669e-07
-1.56053e-09
-2.44036e-07
-3.4913e-09
-2.39972e-07
-5.45039e-09
-2.34479e-07
-7.41102e-09
-2.27578e-07
-9.34462e-09
-2.19311e-07
-1.12213e-08
-2.09744e-07
-1.30106e-08
-1.98963e-07
-1.4682e-08
-1.87076e-07
-1.62058e-08
-1.74211e-07
-1.75538e-08
-1.60514e-07
-1.86998e-08
-1.46148e-07
-1.96211e-08
-1.31289e-07
-2.02983e-08
-1.16125e-07
-2.07166e-08
-1.00849e-07
-2.08659e-08
-8.56583e-08
-2.07416e-08
-7.07504e-08
-2.03442e-08
-5.63178e-08
-1.96802e-08
-4.25444e-08
-1.87615e-08
-2.96022e-08
-1.76051e-08
-1.76477e-08
-1.6233e-08
-6.81847e-09
-1.46714e-08
2.76923e-09
-1.29502e-08
1.10228e-08
-1.11025e-08
1.78748e-08
-9.16334e-09
2.32849e-08
-7.1697e-09
2.724e-08
-5.1597e-09
2.97559e-08
-3.17245e-09
3.08775e-08
-1.24807e-09
3.06805e-08
5.71849e-10
2.92726e-08
2.24347e-09
2.67964e-08
3.71895e-09
2.3433e-08
4.94465e-09
1.94072e-08
5.85852e-09
1.49933e-08
6.3875e-09
1.05203e-08
6.44673e-09
6.37213e-09
5.94427e-09
2.97398e-09
4.79574e-09
7.44174e-10
2.97707e-09
7.64481e-10
6.01448e-10
-1.55079e-09
1.27931e-09
-2.24661e-09
1.37959e-09
-1.36773e-09
4.94752e-10
4.78198e-10
-1.61751e-09
2.86345e-09
-5.07383e-09
5.48761e-09
-9.90006e-09
8.15001e-09
-1.60616e-08
1.07262e-08
-2.34877e-08
1.31454e-08
-3.20885e-08
1.53744e-08
-4.17672e-08
1.74045e-08
-5.24277e-08
1.92422e-08
-6.39794e-08
2.09025e-08
-7.63393e-08
2.24037e-08
-8.94321e-08
2.37639e-08
-1.03189e-07
2.49987e-08
-1.17547e-07
2.61196e-08
-1.32444e-07
2.71332e-08
-1.47819e-07
2.8041e-08
-1.63611e-07
2.88393e-08
-1.7975e-07
2.952e-08
-1.96162e-07
3.00709e-08
-2.12765e-07
3.04764e-08
-2.29468e-07
3.07185e-08
-2.46169e-07
3.07777e-08
-2.62756e-07
3.06335e-08
-2.79106e-07
3.02655e-08
-2.95086e-07
2.9654e-08
-3.10558e-07
2.87809e-08
-3.2537e-07
2.76305e-08
-3.3937e-07
2.61897e-08
-3.52398e-07
2.44494e-08
-3.64294e-07
2.24043e-08
-3.74899e-07
2.00543e-08
-3.84056e-07
1.74042e-08
-3.91616e-07
1.44645e-08
-3.9744e-07
1.12518e-08
-4.01399e-07
7.7885e-09
-4.03382e-07
4.1036e-09
-4.03297e-07
2.32367e-10
-4.01072e-07
-3.78509e-09
-3.96662e-07
-7.90153e-09
-3.90047e-07
-1.20657e-08
-3.81236e-07
-1.6222e-08
-3.70269e-07
-2.03114e-08
-3.57217e-07
-2.42726e-08
-3.42185e-07
-2.80433e-08
-3.25306e-07
-3.15614e-08
-3.06745e-07
-3.47666e-08
-2.86697e-07
-3.76019e-08
-2.65381e-07
-4.00149e-08
-2.43043e-07
-4.19592e-08
-2.19946e-07
-4.33961e-08
-1.96367e-07
-4.42955e-08
-1.72596e-07
-4.4637e-08
-1.48926e-07
-4.44108e-08
-1.25653e-07
-4.3618e-08
-1.03062e-07
-4.22711e-08
-8.14296e-08
-4.03936e-08
-6.10152e-08
-3.80195e-08
-4.20551e-08
-3.5193e-08
-2.47592e-08
-3.19673e-08
-9.30639e-09
-2.8403e-08
4.15888e-09
-2.45678e-08
1.55296e-08
-2.05341e-08
2.47387e-08
-1.63787e-08
3.17605e-08
-1.21816e-08
3.66131e-08
-8.02502e-09
3.93591e-08
-3.99413e-09
4.01082e-08
-1.77177e-10
3.90181e-08
3.33351e-09
3.62987e-08
6.43836e-09
3.22145e-08
9.02887e-09
2.70889e-08
1.09841e-08
2.13079e-08
1.21686e-08
1.53206e-08
1.2434e-08
9.63531e-09
1.16296e-08
4.80398e-09
9.62708e-09
1.39524e-09
6.38579e-09
2.15972e-09
3.4858e-10
-1.89939e-09
3.60747e-10
-2.25876e-09
-6.0315e-10
-4.03851e-10
-2.94369e-09
2.81869e-09
-6.8986e-09
6.81835e-09
-1.25803e-08
1.11693e-08
-2.00091e-08
1.55789e-08
-2.9142e-08
1.98591e-08
-3.98955e-08
2.38989e-08
-5.21635e-08
2.76424e-08
-6.58302e-08
3.10712e-08
-8.07789e-08
3.41909e-08
-9.6897e-08
3.70207e-08
-1.14079e-07
3.95857e-08
-1.32227e-07
4.19115e-08
-1.51248e-07
4.40199e-08
-1.71055e-07
4.59266e-08
-1.91562e-07
4.76399e-08
-2.12681e-07
4.91602e-08
-2.34321e-07
5.04799e-08
-2.56385e-07
5.15842e-08
-2.78767e-07
5.24522e-08
-3.01348e-07
5.30578e-08
-3.24001e-07
5.33713e-08
-3.46584e-07
5.33604e-08
-3.68942e-07
5.29921e-08
-3.9091e-07
5.22334e-08
-4.1231e-07
5.10533e-08
-4.32952e-07
4.94235e-08
-4.52642e-07
4.73199e-08
-4.71175e-07
4.47235e-08
-4.88348e-07
4.16217e-08
-5.03952e-07
3.80087e-08
-5.17785e-07
3.38873e-08
-5.29649e-07
2.92685e-08
-5.39358e-07
2.41729e-08
-5.46737e-07
1.86307e-08
-5.51631e-07
1.26822e-08
-5.53904e-07
6.37759e-09
-5.53449e-07
-2.22729e-10
-5.50184e-07
-7.05082e-09
-5.44058e-07
-1.40273e-08
-5.35056e-07
-2.10672e-08
-5.232e-07
-2.80783e-08
-5.08548e-07
-3.49638e-08
-4.91197e-07
-4.16233e-08
-4.71285e-07
-4.79554e-08
-4.48987e-07
-5.38595e-08
-4.24516e-07
-5.92377e-08
-3.9812e-07
-6.39979e-08
-3.70079e-07
-6.80553e-08
-3.40703e-07
-7.13353e-08
-3.10324e-07
-7.37749e-08
-2.79295e-07
-7.53254e-08
-2.47978e-07
-7.59535e-08
-2.16746e-07
-7.56425e-08
-1.85971e-07
-7.43936e-08
-1.56016e-07
-7.22259e-08
-1.27233e-07
-6.91763e-08
-9.99537e-08
-6.52991e-08
-7.44816e-08
-6.06651e-08
-5.10891e-08
-5.53598e-08
-3.00103e-08
-4.94818e-08
-1.14367e-08
-4.31414e-08
4.48685e-09
-3.64576e-08
1.76656e-08
-2.95575e-08
2.80578e-08
-2.25737e-08
3.56768e-08
-1.5644e-08
4.05936e-08
-8.91093e-09
4.29384e-08
-2.52201e-09
4.29033e-08
3.36865e-09
4.07437e-08
8.59788e-09
3.67818e-08
1.29908e-08
3.14078e-08
1.6358e-08
2.5082e-08
1.84944e-08
1.83335e-08
1.91825e-08
1.17575e-08
1.82056e-08
6.00928e-09
1.53752e-08
1.80682e-09
1.05882e-08
3.96653e-09
-3.06435e-11
-1.86876e-09
-9.64585e-10
-1.32481e-09
-3.35423e-09
1.98577e-09
-7.54507e-09
7.00952e-09
-1.37349e-08
1.30082e-08
-2.2008e-08
1.94423e-08
-3.23633e-08
2.59341e-08
-4.47402e-08
3.2236e-08
-5.90393e-08
3.81981e-08
-7.5139e-08
4.37421e-08
-9.29073e-08
4.88395e-08
-1.12211e-07
5.34942e-08
-1.32919e-07
5.77289e-08
-1.54908e-07
6.15746e-08
-1.78059e-07
6.5063e-08
-2.0226e-07
6.82211e-08
-2.27401e-07
7.10676e-08
-2.53372e-07
7.36107e-08
-2.8006e-07
7.5848e-08
-3.07346e-07
7.77658e-08
-3.35103e-07
7.93409e-08
-3.63192e-07
8.05412e-08
-3.91462e-07
8.13281e-08
-4.19749e-07
8.16579e-08
-4.47872e-07
8.14839e-08
-4.75639e-07
8.07586e-08
-5.02841e-07
7.94356e-08
-5.29259e-07
7.74714e-08
-5.54662e-07
7.48271e-08
-5.78813e-07
7.14706e-08
-6.01467e-07
6.73774e-08
-6.22378e-07
6.25328e-08
-6.41302e-07
5.69328e-08
-6.58e-07
5.0585e-08
-6.72242e-07
4.35102e-08
-6.83811e-07
3.57423e-08
-6.9251e-07
2.73297e-08
-6.98162e-07
1.83345e-08
-7.00618e-07
8.83321e-09
-6.99757e-07
-1.08389e-09
-6.95493e-07
-1.13144e-08
-6.87778e-07
-2.17427e-08
-6.76601e-07
-3.22436e-08
-6.61997e-07
-4.26831e-08
-6.4404e-07
-5.29208e-08
-6.22851e-07
-6.28118e-08
-5.98596e-07
-7.22102e-08
-5.71484e-07
-8.09714e-08
-5.41767e-07
-8.89553e-08
-5.09735e-07
-9.60299e-08
-4.75717e-07
-1.02074e-07
-4.40072e-07
-1.06979e-07
-4.03191e-07
-1.10657e-07
-3.65481e-07
-1.13035e-07
-3.27368e-07
-1.14066e-07
-2.89287e-07
-1.13724e-07
-2.51672e-07
-1.12009e-07
-2.14951e-07
-1.08946e-07
-1.7954e-07
-1.04587e-07
-1.4583e-07
-9.90085e-08
-1.14186e-07
-9.23092e-08
-8.49348e-08
-8.46113e-08
-5.83602e-08
-7.60564e-08
-3.46985e-08
-6.6803e-08
-1.41321e-08
-5.70241e-08
3.215e-09
-4.69045e-08
1.72803e-08
-3.6639e-08
2.80663e-08
-2.643e-08
3.56428e-08
-1.64875e-08
4.01493e-08
-7.02855e-09
4.17969e-08
1.72107e-09
4.08697e-08
9.52508e-09
3.77266e-08
1.6134e-08
3.28019e-08
2.12828e-08
2.66058e-08
2.46905e-08
1.97242e-08
2.60641e-08
1.28194e-08
2.51105e-08
6.63472e-09
2.15599e-08
2.01622e-09
1.52067e-08
5.98275e-09
-4.82177e-10
-1.38661e-09
-2.55596e-09
7.48934e-10
-6.63805e-09
6.06787e-09
-1.29831e-08
1.33546e-08
-2.17223e-08
2.17473e-08
-3.28905e-08
3.06105e-08
-4.64506e-08
3.94942e-08
-6.23146e-08
4.81e-08
-8.03618e-08
5.62452e-08
-1.00452e-07
6.38327e-08
-1.22439e-07
7.08257e-08
-1.46172e-07
7.72272e-08
-1.71506e-07
8.30632e-08
-1.98301e-07
8.837e-08
-2.26423e-07
9.31844e-08
-2.55738e-07
9.75369e-08
-2.86118e-07
1.01447e-07
-3.1743e-07
1.04922e-07
-3.49536e-07
1.07954e-07
-3.82291e-07
1.10521e-07
-4.15539e-07
1.12589e-07
-4.49111e-07
1.14113e-07
-4.82823e-07
1.1504e-07
-5.16475e-07
1.1531e-07
-5.49853e-07
1.14862e-07
-5.82726e-07
1.13631e-07
-6.14847e-07
1.11558e-07
-6.45962e-07
1.08586e-07
-6.758e-07
1.04666e-07
-7.04088e-07
9.97585e-08
-7.30546e-07
9.38357e-08
-7.54896e-07
8.6882e-08
-7.7686e-07
7.88971e-08
-7.96172e-07
6.98969e-08
-8.12576e-07
5.99143e-08
-8.25834e-07
4.90007e-08
-8.3573e-07
3.72255e-08
-8.42073e-07
2.46771e-08
-8.44702e-07
1.14622e-08
-8.43491e-07
-2.29479e-09
-8.38352e-07
-1.64532e-08
-8.29238e-07
-3.08566e-08
-8.16146e-07
-4.53358e-08
-7.99118e-07
-5.97106e-08
-7.78246e-07
-7.37929e-08
-7.53668e-07
-8.73897e-08
-7.25572e-07
-1.00306e-07
-6.94193e-07
-1.12351e-07
-6.59812e-07
-1.23336e-07
-6.22754e-07
-1.33088e-07
-5.83384e-07
-1.41444e-07
-5.42103e-07
-1.4826e-07
-4.99343e-07
-1.53417e-07
-4.5556e-07
-1.56818e-07
-4.11228e-07
-1.58397e-07
-3.66834e-07
-1.58118e-07
-3.22865e-07
-1.55978e-07
-2.79805e-07
-1.52007e-07
-2.38122e-07
-1.4627e-07
-1.98265e-07
-1.38866e-07
-1.6065e-07
-1.29924e-07
-1.25655e-07
-1.19606e-07
-9.36132e-08
-1.08099e-07
-6.48034e-08
-9.56128e-08
-3.94466e-08
-8.23809e-08
-1.76992e-08
-6.8652e-08
3.51221e-10
-5.46895e-08
1.46899e-08
-4.07686e-08
2.5377e-08
-2.71746e-08
3.25512e-08
-1.42027e-08
3.64302e-08
-2.15797e-09
3.7313e-08
8.6423e-09
3.55799e-08
1.78671e-08
3.16931e-08
2.51695e-08
2.61972e-08
3.01864e-08
1.97195e-08
3.25417e-08
1.29754e-08
3.18547e-08
6.77878e-09
2.77564e-08
2.07093e-09
1.99146e-08
8.05368e-09
-9.79773e-10
-4.0685e-10
-4.32411e-09
4.09326e-09
-1.02924e-08
1.20362e-08
-1.90229e-08
2.2085e-08
-3.05585e-08
3.3283e-08
-4.48679e-08
4.49199e-08
-6.18644e-08
5.64907e-08
-8.14231e-08
6.76586e-08
-1.03395e-07
7.82174e-08
-1.2762e-07
8.80572e-08
-1.53931e-07
9.71373e-08
-1.82166e-07
1.05462e-07
-2.12164e-07
1.13061e-07
-2.43771e-07
1.19977e-07
-2.76837e-07
1.2625e-07
-3.11213e-07
1.31913e-07
-3.4675e-07
1.36985e-07
-3.83296e-07
1.41468e-07
-4.20689e-07
1.45348e-07
-4.58761e-07
1.48593e-07
-4.97327e-07
1.51155e-07
-5.36189e-07
1.52975e-07
-5.75132e-07
1.53983e-07
-6.13926e-07
1.54104e-07
-6.5232e-07
1.53256e-07
-6.90052e-07
1.51363e-07
-7.26843e-07
1.48348e-07
-7.62401e-07
1.44143e-07
-7.96426e-07
1.38691e-07
-8.28612e-07
1.31944e-07
-8.58649e-07
1.23873e-07
-8.86232e-07
1.14465e-07
-9.11058e-07
1.03723e-07
-9.32838e-07
9.16766e-08
-9.51296e-07
7.83724e-08
-9.66177e-07
6.3882e-08
-9.77251e-07
4.82995e-08
-9.84317e-07
3.17425e-08
-9.87205e-07
1.43508e-08
-9.85786e-07
-3.71368e-09
-9.7997e-07
-2.22694e-08
-9.69711e-07
-4.11158e-08
-9.5501e-07
-6.00369e-08
-9.35917e-07
-7.88037e-08
-9.12532e-07
-9.71776e-08
-8.85008e-07
-1.14914e-07
-8.53546e-07
-1.31768e-07
-8.18402e-07
-1.47495e-07
-7.79876e-07
-1.61862e-07
-7.3832e-07
-1.74644e-07
-6.94125e-07
-1.85638e-07
-6.47724e-07
-1.94662e-07
-5.99582e-07
-2.01559e-07
-5.50194e-07
-2.06206e-07
-5.00076e-07
-2.08516e-07
-4.49756e-07
-2.08439e-07
-3.99768e-07
-2.05965e-07
-3.50645e-07
-2.0113e-07
-3.02906e-07
-1.94009e-07
-2.57048e-07
-1.84724e-07
-2.13538e-07
-1.73434e-07
-1.72806e-07
-1.60339e-07
-1.3523e-07
-1.45674e-07
-1.01136e-07
-1.29707e-07
-7.07835e-08
-1.12733e-07
-4.4366e-08
-9.50695e-08
-2.20006e-08
-7.70548e-08
-3.72628e-09
-5.9043e-08
1.05007e-08
-4.14016e-08
2.08088e-08
-2.45107e-08
2.7413e-08
-8.76216e-09
3.06159e-08
5.43939e-09
3.08081e-08
1.76749e-08
2.84682e-08
2.75093e-08
2.41636e-08
3.4491e-08
1.85524e-08
3.81529e-08
1.23898e-08
3.80173e-08
6.54155e-09
3.36047e-08
2.01078e-09
2.44454e-08
1.00644e-08
-1.50601e-09
1.09917e-09
-6.21182e-09
8.79904e-09
-1.42065e-08
2.00308e-08
-2.54953e-08
3.33738e-08
-4.00176e-08
4.78053e-08
-5.76618e-08
6.25641e-08
-7.82802e-08
7.71091e-08
-1.01702e-07
9.10809e-08
-1.27746e-07
1.04261e-07
-1.56224e-07
1.16535e-07
-1.86951e-07
1.27865e-07
-2.19749e-07
1.38259e-07
-2.54442e-07
1.47755e-07
-2.90864e-07
1.56399e-07
-3.2885e-07
1.64236e-07
-3.68236e-07
1.71299e-07
-4.08857e-07
1.77606e-07
-4.50541e-07
1.83152e-07
-4.93107e-07
1.87913e-07
-5.3636e-07
1.91846e-07
-5.80093e-07
1.94888e-07
-6.24079e-07
1.96962e-07
-6.68077e-07
1.97981e-07
-7.11824e-07
1.97851e-07
-7.55043e-07
1.96476e-07
-7.9744e-07
1.93759e-07
-8.38704e-07
1.89613e-07
-8.78518e-07
1.83957e-07
-9.16552e-07
1.76725e-07
-9.52473e-07
1.67866e-07
-9.85948e-07
1.57348e-07
-1.01665e-06
1.45164e-07
-1.04425e-06
1.31325e-07
-1.06845e-06
1.15873e-07
-1.08895e-06
9.88721e-08
-1.10548e-06
8.04167e-08
-1.11781e-06
6.06278e-08
-1.12572e-06
3.96541e-08
-1.12904e-06
1.76709e-08
-1.12763e-06
-5.12061e-09
-1.12141e-06
-2.84961e-08
-1.11031e-06
-5.22091e-08
-1.09436e-06
-7.5995e-08
-1.07358e-06
-9.95742e-08
-1.04811e-06
-1.22656e-07
-1.01808e-06
-1.44943e-07
-9.83711e-07
-1.66135e-07
-9.4527e-07
-1.85937e-07
-9.0307e-07
-2.04061e-07
-8.57478e-07
-2.20236e-07
-8.08906e-07
-2.3421e-07
-7.57809e-07
-2.45758e-07
-7.04681e-07
-2.54688e-07
-6.50044e-07
-2.60842e-07
-5.94451e-07
-2.64109e-07
-5.38468e-07
-2.64422e-07
-4.82671e-07
-2.61762e-07
-4.27636e-07
-2.56164e-07
-3.73931e-07
-2.47714e-07
-3.22103e-07
-2.36552e-07
-2.72668e-07
-2.22868e-07
-2.26106e-07
-2.06901e-07
-1.82845e-07
-1.88935e-07
-1.43257e-07
-1.69295e-07
-1.07648e-07
-1.48342e-07
-7.62501e-08
-1.26468e-07
-4.92164e-08
-1.04089e-07
-2.66155e-08
-8.16438e-08
-8.42788e-09
-5.95893e-08
5.45751e-09
-3.83961e-08
1.52446e-08
-1.85492e-08
2.12311e-08
-5.47172e-10
2.38093e-08
1.50967e-08
2.34656e-08
2.78531e-08
2.07814e-08
3.71752e-08
1.6436e-08
4.24984e-08
1.12125e-08
4.32407e-08
6.0106e-09
3.88066e-08
1.86727e-09
2.85887e-08
1.19317e-08
-2.05155e-09
3.15072e-09
-8.18139e-09
1.49289e-08
-1.83022e-08
3.01517e-08
-3.22759e-08
4.73475e-08
-4.99264e-08
6.54557e-08
-7.10515e-08
8.36891e-08
-9.54337e-08
1.01491e-07
-1.22849e-07
1.18497e-07
-1.53077e-07
1.34488e-07
-1.859e-07
1.49358e-07
-2.21111e-07
1.63077e-07
-2.58515e-07
1.75663e-07
-2.97923e-07
1.87163e-07
-3.39154e-07
1.9763e-07
-3.82032e-07
2.07113e-07
-4.26378e-07
2.15646e-07
-4.72013e-07
2.2324e-07
-5.18746e-07
2.29885e-07
-5.66377e-07
2.35545e-07
-6.14692e-07
2.40161e-07
-6.63459e-07
2.43654e-07
-7.12428e-07
2.45931e-07
-7.6133e-07
2.46883e-07
-8.09879e-07
2.464e-07
-8.57769e-07
2.44365e-07
-9.04679e-07
2.4067e-07
-9.50276e-07
2.3521e-07
-9.94215e-07
2.27895e-07
-1.03614e-06
2.18653e-07
-1.07571e-06
2.07429e-07
-1.11255e-06
1.94193e-07
-1.14633e-06
1.78942e-07
-1.1767e-06
1.61699e-07
-1.20335e-06
1.42519e-07
-1.22596e-06
1.21487e-07
-1.24427e-06
9.8721e-08
-1.25801e-06
7.43701e-08
-1.26697e-06
4.86157e-08
-1.27097e-06
2.16697e-08
-1.26986e-06
-6.22664e-09
-1.26355e-06
-3.48054e-08
-1.25199e-06
-6.37735e-08
-1.23517e-06
-9.28169e-08
-1.21314e-06
-1.21604e-07
-1.186e-06
-1.49792e-07
-1.15392e-06
-1.77028e-07
-1.11709e-06
-2.02957e-07
-1.0758e-06
-2.27228e-07
-1.03036e-06
-2.495e-07
-9.81151e-07
-2.69449e-07
-9.2859e-07
-2.86771e-07
-8.73152e-07
-3.01197e-07
-8.15349e-07
-3.1249e-07
-7.55733e-07
-3.20459e-07
-6.94882e-07
-3.2496e-07
-6.334e-07
-3.25905e-07
-5.719e-07
-3.23261e-07
-5.11004e-07
-3.1706e-07
-4.51324e-07
-3.07394e-07
-3.93458e-07
-2.94418e-07
-3.37975e-07
-2.78352e-07
-2.85405e-07
-2.59471e-07
-2.36231e-07
-2.38109e-07
-1.90876e-07
-2.1465e-07
-1.49694e-07
-1.89524e-07
-1.12964e-07
-1.63198e-07
-8.08801e-08
-1.36173e-07
-5.35472e-08
-1.08977e-07
-3.09761e-08
-8.21604e-08
-1.30804e-08
-5.62918e-08
3.25643e-10
-3.19553e-08
9.52825e-09
-9.74978e-09
1.4914e-08
9.71097e-09
1.69702e-08
2.57969e-08
1.62854e-08
3.786e-08
1.35515e-08
4.52323e-08
9.56909e-09
4.72232e-08
5.25646e-09
4.31192e-08
1.66393e-09
3.21812e-08
1.35956e-08
-2.61008e-09
5.7608e-09
-1.02065e-08
2.25253e-08
-2.25223e-08
4.24675e-08
-3.9269e-08
6.40942e-08
-6.01474e-08
8.63342e-08
-8.4857e-08
1.08399e-07
-1.13103e-07
1.29738e-07
-1.44604e-07
1.49998e-07
-1.79094e-07
1.68977e-07
-2.16323e-07
1.86587e-07
-2.56061e-07
2.02815e-07
-2.98094e-07
2.17696e-07
-3.42218e-07
2.31287e-07
-3.88241e-07
2.43653e-07
-4.35973e-07
2.54845e-07
-4.85224e-07
2.64897e-07
-5.358e-07
2.73816e-07
-5.87496e-07
2.81581e-07
-6.40094e-07
2.88143e-07
-6.93361e-07
2.93427e-07
-7.47043e-07
2.97337e-07
-8.00871e-07
2.99758e-07
-8.54553e-07
3.00565e-07
-9.07778e-07
2.99625e-07
-9.6022e-07
2.96807e-07
-1.01153e-06
2.91984e-07
-1.06137e-06
2.85041e-07
-1.10935e-06
2.75878e-07
-1.15511e-06
2.64417e-07
-1.19828e-06
2.50601e-07
-1.2385e-06
2.34404e-07
-1.27538e-06
2.15828e-07
-1.30859e-06
1.94911e-07
-1.3378e-06
1.7172e-07
-1.36267e-06
1.46364e-07
-1.38293e-06
1.18983e-07
-1.39832e-06
8.97572e-08
-1.40861e-06
5.88993e-08
-1.41359e-06
2.66583e-08
-1.41314e-06
-6.68453e-09
-1.40712e-06
-4.08179e-08
-1.3955e-06
-7.5402e-08
-1.37824e-06
-1.10074e-07
-1.35539e-06
-1.4445e-07
-1.32705e-06
-1.78133e-07
-1.29336e-06
-2.10716e-07
-1.25453e-06
-2.41786e-07
-1.21083e-06
-2.70936e-07
-1.16256e-06
-2.97767e-07
-1.11011e-06
-3.21899e-07
-1.05391e-06
-3.42975e-07
-9.94429e-07
-3.60673e-07
-9.3221e-07
-3.7471e-07
-8.67817e-07
-3.84852e-07
-8.01857e-07
-3.9092e-07
-7.34964e-07
-3.92797e-07
-6.67792e-07
-3.90433e-07
-6.01004e-07
-3.83849e-07
-5.3526e-07
-3.73138e-07
-4.7121e-07
-3.58468e-07
-4.09479e-07
-3.40083e-07
-3.50653e-07
-3.18296e-07
-2.95273e-07
-2.93489e-07
-2.43818e-07
-2.66105e-07
-1.96698e-07
-2.36643e-07
-1.54244e-07
-2.05652e-07
-1.16698e-07
-1.73719e-07
-8.42072e-08
-1.41467e-07
-5.68206e-08
-1.09547e-07
-3.44826e-08
-7.86298e-08
-1.70319e-08
-4.9406e-08
-4.20039e-09
-2.25813e-08
4.38718e-09
1.1234e-09
9.21311e-09
2.0971e-08
1.08668e-08
3.62064e-08
1.00458e-08
4.60532e-08
7.55946e-09
4.97096e-08
4.33341e-09
4.63453e-08
1.41782e-09
3.50968e-08
1.50135e-08
-3.17699e-09
8.93781e-09
-1.22669e-08
3.16152e-08
-2.68213e-08
5.70218e-08
-4.6397e-08
8.367e-08
-7.05667e-08
1.10504e-07
-9.89259e-08
1.36758e-07
-1.31098e-07
1.6191e-07
-1.66739e-07
1.85638e-07
-2.05534e-07
2.07772e-07
-2.47199e-07
2.28253e-07
-2.91479e-07
2.47095e-07
-3.38139e-07
2.64355e-07
-3.86962e-07
2.8011e-07
-4.37742e-07
2.94433e-07
-4.90279e-07
3.07382e-07
-5.44371e-07
3.18989e-07
-5.99812e-07
3.29256e-07
-6.56382e-07
3.38151e-07
-7.1385e-07
3.4561e-07
-7.71964e-07
3.51542e-07
-8.30455e-07
3.55828e-07
-8.89033e-07
3.58336e-07
-9.47388e-07
3.5892e-07
-1.00519e-06
3.57427e-07
-1.06209e-06
3.53709e-07
-1.11773e-06
3.47625e-07
-1.17174e-06
3.39047e-07
-1.22373e-06
3.27868e-07
-1.27332e-06
3.14004e-07
-1.32012e-06
2.974e-07
-1.36374e-06
2.78032e-07
-1.40383e-06
2.55911e-07
-1.44e-06
2.31086e-07
-1.47192e-06
2.03643e-07
-1.49927e-06
1.73709e-07
-1.52174e-06
1.41452e-07
-1.53906e-06
1.07077e-07
-1.55099e-06
7.08309e-08
-1.55733e-06
3.29982e-08
-1.55791e-06
-6.10061e-09
-1.55262e-06
-4.61126e-08
-1.54137e-06
-8.66519e-08
-1.52414e-06
-1.27307e-07
-1.50094e-06
-1.67644e-07
-1.47187e-06
-2.0721e-07
-1.43704e-06
-2.45542e-07
-1.39665e-06
-2.82172e-07
-1.35096e-06
-3.16631e-07
-1.30026e-06
-3.48461e-07
-1.24494e-06
-3.77222e-07
-1.18542e-06
-4.02499e-07
-1.12218e-06
-4.23912e-07
-1.05576e-06
-4.41126e-07
-9.86756e-07
-4.53858e-07
-9.15789e-07
-4.61887e-07
-8.43526e-07
-4.6506e-07
-7.70658e-07
-4.63302e-07
-6.97891e-07
-4.56616e-07
-6.25937e-07
-4.45092e-07
-5.55499e-07
-4.28906e-07
-4.87262e-07
-4.0832e-07
-4.21875e-07
-3.83683e-07
-3.59942e-07
-3.55423e-07
-3.02005e-07
-3.24042e-07
-2.48538e-07
-2.90111e-07
-1.9993e-07
-2.5426e-07
-1.56478e-07
-2.1717e-07
-1.18382e-07
-1.79564e-07
-8.57334e-08
-1.42195e-07
-5.8515e-08
-1.05848e-07
-3.65965e-08
-7.13245e-08
-1.97335e-08
-3.94442e-08
-7.56756e-09
-1.10425e-08
3.73323e-10
1.30301e-08
4.67416e-09
3.19055e-08
6.03265e-09
4.46947e-08
5.25992e-09
5.04823e-08
3.28183e-09
4.83234e-08
1.14109e-09
3.72375e-08
1.61545e-08
-3.74839e-09
1.26862e-08
-1.43457e-08
4.22125e-08
-3.11608e-08
7.38369e-08
-5.35935e-08
1.06103e-07
-8.10848e-08
1.37995e-07
-1.13123e-07
1.68796e-07
-1.49247e-07
1.98034e-07
-1.89046e-07
2.25437e-07
-2.32156e-07
2.50882e-07
-2.78257e-07
2.74354e-07
-3.27064e-07
2.95902e-07
-3.78325e-07
3.15616e-07
-4.31806e-07
3.33592e-07
-4.87291e-07
3.49918e-07
-5.44568e-07
3.64659e-07
-6.03426e-07
3.77847e-07
-6.63645e-07
3.89476e-07
-7.24998e-07
3.99503e-07
-7.87237e-07
4.07849e-07
-8.50097e-07
4.14402e-07
-9.13295e-07
4.19027e-07
-9.76525e-07
4.21566e-07
-1.03946e-06
4.21855e-07
-1.10176e-06
4.19722e-07
-1.16305e-06
4.15003e-07
-1.22297e-06
4.07541e-07
-1.28112e-06
3.97199e-07
-1.33711e-06
3.83861e-07
-1.39055e-06
3.67441e-07
-1.44103e-06
3.47883e-07
-1.48817e-06
3.2517e-07
-1.53158e-06
2.9932e-07
-1.57089e-06
2.70395e-07
-1.60574e-06
2.38497e-07
-1.63581e-06
2.03775e-07
-1.66077e-06
1.66417e-07
-1.68035e-06
1.26659e-07
-1.6943e-06
8.4776e-08
-1.70239e-06
4.10877e-08
-1.70444e-06
-4.04717e-09
-1.70031e-06
-5.02392e-08
-1.68991e-06
-9.70545e-08
-1.67318e-06
-1.44036e-07
-1.65013e-06
-1.90699e-07
-1.6208e-06
-2.36538e-07
-1.58531e-06
-2.81033e-07
-1.54382e-06
-3.23656e-07
-1.49658e-06
-3.63879e-07
-1.44386e-06
-4.0118e-07
-1.38602e-06
-4.35055e-07
-1.3235e-06
-4.65025e-07
-1.25676e-06
-4.90649e-07
-1.18636e-06
-5.1153e-07
-1.11288e-06
-5.27331e-07
-1.03699e-06
-5.37778e-07
-9.59375e-07
-5.42678e-07
-8.80758e-07
-5.41918e-07
-8.01895e-07
-5.35479e-07
-7.23549e-07
-5.23438e-07
-6.46482e-07
-5.05972e-07
-5.71443e-07
-4.8336e-07
-4.99149e-07
-4.55977e-07
-4.30275e-07
-4.24297e-07
-3.65436e-07
-3.88881e-07
-3.05174e-07
-3.50372e-07
-2.49948e-07
-3.09486e-07
-2.0012e-07
-2.66999e-07
-1.55945e-07
-2.23738e-07
-1.17571e-07
-1.8057e-07
-8.50227e-08
-1.38396e-07
-5.82089e-08
-9.81383e-08
-3.69146e-08
-6.07386e-08
-2.08033e-08
-2.71538e-08
-9.41816e-09
1.64491e-09
-2.18305e-09
2.46704e-08
1.59538e-09
4.09163e-08
2.72635e-09
4.93513e-08
2.13055e-09
4.89192e-08
8.42174e-10
3.85259e-08
1.69967e-08
-4.32051e-09
1.70067e-08
-1.64273e-08
5.43192e-08
-3.55057e-08
9.29154e-08
-6.07977e-08
1.31395e-07
-9.16112e-08
1.68809e-07
-1.27326e-07
2.04511e-07
-1.67393e-07
2.38102e-07
-2.11335e-07
2.69379e-07
-2.58736e-07
2.98284e-07
-3.09239e-07
3.24856e-07
-3.62531e-07
3.49194e-07
-4.18339e-07
3.71424e-07
-4.76415e-07
3.91668e-07
-5.36532e-07
4.10034e-07
-5.98467e-07
4.26594e-07
-6.62e-07
4.4138e-07
-7.26903e-07
4.54379e-07
-7.92936e-07
4.65537e-07
-8.59843e-07
4.74756e-07
-9.27347e-07
4.81907e-07
-9.95152e-07
4.86831e-07
-1.06294e-06
4.89353e-07
-1.13037e-06
4.89286e-07
-1.19709e-06
4.8644e-07
-1.26272e-06
4.80634e-07
-1.32688e-06
4.71699e-07
-1.38917e-06
4.59487e-07
-1.44918e-06
4.43876e-07
-1.50652e-06
4.24777e-07
-1.56077e-06
4.02136e-07
-1.61154e-06
3.75939e-07
-1.65843e-06
3.46215e-07
-1.70108e-06
3.13037e-07
-1.7391e-06
2.76523e-07
-1.77217e-06
2.36839e-07
-1.79995e-06
1.94197e-07
-1.82214e-06
1.48857e-07
-1.83849e-06
1.01123e-07
-1.84875e-06
5.1345e-08
-1.85272e-06
-7.59959e-11
-1.85023e-06
-5.27306e-08
-1.84116e-06
-1.06125e-07
-1.82543e-06
-1.59765e-07
-1.80301e-06
-2.13116e-07
-1.77393e-06
-2.65619e-07
-1.73826e-06
-3.167e-07
-1.69615e-06
-3.65769e-07
-1.6478e-06
-4.12234e-07
-1.59347e-06
-4.5551e-07
-1.5335e-06
-4.95022e-07
-1.4683e-06
-5.30225e-07
-1.39834e-06
-5.60607e-07
-1.32417e-06
-5.85705e-07
-1.24638e-06
-6.05116e-07
-1.16565e-06
-6.18509e-07
-1.08269e-06
-6.25634e-07
-9.98276e-07
-6.26336e-07
-9.13192e-07
-6.20563e-07
-8.28261e-07
-6.08369e-07
-7.44308e-07
-5.89925e-07
-6.6215e-07
-5.65517e-07
-5.82581e-07
-5.35546e-07
-5.06354e-07
-5.00524e-07
-4.34163e-07
-4.61071e-07
-3.66633e-07
-4.17903e-07
-3.04298e-07
-3.71821e-07
-2.47594e-07
-3.23703e-07
-1.96847e-07
-2.74485e-07
-1.52262e-07
-2.25155e-07
-1.13921e-07
-1.76737e-07
-8.17752e-08
-1.30284e-07
-5.56461e-08
-8.68677e-08
-3.52249e-08
-4.7575e-08
-2.00742e-08
-1.35058e-08
-9.63087e-09
1.42271e-08
-3.20951e-09
3.44949e-08
-6.87016e-12
4.61487e-08
8.98585e-10
4.80137e-08
5.26617e-10
3.88979e-08
1.75233e-08
-4.88948e-09
2.18962e-08
-1.84961e-08
6.79259e-08
-3.98224e-08
1.14242e-07
-6.79519e-08
1.59524e-07
-1.0206e-07
2.02917e-07
-1.41416e-07
2.43867e-07
-1.85386e-07
2.82072e-07
-2.33422e-07
3.17415e-07
-2.85059e-07
3.4992e-07
-3.399e-07
3.79696e-07
-3.97605e-07
4.06899e-07
-4.5788e-07
4.31699e-07
-5.20464e-07
4.54253e-07
-5.85117e-07
4.74687e-07
-6.51609e-07
4.93086e-07
-7.19711e-07
5.09481e-07
-7.89187e-07
5.23855e-07
-8.59789e-07
5.36139e-07
-9.31252e-07
5.46219e-07
-1.00329e-06
5.53946e-07
-1.0756e-06
5.5914e-07
-1.14785e-06
5.61604e-07
-1.2197e-06
5.61132e-07
-1.29077e-06
5.57515e-07
-1.36069e-06
5.50557e-07
-1.42907e-06
5.40076e-07
-1.4955e-06
5.25914e-07
-1.55957e-06
5.07945e-07
-1.62087e-06
4.86076e-07
-1.67899e-06
4.60256e-07
-1.73352e-06
4.30475e-07
-1.78408e-06
3.9677e-07
-1.83026e-06
3.59224e-07
-1.87171e-06
3.1797e-07
-1.90806e-06
2.73191e-07
-1.93898e-06
2.25119e-07
-1.96416e-06
1.74034e-07
-1.98331e-06
1.20268e-07
-1.99616e-06
6.41995e-08
-2.00249e-06
6.2526e-09
-2.00211e-06
-5.31095e-08
-1.99486e-06
-1.13373e-07
-1.98064e-06
-1.73992e-07
-1.95937e-06
-2.34386e-07
-1.93104e-06
-2.93947e-07
-1.8957e-06
-3.52042e-07
-1.85344e-06
-4.08021e-07
-1.80445e-06
-4.6123e-07
-1.74894e-06
-5.11013e-07
-1.68724e-06
-5.56724e-07
-1.61973e-06
-5.97742e-07
-1.54685e-06
-6.33482e-07
-1.46915e-06
-6.63403e-07
-1.38724e-06
-6.8703e-07
-1.30179e-06
-7.03961e-07
-1.21354e-06
-7.13884e-07
-1.12329e-06
-7.16587e-07
-1.03188e-06
-7.11972e-07
-9.40182e-07
-7.00064e-07
-8.49094e-07
-6.81013e-07
-7.59504e-07
-6.55107e-07
-6.72288e-07
-6.22762e-07
-5.88286e-07
-5.84527e-07
-5.08282e-07
-5.41075e-07
-4.3299e-07
-4.93195e-07
-3.63034e-07
-4.41777e-07
-2.98936e-07
-3.87801e-07
-2.411e-07
-3.32321e-07
-1.89803e-07
-2.76452e-07
-1.45187e-07
-2.21352e-07
-1.0726e-07
-1.68212e-07
-7.58835e-08
-1.18244e-07
-5.07836e-08
-7.26748e-08
-3.1547e-08
-3.27424e-08
-1.76266e-08
3.06717e-10
-8.34685e-09
2.52152e-08
-2.90886e-09
4.07107e-08
-4.00831e-10
4.55057e-08
1.97882e-10
3.82992e-08
1.77212e-08
-5.45123e-09
2.73474e-08
-2.05367e-08
8.30114e-08
-4.4077e-08
1.37782e-07
-7.49993e-08
1.90446e-07
-1.12347e-07
2.40264e-07
-1.55281e-07
2.86802e-07
-2.03081e-07
3.29872e-07
-2.55132e-07
3.69467e-07
-3.10918e-07
4.05706e-07
-3.70002e-07
4.38781e-07
-4.32019e-07
4.68916e-07
-4.96654e-07
4.96334e-07
-5.63633e-07
5.21232e-07
-6.32705e-07
5.43759e-07
-7.03631e-07
5.64012e-07
-7.76176e-07
5.82027e-07
-8.50099e-07
5.97778e-07
-9.25144e-07
6.11184e-07
-1.00104e-06
6.22115e-07
-1.07749e-06
6.30401e-07
-1.1542e-06
6.35842e-07
-1.23081e-06
6.38219e-07
-1.30699e-06
6.37306e-07
-1.38235e-06
6.32878e-07
-1.45651e-06
6.24722e-07
-1.52908e-06
6.12646e-07
-1.59965e-06
5.96482e-07
-1.66781e-06
5.76099e-07
-1.73313e-06
5.51403e-07
-1.79522e-06
5.22342e-07
-1.85365e-06
4.88911e-07
-1.90804e-06
4.51154e-07
-1.95798e-06
4.09164e-07
-2.00309e-06
3.63085e-07
-2.04302e-06
3.13114e-07
-2.0774e-06
2.59499e-07
-2.1059e-06
2.02542e-07
-2.12823e-06
1.42595e-07
-2.14409e-06
8.00602e-08
-2.15323e-06
1.53903e-08
-2.15542e-06
-5.09165e-08
-2.15048e-06
-1.18315e-07
-2.13825e-06
-1.86218e-07
-2.11864e-06
-2.54002e-07
-2.09158e-06
-3.21007e-07
-2.05707e-06
-3.86545e-07
-2.01519e-06
-4.49909e-07
-1.96604e-06
-5.10376e-07
-1.90983e-06
-5.6722e-07
-1.84684e-06
-6.1972e-07
-1.77741e-06
-6.67175e-07
-1.70197e-06
-7.08917e-07
-1.62105e-06
-7.44323e-07
-1.53525e-06
-7.72833e-07
-1.44524e-06
-7.93965e-07
-1.3518e-06
-8.0733e-07
-1.25573e-06