/*--------------------------------*- C++ -*----------------------------------*\
  =========                 |
  \\      /  F ield         | OpenFOAM: The Open Source CFD Toolbox
   \\    /   O peration     | Website:  https://openfoam.org
    \\  /    A nd           | Version:  7
     \\/     M anipulation  |
\*---------------------------------------------------------------------------*/
FoamFile
{
    version     2.0;
    format      ascii;
    class       volVectorField;
    location    "2";
    object      U;
}
// * * * * * * * * * * * * * * * * * * * * * * * * * * * * * * * * * * * * * //

dimensions      [0 1 -1 0 0 0 0];

internalField   nonuniform List<vector> 
6400
(
(1.13934e-05 -1.1411e-05 0)
(4.93951e-05 -2.37999e-05 0)
(0.000101253 -2.40647e-05 0)
(0.000141126 -1.75242e-05 0)
(0.000156093 -8.15394e-06 0)
(0.000141786 1.97298e-06 0)
(9.74575e-05 1.17649e-05 0)
(2.42489e-05 2.07215e-05 0)
(-7.5661e-05 2.86846e-05 0)
(-0.000199713 3.56564e-05 0)
(-0.000345319 4.17202e-05 0)
(-0.000510071 4.70001e-05 0)
(-0.00069184 5.16328e-05 0)
(-0.000888808 5.57499e-05 0)
(-0.00109946 5.94666e-05 0)
(-0.00132254 6.28768e-05 0)
(-0.00155702 6.60505e-05 0)
(-0.00180197 6.90322e-05 0)
(-0.0020566 7.18416e-05 0)
(-0.00232006 7.44765e-05 0)
(-0.00259152 7.69153e-05 0)
(-0.00286998 7.91197e-05 0)
(-0.00315436 8.1037e-05 0)
(-0.00344334 8.26031e-05 0)
(-0.00373544 8.37469e-05 0)
(-0.00402891 8.43922e-05 0)
(-0.00432181 8.44602e-05 0)
(-0.00461193 8.38719e-05 0)
(-0.00489684 8.25506e-05 0)
(-0.00517393 8.04248e-05 0)
(-0.00544035 7.74301e-05 0)
(-0.00569314 7.35114e-05 0)
(-0.00592918 6.86253e-05 0)
(-0.00614531 6.27431e-05 0)
(-0.00633832 5.58524e-05 0)
(-0.00650503 4.79594e-05 0)
(-0.00664237 3.90902e-05 0)
(-0.00674741 2.92936e-05 0)
(-0.00681747 1.86423e-05 0)
(-0.00685016 7.23319e-06 0)
(-0.00684346 -4.81426e-06 0)
(-0.00679579 -1.73549e-05 0)
(-0.00670609 -3.02213e-05 0)
(-0.00657386 -4.32261e-05 0)
(-0.00639922 -5.61647e-05 0)
(-0.00618294 -6.8819e-05 0)
(-0.00592649 -8.09622e-05 0)
(-0.00563202 -9.23647e-05 0)
(-0.0053024 -0.000102799 0)
(-0.00494113 -0.000112049 0)
(-0.00455238 -0.00011991 0)
(-0.00414086 -0.000126205 0)
(-0.00371178 -0.000130782 0)
(-0.00327076 -0.000133524 0)
(-0.0028237 -0.000134353 0)
(-0.00237668 -0.000133232 0)
(-0.0019358 -0.000130169 0)
(-0.00150711 -0.000125214 0)
(-0.00109642 -0.000118463 0)
(-0.000709223 -0.000110051 0)
(-0.000350533 -0.000100146 0)
(-2.48194e-05 -8.89529e-05 0)
(0.000264094 -7.6695e-05 0)
(0.000513105 -6.36133e-05 0)
(0.000719881 -4.99628e-05 0)
(0.000882895 -3.60023e-05 0)
(0.00100144 -2.19907e-05 0)
(0.00107567 -8.18458e-06 0)
(0.00110656 5.15947e-06 0)
(0.00109598 1.77791e-05 0)
(0.00104668 2.93962e-05 0)
(0.000962412 3.96927e-05 0)
(0.000848013 4.82784e-05 0)
(0.000709651 5.46361e-05 0)
(0.000555163 5.80399e-05 0)
(0.000394557 5.7461e-05 0)
(0.000240549 5.14971e-05 0)
(0.000108957 3.83306e-05 0)
(1.93185e-05 1.66867e-05 0)
(-6.15393e-06 -6.1216e-06 0)
(2.41254e-05 -4.96277e-05 0)
(8.92667e-05 -8.8685e-05 0)
(0.00016138 -8.00186e-05 0)
(0.000197098 -4.29858e-05 0)
(0.000172367 8.20836e-06 0)
(7.66784e-05 6.47289e-05 0)
(-9.34674e-05 0.000121296 0)
(-0.000337013 0.00017501 0)
(-0.000650137 0.000224458 0)
(-0.00102766 0.000269153 0)
(-0.00146387 0.000309155 0)
(-0.00195315 0.000344835 0)
(-0.00249023 0.000376712 0)
(-0.00307041 0.00040534 0)
(-0.00368956 0.000431238 0)
(-0.00434406 0.000454839 0)
(-0.00503071 0.000476469 0)
(-0.00574662 0.000496331 0)
(-0.00648899 0.000514501 0)
(-0.00725505 0.000530937 0)
(-0.00804186 0.000545492 0)
(-0.00884618 0.000557925 0)
(-0.00966442 0.000567919 0)
(-0.0104925 0.000575095 0)
(-0.0113258 0.000579036 0)
(-0.0121592 0.0005793 0)
(-0.0129869 0.000575436 0)
(-0.0138027 0.000567001 0)
(-0.0145995 0.000553578 0)
(-0.0153701 0.000534787 0)
(-0.0161067 0.0005103 0)
(-0.0168011 0.000479857 0)
(-0.017445 0.00044328 0)
(-0.01803 0.000400482 0)
(-0.0185476 0.000351482 0)
(-0.0189895 0.000296417 0)
(-0.0193479 0.000235545 0)
(-0.0196154 0.000169258 0)
(-0.0197852 9.80855e-05 0)
(-0.0198516 2.26926e-05 0)
(-0.0198097 -5.61242e-05 0)
(-0.019656 -0.00013743 0)
(-0.0193883 -0.000220178 0)
(-0.0190057 -0.000303214 0)
(-0.0185093 -0.000385301 0)
(-0.0179015 -0.000465137 0)
(-0.0171867 -0.000541387 0)
(-0.0163708 -0.00061271 0)
(-0.0154618 -0.000677795 0)
(-0.0144691 -0.000735391 0)
(-0.0134036 -0.000784346 0)
(-0.0122778 -0.000823641 0)
(-0.0111053 -0.000852422 0)
(-0.0099007 -0.000870027 0)
(-0.00867929 -0.000876012 0)
(-0.00745681 -0.000870167 0)
(-0.00624911 -0.00085253 0)
(-0.00507185 -0.000823386 0)
(-0.00394015 -0.000783265 0)
(-0.00286835 -0.000732932 0)
(-0.00186962 -0.000673359 0)
(-0.000955789 -0.000605707 0)
(-0.000137063 -0.000531291 0)
(0.000578162 -0.000451547 0)
(0.00118346 -0.000368004 0)
(0.00167449 -0.000282253 0)
(0.0020491 -0.000195924 0)
(0.00230738 -0.000110673 0)
(0.00245173 -2.81933e-05 0)
(0.00248696 4.97675e-05 0)
(0.00242036 0.000121356 0)
(0.00226188 0.000184527 0)
(0.0020244 0.000236929 0)
(0.00172405 0.00027574 0)
(0.00138072 0.000297471 0)
(0.00101856 0.000297829 0)
(0.000665986 0.000271834 0)
(0.000354921 0.000214407 0)
(0.000123463 0.000123703 0)
(1.64912e-05 1.92043e-05 0)
(2.49368e-05 -0.00010251 0)
(8.14008e-05 -0.000161241 0)
(0.00012145 -0.000121206 0)
(9.70298e-05 -2.08319e-05 0)
(-1.93576e-05 0.000112507 0)
(-0.000240828 0.000260007 0)
(-0.000572262 0.000409478 0)
(-0.00101282 0.000553576 0)
(-0.0015579 0.000688258 0)
(-0.00220081 0.000811734 0)
(-0.00293388 0.000923657 0)
(-0.00374928 0.00102456 0)
(-0.00463948 0.00111543 0)
(-0.00559751 0.00119742 0)
(-0.00661704 0.00127168 0)
(-0.00769235 0.00133918 0)
(-0.00881817 0.00140062 0)
(-0.00998958 0.00145645 0)
(-0.0112017 0.00150678 0)
(-0.0124497 0.00155147 0)
(-0.0137284 0.00159006 0)
(-0.015032 0.0016219 0)
(-0.0163544 0.00164612 0)
(-0.0176886 0.00166172 0)
(-0.0190269 0.00166758 0)
(-0.0203607 0.00166256 0)
(-0.0216807 0.00164547 0)
(-0.0229766 0.00161519 0)
(-0.0242376 0.00157067 0)
(-0.0254519 0.00151097 0)
(-0.0266075 0.00143531 0)
(-0.0276918 0.00134312 0)
(-0.0286919 0.00123403 0)
(-0.029595 0.00110796 0)
(-0.0303885 0.000965108 0)
(-0.03106 0.000805988 0)
(-0.031598 0.000631449 0)
(-0.0319916 0.000442688 0)
(-0.0322313 0.000241259 0)
(-0.0323088 2.90702e-05 0)
(-0.0322175 -0.000191631 0)
(-0.0319527 -0.000418266 0)
(-0.0315118 -0.000647972 0)
(-0.0308942 -0.00087763 0)
(-0.030102 -0.00110392 0)
(-0.0291395 -0.00132339 0)
(-0.0280138 -0.00153251 0)
(-0.0267343 -0.00172775 0)
(-0.0253132 -0.00190569 0)
(-0.0237648 -0.00206309 0)
(-0.0221057 -0.00219694 0)
(-0.0203546 -0.0023046 0)
(-0.0185318 -0.00238388 0)
(-0.0166592 -0.00243305 0)
(-0.0147595 -0.00245097 0)
(-0.0128561 -0.00243707 0)
(-0.0109727 -0.00239144 0)
(-0.00913257 -0.00231481 0)
(-0.0073584 -0.00220852 0)
(-0.00567167 -0.00207455 0)
(-0.00409229 -0.00191541 0)
(-0.00263821 -0.00173413 0)
(-0.00132505 -0.00153417 0)
(-0.000165826 -0.00131932 0)
(0.000829362 -0.00109368 0)
(0.0016535 -0.000861549 0)
(0.00230285 -0.000627376 0)
(0.00277707 -0.000395741 0)
(0.00307936 -0.000171353 0)
(0.00321658 4.09029e-05 0)
(0.00319936 0.000235869 0)
(0.00304236 0.000407974 0)
(0.00276448 0.000551026 0)
(0.00238915 0.000657977 0)
(0.00194474 0.000720724 0)
(0.00146477 0.00073014 0)
(0.000987291 0.000676708 0)
(0.000553532 0.000552258 0)
(0.000214477 0.000355104 0)
(3.8031e-05 0.000108453 0)
(1.85327e-05 -0.000143644 0)
(4.25392e-05 -0.000195952 0)
(1.36647e-05 -9.55595e-05 0)
(-0.000111935 9.89576e-05 0)
(-0.000360339 0.000346613 0)
(-0.000744588 0.000618213 0)
(-0.00126929 0.000893974 0)
(-0.00193304 0.00116139 0)
(-0.00273039 0.0014132 0)
(-0.00365346 0.00164588 0)
(-0.00469315 0.00185836 0)
(-0.00584004 0.00205115 0)
(-0.00708487 0.00222565 0)
(-0.0084189 0.00238361 0)
(-0.00983398 0.00252678 0)
(-0.0113225 0.00265669 0)
(-0.0128774 0.00277444 0)
(-0.0144917 0.00288065 0)
(-0.0161585 0.00297543 0)
(-0.0178708 0.00305837 0)
(-0.019621 0.00312858 0)
(-0.0214011 0.00318479 0)
(-0.023202 0.00322539 0)
(-0.0250141 0.00324849 0)
(-0.0268265 0.00325209 0)
(-0.0286273 0.00323407 0)
(-0.0304038 0.00319234 0)
(-0.0321422 0.00312489 0)
(-0.0338277 0.00302988 0)
(-0.0354449 0.00290572 0)
(-0.0369779 0.00275113 0)
(-0.0384103 0.00256521 0)
(-0.0397254 0.0023475 0)
(-0.0409069 0.00209804 0)
(-0.0419385 0.00181741 0)
(-0.042805 0.00150679 0)
(-0.0434917 0.00116796 0)
(-0.0439855 0.00080334 0)
(-0.0442746 0.000415981 0)
(-0.0443492 9.57016e-06 0)
(-0.0442016 -0.000411589 0)
(-0.0438266 -0.00084266 0)
(-0.0432214 -0.00127829 0)
(-0.0423862 -0.0017127 0)
(-0.0413243 -0.00213977 0)
(-0.0400419 -0.00255319 0)
(-0.0385482 -0.00294652 0)
(-0.036856 -0.00331338 0)
(-0.0349806 -0.00364757 0)
(-0.0329407 -0.00394321 0)
(-0.0307575 -0.00419493 0)
(-0.0284545 -0.00439798 0)
(-0.0260575 -0.00454836 0)
(-0.0235941 -0.00464299 0)
(-0.021093 -0.00467977 0)
(-0.0185838 -0.00465767 0)
(-0.0160962 -0.0045768 0)
(-0.0136599 -0.00443841 0)
(-0.0113037 -0.0042449 0)
(-0.00905492 -0.00399976 0)
(-0.00693914 -0.00370749 0)
(-0.00497954 -0.00337357 0)
(-0.00319645 -0.00300424 0)
(-0.00160698 -0.00260647 0)
(-0.000224685 -0.00218778 0)
(0.000940806 -0.00175612 0)
(0.00188397 -0.0013198 0)
(0.00260364 -0.00088741 0)
(0.00310313 -0.000467835 0)
(0.00339046 -7.0273e-05 0)
(0.00347846 0.000295625 0)
(0.003385 0.000619583 0)
(0.00313313 0.000890453 0)
(0.0027513 0.00109599 0)
(0.00227354 0.0012227 0)
(0.00173961 0.0012561 0)
(0.00119402 0.0011817 0)
(0.000684794 0.000987278 0)
(0.000274141 0.00066797 0)
(5.13983e-05 0.000240093 0)
(8.47417e-06 -0.000158222 0)
(-1.52606e-05 -0.000163646 0)
(-0.000139829 3.24299e-05 0)
(-0.000397894 0.00035334 0)
(-0.000810391 0.000745441 0)
(-0.00138814 0.00116982 0)
(-0.00213394 0.00159945 0)
(-0.00304485 0.00201677 0)
(-0.00411412 0.00241127 0)
(-0.00533261 0.00277753 0)
(-0.00668998 0.00311367 0)
(-0.00817547 0.00342005 0)
(-0.00977846 0.00369837 0)
(-0.0114888 0.00395088 0)
(-0.0132967 0.00417991 0)
(-0.015193 0.00438742 0)
(-0.0171689 0.00457482 0)
(-0.0192156 0.00474282 0)
(-0.0213243 0.00489136 0)
(-0.0234857 0.00501964 0)
(-0.02569 0.00512618 0)
(-0.0279268 0.00520891 0)
(-0.0301843 0.00526528 0)
(-0.03245 0.00529238 0)
(-0.0347102 0.0052871 0)
(-0.0369498 0.00524623 0)
(-0.0391528 0.00516662 0)
(-0.0413021 0.00504531 0)
(-0.0433797 0.00487959 0)
(-0.0453666 0.00466722 0)
(-0.0472437 0.00440643 0)
(-0.0489912 0.00409609 0)
(-0.0505894 0.00373578 0)
(-0.0520189 0.00332585 0)
(-0.0532609 0.00286752 0)
(-0.0542974 0.00236289 0)
(-0.0551119 0.00181503 0)
(-0.0556891 0.00122795 0)
(-0.0560161 0.000606624 0)
(-0.0560819 -4.30353e-05 0)
(-0.0558782 -0.00071422 0)
(-0.0553996 -0.00139932 0)
(-0.0546436 -0.00209 0)
(-0.0536112 -0.00277731 0)
(-0.0523068 -0.00345185 0)
(-0.0507381 -0.00410391 0)
(-0.0489166 -0.00472368 0)
(-0.0468574 -0.00530145 0)
(-0.0445788 -0.00582778 0)
(-0.0421027 -0.00629378 0)
(-0.0394539 -0.00669129 0)
(-0.03666 -0.0070131 0)
(-0.0337511 -0.00725315 0)
(-0.0307592 -0.00740672 0)
(-0.0277178 -0.00747058 0)
(-0.0246614 -0.00744309 0)
(-0.021625 -0.00732432 0)
(-0.0186433 -0.00711607 0)
(-0.01575 -0.00682185 0)
(-0.0129777 -0.00644688 0)
(-0.0103567 -0.00599792 0)
(-0.00791474 -0.00548321 0)
(-0.0056765 -0.00491228 0)
(-0.00366286 -0.00429577 0)
(-0.00189064 -0.00364525 0)
(-0.000372191 -0.00297305 0)
(0.000884961 -0.00229211 0)
(0.00187836 -0.00161587 0)
(0.00261084 -0.00095825 0)
(0.00309074 -0.000333659 0)
(0.00333204 0.000242888 0)
(0.00335451 0.000755581 0)
(0.00318385 0.00118759 0)
(0.00285176 0.00152088 0)
(0.00239605 0.00173613 0)
(0.00186073 0.00181307 0)
(0.00129505 0.00173154 0)
(0.000752726 0.00147361 0)
(0.000305254 0.00102751 0)
(5.8056e-05 0.00039585 0)
(-3.48446e-06 -0.000138843 0)
(-8.47506e-05 -4.63871e-05 0)
(-0.000324044 0.000286902 0)
(-0.000738173 0.000769585 0)
(-0.00133999 0.0013371 0)
(-0.00213631 0.00194202 0)
(-0.00312674 0.00255096 0)
(-0.00430582 0.00314185 0)
(-0.00566489 0.00370123 0)
(-0.00719328 0.00422199 0)
(-0.00887932 0.00470144 0)
(-0.010711 0.00513984 0)
(-0.0126766 0.00553912 0)
(-0.0147645 0.00590197 0)
(-0.0169638 0.00623117 0)
(-0.0192639 0.00652904 0)
(-0.0216544 0.00679715 0)
(-0.0241247 0.00703614 0)
(-0.0266643 0.00724564 0)
(-0.0292618 0.00742429 0)
(-0.0319052 0.00756983 0)
(-0.0345815 0.00767923 0)
(-0.0372767 0.00774884 0)
(-0.0399754 0.00777458 0)
(-0.0426611 0.00775209 0)
(-0.0453159 0.00767698 0)
(-0.0479207 0.00754497 0)
(-0.0504554 0.00735208 0)
(-0.0528989 0.00709477 0)
(-0.0552295 0.00677016 0)
(-0.0574249 0.00637611 0)
(-0.0594627 0.00591138 0)
(-0.0613207 0.00537574 0)
(-0.0629769 0.00477009 0)
(-0.0644104 0.00409651 0)
(-0.0656014 0.00335835 0)
(-0.0665316 0.00256026 0)
(-0.0671846 0.00170818 0)
(-0.0675463 0.000809359 0)
(-0.0676051 -0.000127686 0)
(-0.0673524 -0.00109327 0)
(-0.0667828 -0.00207663 0)
(-0.0658941 -0.00306604 0)
(-0.0646879 -0.004049 0)
(-0.0631696 -0.00501245 0)
(-0.0613483 -0.00594293 0)
(-0.0592372 -0.00682689 0)
(-0.056853 -0.00765092 0)
(-0.0542166 -0.00840205 0)
(-0.0513522 -0.00906802 0)
(-0.0482875 -0.00963759 0)
(-0.0450532 -0.0101008 0)
(-0.0416828 -0.0104493 0)
(-0.0382118 -0.0106764 0)
(-0.0346777 -0.0107776 0)
(-0.0311191 -0.0107506 0)
(-0.0275749 -0.0105952 0)
(-0.0240843 -0.0103136 0)
(-0.0206855 -0.00991067 0)
(-0.0174153 -0.00939324 0)
(-0.0143085 -0.00877054 0)
(-0.0113971 -0.00805382 0)
(-0.00870945 -0.00725618 0)
(-0.00627036 -0.00639234 0)
(-0.00409989 -0.00547841 0)
(-0.00221323 -0.00453164 0)
(-0.000620216 -0.00357023 0)
(0.000674967 -0.00261315 0)
(0.00167408 -0.00168005 0)
(0.00238505 -0.00079128 0)
(0.00282209 3.20732e-05 0)
(0.00300585 0.000768013 0)
(0.00296348 0.00139345 0)
(0.00272866 0.00188403 0)
(0.00234169 0.00221414 0)
(0.00184958 0.00235714 0)
(0.00130524 0.00228632 0)
(0.000767079 0.00197638 0)
(0.000313561 0.00140609 0)
(5.99522e-05 0.000561611 0)
(-1.64215e-05 -8.11137e-05 0)
(-0.000161589 0.000168201 0)
(-0.000529083 0.000685695 0)
(-0.00111683 0.00136867 0)
(-0.0019275 0.00214382 0)
(-0.00296242 0.00295682 0)
(-0.0042168 0.00376913 0)
(-0.00568177 0.00455506 0)
(-0.00734612 0.00529883 0)
(-0.00919725 0.00599202 0)
(-0.011222 0.00663142 0)
(-0.0134071 0.00721726 0)
(-0.0157396 0.00775176 0)
(-0.0182068 0.00823803 0)
(-0.0207967 0.00867919 0)
(-0.0234973 0.00907778 0)
(-0.0262969 0.00943542 0)
(-0.0291833 0.00975249 0)
(-0.0321442 0.0100281 0)
(-0.0351664 0.0102603 0)
(-0.0382357 0.0104457 0)
(-0.041337 0.0105802 0)
(-0.0444537 0.010659 0)
(-0.0475679 0.0106766 0)
(-0.0506606 0.0106274 0)
(-0.0537111 0.0105056 0)
(-0.0566977 0.010306 0)
(-0.0595976 0.0100235 0)
(-0.062387 0.00965368 0)
(-0.0650416 0.00919324 0)
(-0.0675366 0.00863973 0)
(-0.0698475 0.00799197 0)
(-0.0719498 0.00725014 0)
(-0.0738196 0.00641586 0)
(-0.0754344 0.00549235 0)
(-0.0767728 0.00448444 0)
(-0.0778153 0.00339864 0)
(-0.0785445 0.00224311 0)
(-0.0789456 0.00102766 0)
(-0.0790065 -0.000236301 0)
(-0.0787184 -0.00153592 0)
(-0.0780758 -0.00285699 0)
(-0.0770768 -0.00418414 0)
(-0.0757235 -0.00550105 0)
(-0.0740218 -0.0067907 0)
(-0.0719819 -0.00803563 0)
(-0.0696179 -0.0092183 0)
(-0.0669481 -0.0103213 0)
(-0.0639948 -0.0113279 0)
(-0.0607842 -0.0122222 0)
(-0.057346 -0.0129897 0)
(-0.0537132 -0.0136173 0)
(-0.049922 -0.014094 0)
(-0.0460108 -0.0144113 0)
(-0.0420202 -0.0145629 0)
(-0.0379922 -0.0145455 0)
(-0.0339693 -0.0143587 0)
(-0.0299944 -0.0140051 0)
(-0.0261098 -0.0134904 0)
(-0.0223563 -0.0128235 0)
(-0.0187727 -0.0120159 0)
(-0.015395 -0.011082 0)
(-0.0122556 -0.0100386 0)
(-0.00938293 -0.00890502 0)
(-0.00680047 -0.00770208 0)
(-0.00452652 -0.00645244 0)
(-0.00257357 -0.00518005 0)
(-0.000947948 -0.00390996 0)
(0.000350468 -0.00266817 0)
(0.00132852 -0.00148153 0)
(0.00199991 -0.000377812 0)
(0.00238533 0.000614246 0)
(0.0025125 0.00146477 0)
(0.00241616 0.0021426 0)
(0.00213818 0.00261528 0)
(0.00172766 0.00284922 0)
(0.00124031 0.00281025 0)
(0.000738254 0.00246458 0)
(0.000304452 0.00178016 0)
(5.8579e-05 0.000726647 0)
(-2.99005e-05 1.78158e-05 0)
(-0.000243206 0.00048872 0)
(-0.000748416 0.00124189 0)
(-0.00152269 0.00216653 0)
(-0.00255704 0.0031829 0)
(-0.00384615 0.00423166 0)
(-0.00537985 0.00527055 0)
(-0.00714504 0.0062714 0)
(-0.00912737 0.00721695 0)
(-0.0113119 0.00809809 0)
(-0.0136838 0.00891148 0)
(-0.0162284 0.00965759 0)
(-0.0189314 0.010339 0)
(-0.0217794 0.0109593 0)
(-0.0247589 0.0115219 0)
(-0.0278571 0.0120294 0)
(-0.0310608 0.0124833 0)
(-0.0343565 0.0128836 0)
(-0.0377303 0.0132288 0)
(-0.0411671 0.0135159 0)
(-0.0446509 0.0137406 0)
(-0.0481643 0.0138974 0)
(-0.0516887 0.01398 0)
(-0.055204 0.0139817 0)
(-0.0586884 0.0138955 0)
(-0.062119 0.0137144 0)
(-0.0654718 0.0134317 0)
(-0.0687214 0.0130416 0)
(-0.0718419 0.0125391 0)
(-0.0748068 0.0119202 0)
(-0.0775893 0.0111825 0)
(-0.0801627 0.0103249 0)
(-0.0825011 0.00934834 0)
(-0.084579 0.00825525 0)
(-0.0863723 0.00705022 0)
(-0.0878588 0.00573979 0)
(-0.0890178 0.00433255 0)
(-0.0898311 0.00283909 0)
(-0.0902834 0.00127201 0)
(-0.0903622 -0.000354231 0)
(-0.0900582 -0.00202339 0)
(-0.0893658 -0.00371763 0)
(-0.0882831 -0.00541775 0)
(-0.0868124 -0.00710344 0)
(-0.0849598 -0.00875355 0)
(-0.0827358 -0.0103464 0)
(-0.0801552 -0.0118603 0)
(-0.0772371 -0.0132737 0)
(-0.0740047 -0.0145658 0)
(-0.0704853 -0.0157167 0)
(-0.0667101 -0.0167085 0)
(-0.062714 -0.0175248 0)
(-0.0585349 -0.0181517 0)
(-0.0542136 -0.0185783 0)
(-0.0497934 -0.0187965 0)
(-0.045319 -0.0188017 0)
(-0.0408363 -0.0185931 0)
(-0.0363918 -0.0181733 0)
(-0.0320311 -0.0175489 0)
(-0.0277992 -0.0167305 0)
(-0.0237387 -0.015732 0)
(-0.0198898 -0.014571 0)
(-0.0162888 -0.0132683 0)
(-0.0129681 -0.0118475 0)
(-0.00995477 -0.0103348 0)
(-0.00727056 -0.00875845 0)
(-0.00493099 -0.00714867 0)
(-0.00294503 -0.00553703 0)
(-0.0013147 -0.00395634 0)
(-3.4845e-05 -0.00244054 0)
(0.000907113 -0.00102456 0)
(0.00153123 0.000255591 0)
(0.00186508 0.00136274 0)
(0.0019438 0.00225844 0)
(0.00181012 0.00290287 0)
(0.00151453 0.00325489 0)
(0.00111476 0.00327221 0)
(0.000675617 0.00291189 0)
(0.00028241 0.00213072 0)
(5.50221e-05 0.000883102 0)
(-4.37236e-05 0.000159787 0)
(-0.000328033 0.000921119 0)
(-0.000977618 0.00196487 0)
(-0.00194774 0.00317495 0)
(-0.0032167 0.00446748 0)
(-0.00477172 0.00578001 0)
(-0.00659642 0.00706823 0)
(-0.00867282 0.00830278 0)
(-0.0109829 0.00946595 0)
(-0.0135092 0.0105487 0)
(-0.0162346 0.011548 0)
(-0.0191431 0.012465 0)
(-0.0222192 0.0133029 0)
(-0.0254484 0.0140657 0)
(-0.0288163 0.0147571 0)
(-0.0323088 0.0153798 0)
(-0.0359118 0.015935 0)
(-0.0396104 0.0164221 0)
(-0.0433892 0.0168388 0)
(-0.0472315 0.017181 0)
(-0.0511196 0.0174431 0)
(-0.0550342 0.0176183 0)
(-0.0589547 0.0176988 0)
(-0.0628587 0.0176765 0)
(-0.0667225 0.0175427 0)
(-0.0705211 0.0172893 0)
(-0.0742282 0.0169087 0)
(-0.0778166 0.0163939 0)
(-0.0812583 0.0157394 0)
(-0.084525 0.014941 0)
(-0.0875884 0.0139961 0)
(-0.0904201 0.0129042 0)
(-0.0929927 0.0116669 0)
(-0.0952798 0.0102877 0)
(-0.097256 0.00877275 0)
(-0.098898 0.00713046 0)
(-0.100184 0.00537163 0)
(-0.101097 0.00350944 0)
(-0.101618 0.00155936 0)
(-0.101736 -0.00046092 0)
(-0.101441 -0.0025317 0)
(-0.100727 -0.00463142 0)
(-0.0995906 -0.00673694 0)
(-0.0980349 -0.00882386 0)
(-0.0960656 -0.0108668 0)
(-0.0936931 -0.0128397 0)
(-0.090932 -0.0147166 0)
(-0.0878016 -0.0164715 0)
(-0.0843254 -0.0180795 0)
(-0.0805314 -0.0195166 0)
(-0.0764516 -0.0207609 0)
(-0.0721219 -0.0217925 0)
(-0.0675817 -0.0225944 0)
(-0.0628738 -0.0231528 0)
(-0.0580434 -0.0234576 0)
(-0.053138 -0.0235027 0)
(-0.0482064 -0.0232861 0)
(-0.0432984 -0.0228105 0)
(-0.0384633 -0.0220832 0)
(-0.0337499 -0.021116 0)
(-0.0292049 -0.0199253 0)
(-0.0248726 -0.0185319 0)
(-0.0207938 -0.0169604 0)
(-0.0170049 -0.015239 0)
(-0.013537 -0.0133995 0)
(-0.0104157 -0.0114761 0)
(-0.00766007 -0.00950542 0)
(-0.00528215 -0.00752606 0)
(-0.00328665 -0.00557815 0)
(-0.00167061 -0.00370314 0)
(-0.000423173 -0.00194369 0)
(0.000474514 -0.000343548 0)
(0.00104936 0.00105231 0)
(0.0013363 0.00219764 0)
(0.00137838 0.00304477 0)
(0.00122689 0.00354448 0)
(0.000940872 0.00364595 0)
(0.000586888 0.00329679 0)
(0.000250896 0.00244297 0)
(5.00341e-05 0.00102534 0)
(-5.77758e-05 0.000346032 0)
(-0.000415022 0.00146949 0)
(-0.00121353 0.00286125 0)
(-0.00238593 0.00440238 0)
(-0.0038972 0.00600707 0)
(-0.0057264 0.00761178 0)
(-0.00785039 0.00917182 0)
(-0.0102458 0.0106581 0)
(-0.0128906 0.0120535 0)
(-0.0157641 0.0133499 0)
(-0.0188473 0.0145455 0)
(-0.0221223 0.0156423 0)
(-0.0255725 0.0166445 0)
(-0.0291822 0.0175565 0)
(-0.0329362 0.0183824 0)
(-0.0368194 0.019125 0)
(-0.0408165 0.0197849 0)
(-0.0449116 0.0203611 0)
(-0.0490879 0.02085 0)
(-0.0533274 0.0212465 0)
(-0.0576106 0.0215435 0)
(-0.0619167 0.0217326 0)
(-0.0662231 0.0218046 0)
(-0.0705058 0.0217497 0)
(-0.0747393 0.0215581 0)
(-0.0788965 0.0212203 0)
(-0.0829496 0.0207275 0)
(-0.0868695 0.0200721 0)
(-0.0906268 0.0192479 0)
(-0.0941917 0.0182506 0)
(-0.0975344 0.017078 0)
(-0.100625 0.0157298 0)
(-0.103436 0.0142085 0)
(-0.105939 0.012519 0)
(-0.108108 0.010669 0)
(-0.109919 0.00866891 0)
(-0.11135 0.00653177 0)
(-0.112381 0.00427343 0)
(-0.112995 0.0019123 0)
(-0.113179 -0.000530692 0)
(-0.112922 -0.00303236 0)
(-0.112217 -0.00556741 0)
(-0.111061 -0.00810873 0)
(-0.109456 -0.0106278 0)
(-0.107406 -0.0130948 0)
(-0.104921 -0.0154795 0)
(-0.102016 -0.0177513 0)
(-0.0987083 -0.0198798 0)
(-0.0950224 -0.0218355 0)
(-0.0909857 -0.0235903 0)
(-0.0866305 -0.0251178 0)
(-0.0819933 -0.0263945 0)
(-0.0771146 -0.0273997 0)
(-0.0720384 -0.0281166 0)
(-0.066812 -0.0285323 0)
(-0.0614852 -0.0286387 0)
(-0.0561095 -0.0284327 0)
(-0.0507379 -0.0279165 0)
(-0.0454236 -0.0270975 0)
(-0.0402192 -0.0259889 0)
(-0.0351759 -0.0246092 0)
(-0.0303423 -0.022982 0)
(-0.0257639 -0.021136 0)
(-0.0214815 -0.0191042 0)
(-0.0175311 -0.0169237 0)
(-0.0139423 -0.0146352 0)
(-0.0107383 -0.012282 0)
(-0.00793476 -0.00991023 0)
(-0.00553964 -0.00756765 0)
(-0.00355273 -0.00530378 0)
(-0.00196539 -0.00316947 0)
(-0.000760469 -0.00121677 0)
(8.77652e-05 0.000501071 0)
(0.000613608 0.00192948 0)
(0.000859946 0.00301246 0)
(0.000878341 0.00369232 0)
(0.000728527 0.00390938 0)
(0.000478113 0.00360187 0)
(0.000212482 0.0027055 0)
(4.41252e-05 0.00114936 0)
(-7.19797e-05 0.000577384 0)
(-0.000503392 0.00213655 0)
(-0.00145369 0.00393543 0)
(-0.00283249 0.00585448 0)
(-0.00459094 0.0078081 0)
(-0.00669955 0.00973364 0)
(-0.00912801 0.0115878 0)
(-0.0118471 0.0133431 0)
(-0.0148305 0.0149844 0)
(-0.0180544 0.0165055 0)
(-0.0214971 0.0179063 0)
(-0.0251392 0.0191904 0)
(-0.0289627 0.020363 0)
(-0.0329509 0.0214295 0)
(-0.0370876 0.0223944 0)
(-0.0413569 0.0232602 0)
(-0.0457425 0.0240273 0)
(-0.0502275 0.0246936 0)
(-0.0547939 0.0252547 0)
(-0.0594224 0.0257038 0)
(-0.0640922 0.0260326 0)
(-0.068781 0.026231 0)
(-0.0734648 0.0262881 0)
(-0.0781178 0.0261927 0)
(-0.0827131 0.0259335 0)
(-0.0872222 0.0254998 0)
(-0.0916157 0.0248819 0)
(-0.0958632 0.0240715 0)
(-0.0999341 0.0230619 0)
(-0.103797 0.0218488 0)
(-0.107422 0.0204302 0)
(-0.110778 0.0188065 0)
(-0.113835 0.0169811 0)
(-0.116566 0.0149603 0)
(-0.118943 0.0127535 0)
(-0.120941 0.0103729 0)
(-0.122537 0.00783401 0)
(-0.123712 0.00515528 0)
(-0.124446 0.00235803 0)
(-0.124726 -0.000533648 0)
(-0.124539 -0.00349315 0)
(-0.123879 -0.00649143 0)
(-0.122739 -0.00949747 0)
(-0.121121 -0.0124786 0)
(-0.119028 -0.0154008 0)
(-0.116469 -0.0182292 0)
(-0.113456 -0.0209287 0)
(-0.110007 -0.0234642 0)
(-0.106145 -0.0258017 0)
(-0.101896 -0.0279081 0)
(-0.0972931 -0.029753 0)
(-0.0923724 -0.0313081 0)
(-0.0871751 -0.0325491 0)
(-0.0817462 -0.0334553 0)
(-0.0761344 -0.0340108 0)
(-0.0703918 -0.0342051 0)
(-0.0645727 -0.0340332 0)
(-0.0587332 -0.0334963 0)
(-0.0529303 -0.0326018 0)
(-0.0472208 -0.0313637 0)
(-0.0416605 -0.0298022 0)
(-0.0363031 -0.0279438 0)
(-0.0311988 -0.025821 0)
(-0.0263938 -0.0234717 0)
(-0.0219289 -0.0209385 0)
(-0.0178389 -0.0182687 0)
(-0.0141515 -0.0155127 0)
(-0.0108865 -0.0127244 0)
(-0.00805588 -0.00995991 0)
(-0.00566257 -0.00727714 0)
(-0.00370076 -0.00473572 0)
(-0.00215545 -0.00239651 0)
(-0.00100255 -0.000321635 0)
(-0.00020883 0.00142555 0)
(0.000268031 0.00278023 0)
(0.000479429 0.00367586 0)
(0.000485331 0.00404379 0)
(0.000353852 0.00381299 0)
(0.000169036 0.00290951 0)
(3.76397e-05 0.00125228 0)
(-8.62692e-05 0.000854349 0)
(-0.000592488 0.00292389 0)
(-0.00169606 0.00518998 0)
(-0.00328331 0.00753455 0)
(-0.00529134 0.00987428 0)
(-0.00768185 0.0121493 0)
(-0.0104171 0.0143195 0)
(-0.0134617 0.0163607 0)
(-0.0167849 0.0182608 0)
(-0.0203594 0.0200166 0)
(-0.0241611 0.0216304 0)
(-0.0281687 0.0231081 0)
(-0.0323628 0.0244563 0)
(-0.0367258 0.0256814 0)
(-0.0412405 0.0267885 0)
(-0.0458902 0.0277799 0)
(-0.0506578 0.0286556 0)
(-0.0555255 0.0294125 0)
(-0.0604743 0.030045 0)
(-0.0654838 0.0305449 0)
(-0.0705321 0.0309022 0)
(-0.0755956 0.0311052 0)
(-0.0806489 0.0311415 0)
(-0.0856653 0.0309982 0)
(-0.0906163 0.0306626 0)
(-0.0954723 0.030123 0)
(-0.100203 0.0293687 0)
(-0.104777 0.0283907 0)
(-0.109162 0.0271822 0)
(-0.113326 0.0257388 0)
(-0.117239 0.0240587 0)
(-0.120868 0.0221433 0)
(-0.124184 0.0199968 0)
(-0.127158 0.017627 0)
(-0.129761 0.0150447 0)
(-0.131968 0.0122643 0)
(-0.133755 0.00930336 0)
(-0.135101 0.00618296 0)
(-0.135986 0.0029272 0)
(-0.136395 -0.000436729 0)
(-0.136314 -0.00387899 0)
(-0.135735 -0.00736684 0)
(-0.13465 -0.0108655 0)
(-0.133058 -0.0143381 0)
(-0.130961 -0.0177465 0)
(-0.128365 -0.0210512 0)
(-0.125282 -0.0242125 0)
(-0.121728 -0.0271904 0)
(-0.117723 -0.0299459 0)
(-0.113293 -0.0324414 0)
(-0.108469 -0.034641 0)
(-0.103289 -0.0365122 0)
(-0.0977919 -0.0380257 0)
(-0.0920244 -0.039157 0)
(-0.0860365 -0.0398864 0)
(-0.0798821 -0.0402003 0)
(-0.0736181 -0.0400912 0)
(-0.0673038 -0.0395587 0)
(-0.0610003 -0.0386098 0)
(-0.0547687 -0.0372586 0)
(-0.0486699 -0.0355268 0)
(-0.0427626 -0.0334437 0)
(-0.037103 -0.0310451 0)
(-0.0317429 -0.0283738 0)
(-0.0267287 -0.0254783 0)
(-0.0221009 -0.0224124 0)
(-0.0178925 -0.0192341 0)
(-0.0141282 -0.0160055 0)
(-0.0108244 -0.0127913 0)
(-0.00798805 -0.00965862 0)
(-0.00561657 -0.00667634 0)
(-0.00369768 -0.00391476 0)
(-0.00220934 -0.00144539 0)
(-0.00111979 0.000659016 0)
(-0.000387659 0.0023244 0)
(3.7936e-05 0.00347502 0)
(0.000216869 0.00403306 0)
(0.000217405 0.00391845 0)
(0.000121863 0.00304811 0)
(3.08051e-05 0.00133205 0)
(-0.000100572 0.00117713 0)
(-0.000681692 0.00383213 0)
(-0.00193873 0.00662587 0)
(-0.00373467 0.00944375 0)
(-0.00599244 0.0122068 0)
(-0.00866476 0.0148599 0)
(-0.0117063 0.0173677 0)
(-0.0150756 0.019711 0)
(-0.0187371 0.0218821 0)
(-0.0226599 0.0238817 0)
(-0.0268175 0.0257156 0)
(-0.0311868 0.0273922 0)
(-0.0357469 0.0289202 0)
(-0.0404791 0.0303072 0)
(-0.0453656 0.0315588 0)
(-0.0503889 0.0326775 0)
(-0.055531 0.0336626 0)
(-0.0607735 0.0345101 0)
(-0.0660965 0.035213 0)
(-0.0714787 0.0357617 0)
(-0.0768972 0.0361444 0)
(-0.0823276 0.0363478 0)
(-0.0877433 0.0363578 0)
(-0.0931167 0.0361601 0)
(-0.0984183 0.0357407 0)
(-0.103618 0.0350866 0)
(-0.108684 0.0341864 0)
(-0.113584 0.0330305 0)
(-0.118286 0.031612 0)
(-0.122758 0.0299264 0)
(-0.126966 0.0279725 0)
(-0.130881 0.0257522 0)
(-0.13447 0.0232708 0)
(-0.137703 0.0205373 0)
(-0.140554 0.0175642 0)
(-0.142993 0.0143677 0)
(-0.144998 0.0109675 0)
(-0.146545 0.00738692 0)
(-0.147613 0.00365273 0)
(-0.148186 -0.000205022 0)
(-0.148248 -0.00415296 0)
(-0.147788 -0.00815532 0)
(-0.146797 -0.0121735 0)
(-0.145271 -0.0161668 0)
(-0.14321 -0.0200926 0)
(-0.140618 -0.0239071 0)
(-0.137503 -0.0275656 0)
(-0.133879 -0.0310233 0)
(-0.129766 -0.034236 0)
(-0.125187 -0.0371607 0)
(-0.120171 -0.0397565 0)
(-0.114755 -0.0419853 0)
(-0.108978 -0.0438131 0)
(-0.102887 -0.0452103 0)
(-0.0965329 -0.0461529 0)
(-0.0899707 -0.0466233 0)
(-0.0832603 -0.0466113 0)
(-0.0764642 -0.0461139 0)
(-0.0696473 -0.0451368 0)
(-0.0628755 -0.0436939 0)
(-0.0562151 -0.0418081 0)
(-0.0497306 -0.0395104 0)
(-0.0434842 -0.0368406 0)
(-0.0375343 -0.0338457 0)
(-0.0319338 -0.0305801 0)
(-0.0267293 -0.0271046 0)
(-0.0219601 -0.0234851 0)
(-0.0176566 -0.0197921 0)
(-0.0138403 -0.0160997 0)
(-0.0105229 -0.0124847 0)
(-0.00770556 -0.00902581 0)
(-0.00537936 -0.00580351 0)
(-0.00352476 -0.00289934 0)
(-0.00211186 -0.000395988 0)
(-0.00110059 0.0016227 0)
(-0.000440851 0.00307142 0)
(-7.30568e-05 0.00386303 0)
(7.10034e-05 0.00390831 0)
(7.1828e-05 0.00311575 0)
(2.3766e-05 0.00138715 0)
(-0.000114806 0.00154563 0)
(-0.000770384 0.00486097 0)
(-0.00217988 0.00824255 0)
(-0.00418301 0.0115813 0)
(-0.00668853 0.0148045 0)
(-0.00964021 0.0178637 0)
(-0.012985 0.0207304 0)
(-0.0166755 0.0233914 0)
(-0.020671 0.0258451 0)
(-0.0249375 0.028097 0)
(-0.0294456 0.0301573 0)
(-0.0341704 0.0320374 0)
(-0.0390898 0.0337486 0)
(-0.044184 0.0353002 0)
(-0.0494344 0.0366982 0)
(-0.0548228 0.0379453 0)
(-0.0603308 0.0390402 0)
(-0.0659391 0.0399779 0)
(-0.0716273 0.0407502 0)
(-0.0773733 0.0413457 0)
(-0.0831536 0.0417511 0)
(-0.0889428 0.0419513 0)
(-0.0947139 0.0419306 0)
(-0.100438 0.0416732 0)
(-0.106086 0.0411638 0)
(-0.111626 0.0403885 0)
(-0.117026 0.0393349 0)
(-0.122254 0.0379932 0)
(-0.127277 0.0363561 0)
(-0.132062 0.0344194 0)
(-0.136576 0.032182 0)
(-0.140788 0.0296468 0)
(-0.144665 0.0268198 0)
(-0.148178 0.0237113 0)
(-0.151297 0.0203352 0)
(-0.153994 0.0167094 0)
(-0.156244 0.0128555 0)
(-0.158022 0.00879892 0)
(-0.159307 0.00456892 0)
(-0.160078 0.000198182 0)
(-0.16032 -0.00427699 0)
(-0.160017 -0.00881761 0)
(-0.15916 -0.0133816 0)
(-0.157741 -0.0179243 0)
(-0.155756 -0.0223989 0)
(-0.153208 -0.0267573 0)
(-0.150101 -0.0309498 0)
(-0.146447 -0.0349266 0)
(-0.142262 -0.038638 0)
(-0.137567 -0.0420354 0)
(-0.13239 -0.0450723 0)
(-0.126764 -0.0477048 0)
(-0.12073 -0.049893 0)
(-0.114333 -0.051602 0)
(-0.107624 -0.0528025 0)
(-0.100661 -0.0534725 0)
(-0.0935047 -0.0535974 0)
(-0.0862213 -0.0531715 0)
(-0.0788796 -0.0521982 0)
(-0.0715505 -0.0506905 0)
(-0.0643058 -0.0486715 0)
(-0.0572165 -0.0461742 0)
(-0.0503515 -0.0432411 0)
(-0.0437762 -0.0399239 0)
(-0.0375509 -0.0362829 0)
(-0.0317294 -0.0323857 0)
(-0.0263579 -0.0283065 0)
(-0.0214736 -0.0241249 0)
(-0.017104 -0.0199247 0)
(-0.0132658 -0.0157931 0)
(-0.00996533 -0.0118195 0)
(-0.0071972 -0.00809529 0)