/*--------------------------------*- C++ -*----------------------------------*\
  =========                 |
  \\      /  F ield         | OpenFOAM: The Open Source CFD Toolbox
   \\    /   O peration     | Website:  https://openfoam.org
    \\  /    A nd           | Version:  7
     \\/     M anipulation  |
\*---------------------------------------------------------------------------*/
FoamFile
{
    version     2.0;
    format      ascii;
    class       surfaceScalarField;
    location    "0.125";
    object      phi;
}
// * * * * * * * * * * * * * * * * * * * * * * * * * * * * * * * * * * * * * //

dimensions      [0 3 -1 0 0 0 0];

internalField   nonuniform List<scalar> 
12640
(
1.284e-10
-1.28459e-10
1.14962e-10
1.3443e-11
-1.26776e-10
2.41756e-10
-5.95082e-10
4.68312e-10
-1.25277e-09
6.5768e-10
-2.05556e-09
8.02776e-10
-2.96226e-09
9.06709e-10
-3.93862e-09
9.76361e-10
-4.9579e-09
1.01928e-09
-6.00026e-09
1.04235e-09
-7.05155e-09
1.05128e-09
-8.10203e-09
1.05047e-09
-9.14519e-09
1.04316e-09
-1.01767e-08
1.03157e-09
-1.11939e-08
1.01711e-09
-1.21945e-08
1.00068e-09
-1.31773e-08
9.82728e-10
-1.41408e-08
9.63503e-10
-1.50838e-08
9.43076e-10
-1.60053e-08
9.21446e-10
-1.69038e-08
8.98573e-10
-1.77783e-08
8.74407e-10
-1.86272e-08
8.489e-10
-1.94492e-08
8.22006e-10
-2.02429e-08
7.93688e-10
-2.10068e-08
7.63912e-10
-2.17394e-08
7.32653e-10
-2.24393e-08
6.9989e-10
-2.31049e-08
6.6561e-10
-2.37347e-08
6.29803e-10
-2.43272e-08
5.92464e-10
-2.48808e-08
5.53593e-10
-2.5394e-08
5.13193e-10
-2.58652e-08
4.71273e-10
-2.62931e-08
4.27847e-10
-2.6676e-08
3.82934e-10
-2.70126e-08
3.36558e-10
-2.73013e-08
2.88751e-10
-2.75409e-08
2.39551e-10
-2.77299e-08
1.89006e-10
-2.78671e-08
1.3717e-10
-2.79512e-08
8.41061e-11
-2.79811e-08
2.98876e-11
-2.79557e-08
-2.54035e-11
-2.7874e-08
-8.16757e-11
-2.77352e-08
-1.38826e-10
-2.75384e-08
-1.96742e-10
-2.72831e-08
-2.55298e-10
-2.69688e-08
-3.14361e-10
-2.6595e-08
-3.73785e-10
-2.61616e-08
-4.33415e-10
-2.56685e-08
-4.93087e-10
-2.51159e-08
-5.52628e-10
-2.4504e-08
-6.11858e-10
-2.38334e-08
-6.70588e-10
-2.31048e-08
-7.28626e-10
-2.2319e-08
-7.85777e-10
-2.14772e-08
-8.41841e-10
-2.05806e-08
-8.96618e-10
-1.96307e-08
-9.49906e-10
-1.86292e-08
-1.0015e-09
-1.7578e-08
-1.05116e-09
-1.64794e-08
-1.09864e-09
-1.53358e-08
-1.14361e-09
-1.41502e-08
-1.18561e-09
-1.29262e-08
-1.22401e-09
-1.16683e-08
-1.25785e-09
-1.03826e-08
-1.28575e-09
-9.07685e-09
-1.30571e-09
-7.76193e-09
-1.31493e-09
-6.45234e-09
-1.30959e-09
-5.1676e-09
-1.28474e-09
-3.93342e-09
-1.23418e-09
-2.78285e-09
-1.15056e-09
-1.75706e-09
-1.02578e-09
-9.04918e-10
-8.52138e-10
-2.79613e-10
-6.25302e-10
7.11659e-11
-3.5078e-10
1.33669e-10
-6.2507e-11
1.33664e-10
-1.02025e-11
-1.18252e-10
-3.93659e-10
3.96904e-10
-1.27993e-09
1.12804e-09
-2.65777e-09
1.84618e-09
-4.46479e-09
2.46471e-09
-6.61743e-09
2.9554e-09
-9.03036e-09
3.31962e-09
-1.16271e-08
3.57304e-09
-1.4344e-08
3.73621e-09
-1.71313e-08
3.82966e-09
-1.99514e-08
3.87146e-09
-2.27772e-08
3.87627e-09
-2.55893e-08
3.85527e-09
-2.83742e-08
3.81645e-09
-3.11224e-08
3.76524e-09
-3.38268e-08
3.70512e-09
-3.64822e-08
3.63815e-09
-3.90842e-08
3.56549e-09
-4.16288e-08
3.48768e-09
-4.41123e-08
3.40493e-09
-4.6531e-08
3.31725e-09
-4.88811e-08
3.22458e-09
-5.11591e-08
3.12682e-09
-5.33609e-08
3.02386e-09
-5.54828e-08
2.91562e-09
-5.7521e-08
2.80204e-09
-5.94713e-08
2.68304e-09
-6.133e-08
2.55859e-09
-6.30931e-08
2.42866e-09
-6.47565e-08
2.29326e-09
-6.63165e-08
2.15239e-09
-6.7769e-08
2.00608e-09
-6.91101e-08
1.85436e-09
-7.03362e-08
1.6973e-09
-7.14433e-08
1.53496e-09
-7.24278e-08
1.36744e-09
-7.32861e-08
1.19484e-09
-7.40146e-08
1.01732e-09
-7.46101e-08
8.35016e-10
-7.50692e-08
6.4813e-10
-7.5389e-08
4.56873e-10
-7.55663e-08
2.61488e-10
-7.55987e-08
6.22512e-11
-7.54836e-08
-1.40531e-10
-7.52188e-08
-3.46519e-10
-7.48023e-08
-5.55337e-10
-7.42324e-08
-7.66572e-10
-7.3508e-08
-9.7978e-10
-7.26279e-08
-1.19448e-09
-7.15915e-08
-1.41015e-09
-7.03987e-08
-1.62625e-09
-6.90496e-08
-1.84219e-09
-6.75448e-08
-2.05738e-09
-6.58855e-08
-2.27116e-09
-6.40732e-08
-2.48289e-09
-6.211e-08
-2.69188e-09
-5.99983e-08
-2.89745e-09
-5.77412e-08
-3.09889e-09
-5.53424e-08
-3.29548e-09
-5.28058e-08
-3.48648e-09
-5.01362e-08
-3.6711e-09
-4.73389e-08
-3.84847e-09
-4.442e-08
-4.01754e-09
-4.13866e-08
-4.17699e-09
-3.82472e-08
-4.325e-09
-3.50122e-08
-4.45903e-09
-3.16946e-08
-4.57543e-09
-2.83114e-08
-4.66898e-09
-2.48848e-08
-4.73239e-09
-2.14439e-08
-4.75574e-09
-1.80275e-08
-4.72598e-09
-1.46856e-08
-4.62668e-09
-1.14816e-08
-4.4382e-09
-8.49356e-09
-4.13856e-09
-5.81362e-09
-3.70571e-09
-3.54352e-09
-3.12224e-09
-1.78411e-09
-2.38471e-09
-6.15147e-10
-1.51974e-09
-6.20638e-11
-6.15593e-10
7.16002e-11
-2.42402e-10
1.24167e-10
-1.13201e-09
1.28651e-09
-2.72185e-09
2.71788e-09
-4.97922e-09
4.10355e-09
-7.82101e-09
5.30651e-09
-1.11407e-08
6.27511e-09
-1.48281e-08
7.00697e-09
-1.87813e-08
7.52629e-09
-2.29135e-08
7.86835e-09
-2.71541e-08
8.07027e-09
-3.14486e-08
8.16594e-09
-3.5756e-08
8.18369e-09
-4.00463e-08
8.14561e-09
-4.42979e-08
8.068e-09
-4.84948e-08
7.96218e-09
-5.26253e-08
7.83565e-09
-5.66803e-08
7.69309e-09
-6.0652e-08
7.53722e-09
-6.45338e-08
7.36951e-09
-6.83196e-08
7.19065e-09
-7.20032e-08
7.0009e-09
-7.55789e-08
6.80027e-09
-7.90408e-08
6.58869e-09
-8.23829e-08
6.36603e-09
-8.55995e-08
6.13221e-09
-8.86846e-08
5.88711e-09
-9.16322e-08
5.6307e-09
-9.44366e-08
5.36293e-09
-9.70917e-08
5.0838e-09
-9.95918e-08
4.79335e-09
-1.01931e-07
4.49164e-09
-1.04104e-07
4.17875e-09
-1.06104e-07
3.85481e-09
-1.07927e-07
3.51997e-09
-1.09566e-07
3.17441e-09
-1.11017e-07
2.81837e-09
-1.12275e-07
2.45211e-09
-1.13333e-07
2.07595e-09
-1.14188e-07
1.69024e-09
-1.14836e-07
1.29541e-09
-1.15271e-07
8.91926e-10
-1.1549e-07
4.8031e-10
-1.15488e-07
6.11549e-11
-1.15264e-07
-3.64891e-10
-1.14814e-07
-7.97107e-10
-1.14134e-07
-1.23471e-09
-1.13224e-07
-1.67683e-09
-1.12081e-07
-2.12256e-09
-1.10705e-07
-2.5709e-09
-1.09094e-07
-3.02079e-09
-1.07249e-07
-3.4711e-09
-1.05171e-07
-3.92064e-09
-1.0286e-07
-4.36818e-09
-1.00319e-07
-4.81241e-09
-9.75496e-08
-5.25199e-09
-9.4556e-08
-5.68553e-09
-9.13418e-08
-6.11162e-09
-8.79119e-08
-6.52882e-09
-8.42718e-08
-6.93562e-09
-8.04278e-08
-7.33047e-09
-7.63872e-08
-7.71169e-09
-7.21583e-08
-8.07737e-09
-6.77506e-08
-8.42524e-09
-6.31752e-08
-8.75235e-09
-5.84455e-08
-9.05477e-09
-5.35775e-08
-9.32697e-09
-4.85918e-08
-9.56118e-09
-4.35143e-08
-9.74651e-09
-3.83787e-08
-9.868e-09
-3.32287e-08
-9.90568e-09
-2.81209e-08
-9.83384e-09
-2.31267e-08
-9.62083e-09
-1.83351e-08
-9.22982e-09
-1.38525e-08
-8.62119e-09
-9.80082e-09
-7.75736e-09
-6.31127e-09
-6.61179e-09
-3.51147e-09
-5.18452e-09
-1.50547e-09
-3.52574e-09
-3.4528e-10
-1.77578e-09
-2.73678e-10
-4.74558e-10
5.98741e-10
-1.86964e-09
2.68162e-09
-4.14445e-09
4.99268e-09
-7.22034e-09
7.17943e-09
-1.09868e-08
9.07299e-09
-1.53177e-08
1.0606e-08
-2.00859e-08
1.17752e-08
-2.51741e-08
1.26144e-08
-3.04805e-08
1.31748e-08
-3.59216e-08
1.35113e-08
-4.14311e-08
1.36754e-08
-4.69584e-08
1.3711e-08
-5.24654e-08
1.36527e-08
-5.79241e-08
1.35267e-08
-6.33133e-08
1.33514e-08
-6.86171e-08
1.31394e-08
-7.38227e-08
1.28987e-08
-7.89198e-08
1.26342e-08
-8.3899e-08
1.23487e-08
-8.87519e-08
1.20436e-08
-9.34705e-08
1.17195e-08
-9.80471e-08
1.13768e-08
-1.02474e-07
1.10155e-08
-1.06743e-07
1.06355e-08
-1.10848e-07
1.02368e-08
-1.1478e-07
9.81918e-09
-1.18532e-07
9.38279e-09
-1.22097e-07
8.9276e-09
-1.25467e-07
8.45367e-09
-1.28634e-07
7.9611e-09
-1.31593e-07
7.45007e-09
-1.34335e-07
6.92076e-09
-1.36853e-07
6.37342e-09
-1.39142e-07
5.80837e-09
-1.41193e-07
5.22596e-09
-1.43002e-07
4.62661e-09
-1.4456e-07
4.0108e-09
-1.45863e-07
3.37911e-09
-1.46905e-07
2.73216e-09
-1.47681e-07
2.07068e-09
-1.48184e-07
1.39546e-09
-1.48411e-07
7.07419e-10
-1.48358e-07
7.53936e-12
-1.4802e-07
-7.03089e-10
-1.47393e-07
-1.42326e-09
-1.46476e-07
-2.15166e-09
-1.45266e-07
-2.88688e-09
-1.43762e-07
-3.6274e-09
-1.41961e-07
-4.37158e-09
-1.39864e-07
-5.11769e-09
-1.37471e-07
-5.86388e-09
-1.34784e-07
-6.6082e-09
-1.31803e-07
-7.34864e-09
-1.28533e-07
-8.08307e-09
-1.24975e-07
-8.8093e-09
-1.21136e-07
-9.52508e-09
-1.17019e-07
-1.02281e-08
-1.12632e-07
-1.09159e-08
-1.07982e-07
-1.15862e-08
-1.03076e-07
-1.22362e-08
-9.79244e-08
-1.28631e-08
-9.2538e-08
-1.34638e-08
-8.6929e-08
-1.40342e-08
-8.11118e-08
-1.45695e-08
-7.51038e-08
-1.50628e-08
-6.89259e-08
-1.55049e-08
-6.26043e-08
-1.58828e-08
-5.6172e-08
-1.61788e-08
-4.96713e-08
-1.63687e-08
-4.31563e-08
-1.64207e-08
-3.66957e-08
-1.62944e-08
-3.03754e-08
-1.59411e-08
-2.43002e-08
-1.5305e-08
-1.8594e-08
-1.43274e-08
-1.3397e-08
-1.29543e-08
-8.85955e-09
-1.11493e-08
-5.13126e-09
-8.9128e-09
-2.34673e-09
-6.31027e-09
-6.10752e-10
-3.51175e-09
-8.84428e-10
-6.73846e-10
1.27258e-09
-2.52208e-09
4.52986e-09
-5.41398e-09
7.8846e-09
-9.21743e-09
1.09829e-08
-1.37899e-08
1.36454e-08
-1.8985e-08
1.58011e-08
-2.46617e-08
1.74519e-08
-3.06915e-08
1.86443e-08
-3.69634e-08
1.94467e-08
-4.33854e-08
1.99333e-08
-4.98839e-08
2.01739e-08
-5.64018e-08
2.02288e-08
-6.28955e-08
2.01464e-08
-6.9332e-08
1.99632e-08
-7.56864e-08
1.97058e-08
-8.19393e-08
1.93923e-08
-8.80753e-08
1.90347e-08
-9.40812e-08
1.86402e-08
-9.99459e-08
1.82134e-08
-1.05659e-07
1.77566e-08
-1.11211e-07
1.72712e-08
-1.16591e-07
1.67577e-08
-1.21792e-07
1.62164e-08
-1.26804e-07
1.56473e-08
-1.31618e-07
1.50506e-08
-1.36225e-07
1.44263e-08
-1.40617e-07
1.37744e-08
-1.44784e-07
1.3095e-08
-1.48719e-07
1.23883e-08
-1.52412e-07
1.16546e-08
-1.55856e-07
1.08942e-08
-1.59043e-07
1.01074e-08
-1.61964e-07
9.29462e-09
-1.64612e-07
8.45639e-09
-1.66979e-07
7.59329e-09
-1.69059e-07
6.70599e-09
-1.70843e-07
5.79525e-09
-1.72326e-07
4.86194e-09
-1.73501e-07
3.90703e-09
-1.74362e-07
2.9316e-09
-1.74903e-07
1.93687e-09
-1.7512e-07
9.24173e-10
-1.75008e-07
-1.05021e-10
-1.74562e-07
-1.1491e-09
-1.73778e-07
-2.20629e-09
-1.72655e-07
-3.27469e-09
-1.7119e-07
-4.35223e-09
-1.69381e-07
-5.4367e-09
-1.67227e-07
-6.52573e-09
-1.64728e-07
-7.6168e-09
-1.61884e-07
-8.70724e-09
-1.58698e-07
-9.79425e-09
-1.55172e-07
-1.08749e-08
-1.51309e-07
-1.19462e-08
-1.47113e-07
-1.30048e-08
-1.42591e-07
-1.40477e-08
-1.37747e-07
-1.50714e-08
-1.32591e-07
-1.60724e-08
-1.2713e-07
-1.70472e-08
-1.21374e-07
-1.79919e-08
-1.15335e-07
-1.89023e-08
-1.09025e-07
-1.97737e-08
-1.02459e-07
-2.06002e-08
-9.56545e-08
-2.13742e-08
-8.86313e-08
-2.2086e-08
-8.14142e-08
-2.27219e-08
-7.40338e-08
-2.32632e-08
-6.65283e-08
-2.36844e-08
-5.89459e-08
-2.39511e-08
-5.13479e-08
-2.40188e-08
-4.38108e-08
-2.38315e-08
-3.64297e-08
-2.33222e-08
-2.93194e-08
-2.24153e-08
-2.26146e-08
-2.10322e-08
-1.64682e-08
-1.91007e-08
-1.1046e-08
-1.65714e-08
-6.51978e-09
-1.34391e-08
-3.05898e-09
-9.77107e-09
-8.27274e-10
-5.74346e-09
-1.7117e-09
-8.32869e-10
2.10544e-09
-3.06075e-09
6.75773e-09
-6.47836e-09
1.13022e-08
-1.09027e-08
1.54072e-08
-1.61585e-08
1.89012e-08
-2.20787e-08
2.17213e-08
-2.8509e-08
2.38822e-08
-3.5312e-08
2.54473e-08
-4.23698e-08
2.65045e-08
-4.9585e-08
2.71485e-08
-5.68794e-08
2.74683e-08
-6.41918e-08
2.75412e-08
-7.14748e-08
2.74294e-08
-7.86925e-08
2.71809e-08
-8.58171e-08
2.68303e-08
-9.28266e-08
2.64018e-08
-9.97034e-08
2.59115e-08
-1.06433e-07
2.53695e-08
-1.13001e-07
2.4782e-08
-1.19397e-07
2.41527e-08
-1.2561e-07
2.34835e-08
-1.31628e-07
2.27756e-08
-1.37441e-07
2.20295e-08
-1.43039e-07
2.12455e-08
-1.48412e-07
2.04238e-08
-1.5355e-07
1.95646e-08
-1.58444e-07
1.86682e-08
-1.63084e-07
1.77347e-08
-1.6746e-07
1.67645e-08
-1.71564e-07
1.57581e-08
-1.75385e-07
1.47158e-08
-1.78916e-07
1.36384e-08
-1.82148e-07
1.25263e-08
-1.85072e-07
1.13804e-08
-1.8768e-07
1.02015e-08
-1.89965e-07
8.99057e-09
-1.91918e-07
7.74871e-09
-1.93533e-07
6.47711e-09
-1.94803e-07
5.17714e-09
-1.95722e-07
3.8503e-09
-1.96283e-07
2.49826e-09
-1.96482e-07
1.12284e-09
-1.96313e-07
-2.73944e-10
-1.95772e-07
-1.6899e-09
-1.94856e-07
-3.12265e-09
-1.93561e-07
-4.56961e-09
-1.91885e-07
-6.028e-09
-1.89827e-07
-7.49484e-09
-1.87386e-07
-8.96697e-09
-1.84562e-07
-1.0441e-08
-1.81356e-07
-1.19134e-08
-1.7777e-07
-1.33803e-08
-1.73806e-07
-1.4838e-08
-1.6947e-07
-1.62823e-08
-1.64766e-07
-1.77089e-08
-1.597e-07
-1.91136e-08
-1.5428e-07
-2.04918e-08
-1.48513e-07
-2.18389e-08
-1.42411e-07
-2.31499e-08
-1.35983e-07
-2.44199e-08
-1.29242e-07
-2.56429e-08
-1.22203e-07
-2.68124e-08
-1.14883e-07
-2.79205e-08
-1.073e-07
-2.8957e-08
-9.94778e-08
-2.99085e-08
-9.14431e-08
-3.07567e-08
-8.32296e-08
-3.14767e-08
-7.48791e-08
-3.20348e-08
-6.6444e-08
-3.23861e-08
-5.799e-08
-3.24728e-08
-4.95989e-08
-3.22226e-08
-4.13712e-08
-3.15499e-08
-3.34284e-08
-3.03582e-08
-2.59131e-08
-2.85474e-08
-1.89883e-08
-2.60256e-08
-1.28343e-08
-2.27254e-08
-7.64501e-09
-1.86283e-08
-3.62516e-09
-1.37909e-08
-9.9246e-10
-8.37615e-09
-2.70416e-09
-9.54117e-10
3.05956e-09
-3.48542e-09
9.28902e-09
-7.33255e-09
1.51493e-08
-1.22692e-08
2.03439e-08
-1.80898e-08
2.47218e-08
-2.46072e-08
2.82388e-08
-3.16543e-08
3.09293e-08
-3.90854e-08
3.28784e-08
-4.67772e-08
3.41963e-08
-5.46283e-08
3.49996e-08
-6.25574e-08
3.53975e-08
-7.0501e-08
3.54847e-08
-7.84094e-08
3.53379e-08
-8.62446e-08
3.50161e-08
-9.3977e-08
3.45627e-08
-1.01583e-07
3.40078e-08
-1.09043e-07
3.33718e-08
-1.16342e-07
3.26679e-08
-1.23464e-07
3.19041e-08
-1.30396e-07
3.10853e-08
-1.37127e-07
3.02145e-08
-1.43645e-07
2.92932e-08
-1.49938e-07
2.83224e-08
-1.55995e-07
2.73026e-08
-1.61805e-07
2.62342e-08
-1.67359e-07
2.51178e-08
-1.72644e-07
2.39536e-08
-1.77652e-07
2.27422e-08
-1.82371e-07
2.1484e-08
-1.86793e-07
2.01797e-08
-1.90907e-07
1.883e-08
-1.94704e-07
1.74356e-08
-1.98175e-07
1.59975e-08
-2.01312e-07
1.45167e-08
-2.04105e-07
1.29944e-08
-2.06546e-07
1.14318e-08
-2.08628e-07
9.83044e-09
-2.10342e-07
8.19182e-09
-2.11683e-07
6.51776e-09
-2.12643e-07
4.81022e-09
-2.13216e-07
3.07135e-09
-2.13397e-07
1.30351e-09
-2.1318e-07
-4.90708e-10
-2.12561e-07
-2.30849e-09
-2.11537e-07
-4.1468e-09
-2.10104e-07
-6.00233e-09
-2.08261e-07
-7.87156e-09
-2.06005e-07
-9.75068e-09
-2.03336e-07
-1.16357e-08
-2.00255e-07
-1.35222e-08
-1.96762e-07
-1.54059e-08
-1.92861e-07
-1.72818e-08
-1.88554e-07
-1.91451e-08
-1.83846e-07
-2.09906e-08
-1.78742e-07
-2.28129e-08
-1.73249e-07
-2.46065e-08
-1.67375e-07
-2.63656e-08
-1.61129e-07
-2.80844e-08
-1.54523e-07
-2.97565e-08
-1.47567e-07
-3.13754e-08
-1.40276e-07
-3.29337e-08
-1.32666e-07
-3.44229e-08
-1.24754e-07
-3.58327e-08
-1.16561e-07
-3.71502e-08
-1.08111e-07
-3.83581e-08
-9.94344e-08
-3.94334e-08
-9.05662e-08
-4.03448e-08
-8.15509e-08
-4.10502e-08
-7.24432e-08
-4.14938e-08
-6.33119e-08
-4.16041e-08
-5.4242e-08
-4.12925e-08
-4.5338e-08
-4.04538e-08
-3.67262e-08
-3.897e-08
-2.85556e-08
-3.6718e-08
-2.09985e-08
-3.35826e-08
-1.42494e-08
-2.94746e-08
-8.52355e-09
-2.43542e-08
-4.05743e-09
-1.8257e-08
-1.11346e-09
-1.13201e-08
-3.81762e-09
-1.04382e-09
4.10337e-09
-3.80984e-09
1.2055e-08
-7.99737e-09
1.93369e-08
-1.33459e-08
2.56924e-08
-1.96237e-08
3.09996e-08
-2.66255e-08
3.52406e-08
-3.41719e-08
3.84757e-08
-4.21092e-08
4.08157e-08
-5.03094e-08
4.23965e-08
-5.86678e-08
4.3358e-08
-6.71011e-08
4.38308e-08
-7.55439e-08
4.39275e-08
-8.39456e-08
4.37395e-08
-9.22667e-08
4.33372e-08
-1.00476e-07
4.27724e-08
-1.0855e-07
4.20816e-08
-1.16468e-07
4.12894e-08
-1.24212e-07
4.04119e-08
-1.31767e-07
3.94593e-08
-1.39119e-07
3.84378e-08
-1.46256e-07
3.7351e-08
-1.53164e-07
3.62013e-08
-1.59832e-07
3.499e-08
-1.66247e-07
3.37181e-08
-1.72399e-07
3.23861e-08
-1.78276e-07
3.09948e-08
-1.83867e-07
2.95448e-08
-1.89162e-07
2.80368e-08
-1.94149e-07
2.64714e-08
-1.98819e-07
2.48497e-08
-2.03162e-07
2.31724e-08
-2.07167e-07
2.14408e-08
-2.10825e-07
1.96559e-08
-2.14128e-07
1.78191e-08
-2.17065e-07
1.59319e-08
-2.19629e-07
1.39959e-08
-2.21812e-07
1.20129e-08
-2.23605e-07
9.98501e-09
-2.25001e-07
7.91436e-09
-2.25994e-07
5.8034e-09
-2.26578e-07
3.65481e-09
-2.26746e-07
1.47152e-09
-2.26493e-07
-7.43302e-10
-2.25816e-07
-2.98619e-09
-2.24709e-07
-5.25339e-09
-2.23171e-07
-7.54089e-09
-2.21198e-07
-9.84434e-09
-2.18789e-07
-1.21591e-08
-2.15945e-07
-1.44803e-08
-2.12664e-07
-1.68026e-08
-2.0895e-07
-1.91205e-08
-2.04803e-07
-2.14283e-08
-2.00229e-07
-2.37198e-08
-1.9523e-07
-2.59888e-08
-1.89815e-07
-2.82287e-08
-1.83988e-07
-3.04327e-08
-1.7776e-07
-3.25938e-08
-1.7114e-07
-3.47048e-08
-1.64138e-07
-3.67578e-08
-1.56769e-07
-3.87448e-08
-1.49046e-07
-4.06566e-08
-1.40986e-07
-4.24827e-08
-1.32609e-07
-4.42105e-08
-1.23935e-07
-4.58241e-08
-1.1499e-07
-4.73024e-08
-1.05806e-07
-4.86174e-08
-9.64199e-08
-4.97312e-08
-8.68769e-08
-5.05932e-08
-7.72339e-08
-5.11367e-08
-6.75616e-08
-5.12764e-08
-5.79476e-08
-5.09066e-08
-4.84992e-08
-4.99021e-08
-3.93469e-08
-4.81223e-08
-3.06458e-08
-4.54192e-08
-2.25771e-08
-4.16513e-08
-1.53486e-08
-3.6703e-08
-9.19524e-09
-3.05076e-08
-4.38021e-09
-2.30721e-08
-1.20016e-09
-1.45002e-08
-5.01777e-09
-1.10894e-09
5.21231e-09
-4.05289e-09
1.4999e-08
-8.50502e-09
2.3789e-08
-1.41791e-08
3.13665e-08
-2.08224e-08
3.76429e-08
-2.82135e-08
4.26317e-08
-3.61618e-08
4.6424e-08
-4.45064e-08
4.91603e-08
-5.31144e-08
5.10044e-08
-6.18784e-08
5.2122e-08
-7.07132e-08
5.26656e-08
-7.95524e-08
5.27667e-08
-8.83444e-08
5.25315e-08
-9.70491e-08
5.2042e-08
-1.05635e-07
5.13585e-08
-1.14077e-07
5.05237e-08
-1.22355e-07
4.95667e-08
-1.30449e-07
4.85064e-08
-1.38345e-07
4.73551e-08
-1.46027e-07
4.61202e-08
-1.53483e-07
4.48065e-08
-1.60698e-07
4.34168e-08
-1.67661e-07
4.19528e-08
-1.74359e-07
4.0416e-08
-1.8078e-07
3.88073e-08
-1.86913e-07
3.71275e-08
-1.92746e-07
3.53776e-08
-1.98268e-07
3.35586e-08
-2.03467e-07
3.16714e-08
-2.08335e-07
2.97171e-08
-2.12859e-07
2.76969e-08
-2.17031e-07
2.56122e-08
-2.20839e-07
2.34646e-08
-2.24276e-07
2.12555e-08
-2.27331e-07
1.89869e-08
-2.29996e-07
1.66607e-08
-2.32262e-07
1.42792e-08
-2.34122e-07
1.18448e-08
-2.35568e-07
9.36017e-09
-2.36592e-07
6.82821e-09
-2.3719e-07
4.25214e-09
-2.37354e-07
1.63545e-09
-2.37079e-07
-1.01806e-09
-2.36361e-07
-3.70426e-09
-2.35196e-07
-6.41871e-09
-2.3358e-07
-9.1566e-09
-2.31511e-07
-1.19128e-08
-2.28989e-07
-1.46818e-08
-2.26011e-07
-1.74577e-08
-2.2258e-07
-2.02343e-08
-2.18695e-07
-2.30051e-08
-2.1436e-07
-2.57632e-08
-2.09579e-07
-2.85013e-08
-2.04355e-07
-3.12121e-08
-1.98696e-07
-3.38876e-08
-1.92609e-07
-3.65197e-08
-1.86103e-07
-3.91002e-08
-1.79187e-07
-4.16203e-08
-1.71874e-07
-4.40708e-08
-1.64177e-07
-4.64419e-08
-1.56111e-07
-4.87226e-08
-1.47694e-07
-5.09004e-08
-1.38944e-07
-5.29602e-08
-1.29885e-07
-5.48829e-08
-1.20544e-07
-5.66438e-08
-1.10952e-07
-5.82097e-08
-1.01147e-07
-5.9536e-08
-9.11764e-08
-6.05636e-08
-8.10985e-08
-6.12146e-08
-7.09854e-08
-6.13895e-08
-6.09265e-08
-6.09654e-08
-5.10323e-08
-5.97964e-08
-4.14369e-08
-5.77177e-08
-3.23015e-08
-5.45546e-08
-2.3816e-08
-5.01369e-08
-1.62006e-08
-4.43184e-08
-9.70708e-09
-3.70011e-08
-4.62043e-09
-2.81587e-08
-1.26217e-09
-1.78584e-08
-6.27994e-09
-1.15597e-09
6.36827e-09
-4.23394e-09
1.8077e-08
-8.89048e-09
2.84455e-08
-1.48208e-08
3.72969e-08
-2.17554e-08
4.45775e-08
-2.94596e-08
5.03359e-08
-3.77329e-08
5.46972e-08
-4.64073e-08
5.78348e-08
-5.53456e-08
5.99427e-08
-6.44375e-08
6.12139e-08
-7.35963e-08
6.18244e-08
-8.27545e-08
6.19249e-08
-9.186e-08
6.16369e-08
-1.00872e-07
6.10543e-08
-1.0976e-07
6.02459e-08
-1.18496e-07
5.92605e-08
-1.27061e-07
5.81317e-08
-1.35436e-07
5.68812e-08
-1.43605e-07
5.55234e-08
-1.51551e-07
5.4067e-08
-1.59262e-07
5.25176e-08
-1.66724e-07
5.08788e-08
-1.73925e-07
4.91529e-08
-1.8085e-07
4.73414e-08
-1.87489e-07
4.54458e-08
-1.93828e-07
4.34672e-08
-1.99857e-07
4.14068e-08
-2.05565e-07
3.92658e-08
-2.10939e-07
3.70453e-08
-2.15968e-07
3.47469e-08
-2.20644e-07
3.23721e-08
-2.24954e-07
2.99224e-08
-2.28889e-07
2.73996e-08
-2.32439e-07
2.48058e-08
-2.35595e-07
2.21431e-08
-2.38348e-07
1.94138e-08
-2.4069e-07
1.66206e-08
-2.42611e-07
1.37664e-08
-2.44105e-07
1.08542e-08
-2.45164e-07
7.88741e-09
-2.45782e-07
4.86988e-09
-2.45952e-07
1.80563e-09
-2.45669e-07
-1.30093e-09
-2.44929e-07
-4.44501e-09
-2.43726e-07
-7.62144e-09
-2.42058e-07
-1.08246e-08
-2.39922e-07
-1.40486e-08
-2.37317e-07
-1.72871e-08
-2.34241e-07
-2.05331e-08
-2.30696e-07
-2.37795e-08
-2.26683e-07
-2.70187e-08
-2.22203e-07
-3.02427e-08
-2.17261e-07
-3.34431e-08
-2.11862e-07
-3.66111e-08
-2.06012e-07
-3.97377e-08
-1.99719e-07
-4.28134e-08
-1.9299e-07
-4.58285e-08
-1.85838e-07
-4.87727e-08
-1.78274e-07
-5.16353e-08
-1.70311e-07
-5.44047e-08
-1.61965e-07
-5.70681e-08
-1.53255e-07
-5.96109e-08
-1.442e-07
-6.20154e-08
-1.34823e-07
-6.42594e-08
-1.25153e-07
-6.63142e-08
-1.15221e-07
-6.81415e-08
-1.05067e-07
-6.96901e-08
-9.47384e-08
-7.08919e-08
-8.42951e-08
-7.16578e-08
-7.38107e-08
-7.1874e-08
-6.33766e-08
-7.13995e-08
-5.31061e-08
-7.00669e-08
-4.31377e-08
-6.76861e-08
-3.36383e-08
-6.4054e-08
-2.48061e-08
-5.8969e-08
-1.68728e-08
-5.22518e-08
-1.01044e-08
-4.37695e-08
-4.80291e-09
-3.34602e-08
-1.30769e-09
-2.13536e-08
-7.58763e-09
-1.19046e-09
7.55873e-09
-4.37056e-09
2.12571e-08
-9.18663e-09
3.32616e-08
-1.53206e-08
4.34309e-08
-2.24903e-08
5.17471e-08
-3.04497e-08
5.82953e-08
-3.89898e-08
6.32373e-08
-4.79363e-08
6.67813e-08
-5.71476e-08
6.9154e-08
-6.65109e-08
7.05771e-08
-7.59376e-08
7.12511e-08
-8.53595e-08
7.13467e-08
-9.47238e-08
7.10012e-08
-1.0399e-07
7.03203e-08
-1.13126e-07
6.93816e-08
-1.22105e-07
6.82402e-08
-1.30907e-07
6.69338e-08
-1.39513e-07
6.54872e-08
-1.47907e-07
6.39167e-08
-1.56072e-07
6.22324e-08
-1.63995e-07
6.04407e-08
-1.71662e-07
5.85459e-08
-1.7906e-07
5.65507e-08
-1.86176e-07
5.44572e-08
-1.92997e-07
5.22669e-08
-1.99511e-07
4.99815e-08
-2.05707e-07
4.76023e-08
-2.11572e-07
4.51308e-08
-2.17095e-07
4.25686e-08
-2.22265e-07
3.99172e-08
-2.27072e-07
3.71786e-08
-2.31504e-07
3.43545e-08
-2.35551e-07
3.14472e-08
-2.39205e-07
2.8459e-08
-2.42454e-07
2.53922e-08
-2.4529e-07
2.22497e-08
-2.47704e-07
1.90345e-08
-2.49687e-07
1.57498e-08
-2.51232e-07
1.23993e-08
-2.52332e-07
8.98673e-09
-2.52978e-07
5.51645e-09
-2.53166e-07
1.9931e-09
-2.52888e-07
-1.57831e-09
-2.52141e-07
-5.19232e-09
-2.50919e-07
-8.84303e-09
-2.4922e-07
-1.25241e-08
-2.4704e-07
-1.62288e-08
-2.44377e-07
-1.99497e-08
-2.41231e-07
-2.36791e-08
-2.37602e-07
-2.74088e-08
-2.3349e-07
-3.11302e-08
-2.28899e-07
-3.48339e-08
-2.23832e-07
-3.85106e-08
-2.18293e-07
-4.215e-08
-2.12289e-07
-4.57418e-08
-2.05827e-07
-4.92753e-08
-1.98916e-07
-5.2739e-08
-1.91568e-07
-5.61213e-08
-1.83793e-07
-5.94097e-08
-1.75607e-07
-6.2591e-08
-1.67024e-07
-6.56505e-08
-1.58064e-07
-6.85711e-08
-1.48747e-07
-7.13327e-08
-1.39096e-07
-7.39098e-08
-1.29141e-07
-7.62697e-08
-1.18914e-07
-7.83689e-08
-1.08454e-07
-8.01494e-08
-9.78121e-08
-8.15341e-08
-8.70476e-08
-8.24223e-08
-7.62362e-08
-8.26853e-08
-6.54718e-08
-8.21639e-08
-5.48707e-08
-8.06679e-08
-4.45757e-08
-7.79811e-08
-3.47597e-08
-7.387e-08
-2.5629e-08
-6.80998e-08
-1.74251e-08
-6.04557e-08
-1.04265e-08
-5.07681e-08
-4.94851e-09
-3.89381e-08
-1.34322e-09
-2.49589e-08
-8.93085e-09
-1.21689e-09
8.77562e-09
-4.47748e-09
2.45177e-08
-9.42183e-09
3.82059e-08
-1.57224e-08
4.97314e-08
-2.30868e-08
5.91115e-08
-3.12602e-08
6.64687e-08
-4.00258e-08
7.20029e-08
-4.92038e-08
7.59593e-08
-5.86485e-08
7.85987e-08
-6.82442e-08
8.01728e-08
-7.79008e-08
8.09078e-08
-8.7549e-08
8.09949e-08
-9.71356e-08
8.05879e-08
-1.0662e-07
7.98043e-08
-1.15969e-07
7.87308e-08
-1.25157e-07
7.74288e-08
-1.34164e-07
7.59401e-08
-1.42969e-07
7.42926e-08
-1.51557e-07
7.25045e-08
-1.59912e-07
7.05871e-08
-1.68019e-07
6.85478e-08
-1.75864e-07
6.63915e-08
-1.83435e-07
6.41215e-08
-1.90718e-07
6.174e-08
-1.977e-07
5.92491e-08
-2.04369e-07
5.66507e-08
-2.10713e-07
5.39463e-08
-2.1672e-07
5.11379e-08
-2.22379e-07
4.8227e-08
-2.27677e-07
4.52158e-08
-2.32605e-07
4.21063e-08
-2.37151e-07
3.89007e-08
-2.41305e-07
3.56014e-08
-2.45057e-07
3.22109e-08
-2.48397e-07
2.87323e-08
-2.51316e-07
2.51684e-08
-2.53804e-07
2.15228e-08
-2.55854e-07
1.77991e-08
-2.57456e-07
1.40013e-08
-2.58603e-07
1.01337e-08
-2.59287e-07
6.2012e-09
-2.59503e-07
2.20895e-09
-2.59244e-07
-1.83743e-09
-2.58505e-07
-5.93181e-09
-2.5728e-07
-1.00676e-08
-2.55566e-07
-1.42377e-08
-2.53361e-07
-1.84345e-08
-2.50661e-07
-2.26498e-08
-2.47465e-07
-2.68748e-08
-2.43774e-07
-3.11003e-08
-2.39587e-07
-3.53166e-08
-2.34908e-07
-3.95132e-08
-2.29739e-07
-4.36794e-08
-2.24085e-07
-4.78038e-08
-2.17952e-07
-5.18746e-08
-2.11348e-07
-5.58795e-08
-2.04281e-07
-5.98058e-08
-1.96763e-07
-6.364e-08
-1.88804e-07
-6.73682e-08
-1.8042e-07
-7.0975e-08
-1.71627e-07
-7.44438e-08
-1.62443e-07
-7.77553e-08
-1.52889e-07
-8.08866e-08
-1.4299e-07
-8.3809e-08
-1.32774e-07
-8.64856e-08
-1.22275e-07
-8.88675e-08
-1.11535e-07
-9.08897e-08
-1.00603e-07
-9.24661e-08
-8.95413e-08
-9.34839e-08
-7.84274e-08
-9.37993e-08
-6.73576e-08
-9.32337e-08
-5.64517e-08
-9.15738e-08
-4.58571e-08
-8.85757e-08
-3.57527e-08
-8.39744e-08
-2.63523e-08
-7.75001e-08
-1.79069e-08
-6.89011e-08
-1.07052e-08
-5.79697e-08
-5.0736e-09
-4.45698e-08
-1.37363e-09
-2.86589e-08
-1.03045e-08
-1.23865e-09
1.00143e-08
-4.56638e-09
2.78454e-08
-9.61904e-09
4.32586e-08
-1.60619e-08
5.61743e-08
-2.35947e-08
6.66442e-08
-3.19548e-08
7.48288e-08
-4.0919e-08
8.09671e-08
-5.03022e-08
8.53425e-08
-5.99548e-08
8.82512e-08
-6.97585e-08
8.99764e-08
-7.96214e-08
9.07707e-08
-8.94732e-08
9.08467e-08
-9.92601e-08
9.03747e-08
-1.08941e-07
8.94849e-08
-1.18483e-07
8.82728e-08
-1.2786e-07
8.68062e-08
-1.37051e-07
8.51314e-08
-1.46038e-07
8.3279e-08
-1.54802e-07
8.12691e-08
-1.6333e-07
7.91145e-08
-1.71605e-07
7.68234e-08
-1.79615e-07
7.44012e-08
-1.87345e-07
7.18517e-08
-1.94783e-07
6.91777e-08
-2.01915e-07
6.63814e-08
-2.08729e-07
6.3465e-08
-2.15214e-07
6.04304e-08
-2.21355e-07
5.72797e-08
-2.27143e-07
5.4015e-08
-2.32566e-07
5.06384e-08
-2.37612e-07
4.71522e-08
-2.4227e-07
4.35591e-08
-2.4653e-07
3.98616e-08
-2.50382e-07
3.60627e-08
-2.53816e-07
3.21656e-08
-2.56821e-07
2.81736e-08
-2.59388e-07
2.40905e-08
-2.6151e-07
1.99203e-08
-2.63176e-07
1.56675e-08
-2.64379e-07
1.1337e-08
-2.65112e-07
6.93389e-09
-2.65367e-07
2.46399e-09
-2.65138e-07
-2.06649e-09
-2.64419e-07
-6.65082e-09
-2.63205e-07
-1.12817e-08
-2.61491e-07
-1.59512e-08
-2.59275e-07
-2.0651e-08
-2.56553e-07
-2.53719e-08
-2.53323e-07
-3.01043e-08
-2.49586e-07
-3.48378e-08
-2.45341e-07
-3.95616e-08
-2.4059e-07
-4.4264e-08
-2.35336e-07
-4.89331e-08
-2.29584e-07
-5.35561e-08
-2.23339e-07
-5.81198e-08
-2.16608e-07
-6.26104e-08
-2.094e-07
-6.70135e-08
-2.01726e-07
-7.1314e-08
-1.93598e-07
-7.54962e-08
-1.8503e-07
-7.95428e-08
-1.76039e-07
-8.3435e-08
-1.66643e-07
-8.71512e-08
-1.56864e-07
-9.06657e-08
-1.46727e-07
-9.39463e-08
-1.3626e-07
-9.69518e-08
-1.255e-07
-9.96279e-08
-1.14487e-07
-1.01902e-07
-1.03274e-07
-1.03679e-07
-9.19237e-08
-1.04834e-07
-8.05159e-08
-1.05207e-07
-6.915e-08
-1.046e-07
-5.79495e-08
-1.02774e-07
-4.70666e-08
-9.94586e-08
-3.66863e-08
-9.43547e-08
-2.70298e-08
-8.71566e-08
-1.83566e-08
-7.75743e-08
-1.0965e-08
-6.53614e-08
-5.19036e-09
-5.03444e-08
-1.40238e-09
-3.24469e-08
-1.17069e-08
-1.25823e-09
1.12725e-08
-4.64602e-09
3.12332e-08
-9.79589e-09
4.84085e-08
-1.63673e-08
6.27457e-08
-2.40532e-08
7.43301e-08
-3.25844e-08
8.336e-08
-4.17317e-08
9.01144e-08
-5.13052e-08
9.49161e-08
-6.11518e-08
9.80977e-08
-7.11503e-08
9.9975e-08
-8.12072e-08
1.00828e-07
-9.1251e-08
1.00891e-07
-1.01227e-07
1.00351e-07
-1.11094e-07
9.93516e-08
-1.20819e-07
9.79978e-08
-1.30376e-07
9.63632e-08
-1.39743e-07
9.44988e-08
-1.48902e-07
9.2438e-08
-1.57836e-07
9.02029e-08
-1.66529e-07
8.78075e-08
-1.74967e-07
8.5261e-08
-1.83135e-07
8.25693e-08
-1.9102e-07
7.97366e-08
-1.98608e-07
7.67661e-08
-2.05887e-07
7.36604e-08
-2.12844e-07
7.04219e-08
-2.19467e-07
6.70529e-08
-2.25743e-07
6.35557e-08
-2.3166e-07
5.99325e-08
-2.37207e-07
5.61858e-08
-2.42373e-07
5.23182e-08
-2.47147e-07
4.83326e-08
-2.51517e-07
4.42317e-08
-2.55473e-07
4.00189e-08
-2.59005e-07
3.56976e-08
-2.62103e-07
3.12715e-08
-2.64757e-07
2.67446e-08
-2.66958e-07
2.21214e-08
-2.68698e-07
1.74067e-08
-2.69966e-07
1.26058e-08
-2.70757e-07
7.72436e-09
-2.71062e-07
2.76862e-09
-2.70873e-07
-2.25464e-09
-2.70186e-07
-7.33805e-09
-2.68994e-07
-1.24737e-08
-2.67293e-07
-1.76528e-08
-2.65077e-07
-2.28663e-08
-2.62345e-07
-2.81042e-08
-2.59094e-07
-3.33557e-08
-2.55322e-07
-3.86095e-08
-2.5103e-07
-4.38537e-08
-2.46218e-07
-4.90754e-08
-2.4089e-07
-5.42612e-08
-2.35049e-07
-5.93971e-08
-2.28701e-07
-6.44683e-08
-2.21852e-07
-6.94595e-08
-2.14511e-07
-7.43545e-08
-2.06688e-07
-7.91367e-08
-1.98396e-07
-8.37883e-08
-1.89649e-07
-8.829e-08
-1.80463e-07
-9.26209e-08
-1.70857e-07
-9.67568e-08
-1.60854e-07
-1.00669e-07
-1.50478e-07
-1.04322e-07
-1.39761e-07
-1.0767e-07
-1.28736e-07
-1.10652e-07
-1.17449e-07
-1.1319e-07
-1.05951e-07
-1.15177e-07
-9.43085e-08
-1.16477e-07
-8.26035e-08
-1.16912e-07
-7.09386e-08
-1.16264e-07
-5.94414e-08
-1.14272e-07
-4.82692e-08
-1.10631e-07
-3.76132e-08
-1.05011e-07
-2.77019e-08
-9.70679e-08
-1.8803e-08
-8.64732e-08
-1.12235e-08
-7.29409e-08
-5.30745e-09
-5.62604e-08
-1.43181e-09
-3.63225e-08
-1.31387e-08
-1.27735e-09
1.25499e-08
-4.72272e-09
3.46786e-08
-9.96534e-09
5.36511e-08
-1.66594e-08
6.94398e-08
-2.44917e-08
8.21624e-08
-3.31872e-08
9.20555e-08
-4.25112e-08
9.94384e-08
-5.22692e-08
1.04674e-07
-6.23045e-08
1.08133e-07
-7.24934e-08
1.10164e-07
-8.27405e-08
1.11075e-07
-9.2973e-08
1.11123e-07
-1.03136e-07
1.10513e-07
-1.13186e-07
1.09402e-07
-1.23092e-07
1.07904e-07
-1.32827e-07
1.06098e-07
-1.4237e-07
1.04041e-07
-1.51701e-07
1.01769e-07
-1.60803e-07
9.93056e-08
-1.69662e-07
9.66663e-08
-1.78262e-07
9.3861e-08
-1.86589e-07
9.08965e-08
-1.9463e-07
8.77773e-08
-2.02371e-07
8.45069e-08
-2.09799e-07
8.10884e-08
-2.16901e-07
7.75243e-08
-2.23665e-07
7.38171e-08
-2.30079e-07
6.99695e-08
-2.36131e-07
6.59839e-08
-2.41808e-07
6.1863e-08
-2.47099e-07
5.76098e-08
-2.51994e-07
5.32271e-08
-2.56481e-07
4.87183e-08
-2.60548e-07
4.40866e-08
-2.64187e-07
3.93359e-08
-2.67385e-07
3.44701e-08
-2.70134e-07
2.94937e-08
-2.72424e-07
2.44113e-08
-2.74246e-07
1.92281e-08
-2.7559e-07
1.39498e-08
-2.76448e-07
8.58248e-09
-2.76812e-07
3.13288e-09
-2.76675e-07
-2.3917e-09
-2.7603e-07
-7.98333e-09
-2.7487e-07
-1.36334e-08
-2.7319e-07
-1.93325e-08
-2.70986e-07
-2.50707e-08
-2.68253e-07
-3.08371e-08