/*--------------------------------*- C++ -*----------------------------------*\
  =========                 |
  \\      /  F ield         | OpenFOAM: The Open Source CFD Toolbox
   \\    /   O peration     | Website:  https://openfoam.org
    \\  /    A nd           | Version:  7
     \\/     M anipulation  |
\*---------------------------------------------------------------------------*/
FoamFile
{
    version     2.0;
    format      ascii;
    class       surfaceScalarField;
    location    "1.5";
    object      phi;
}
// * * * * * * * * * * * * * * * * * * * * * * * * * * * * * * * * * * * * * //

dimensions      [0 3 -1 0 0 0 0];

internalField   nonuniform List<scalar> 
12640
(
3.37213e-10
-3.37187e-10
1.08898e-09
-7.51775e-10
1.87854e-09
-7.89554e-10
2.47182e-09
-5.93272e-10
2.75691e-09
-2.85081e-10
2.6933e-09
6.3616e-11
2.27949e-09
4.1381e-10
1.53303e-09
7.46463e-10
4.78283e-10
1.05474e-09
-8.6085e-10
1.33914e-09
-2.46481e-09
1.60397e-09
-4.31992e-09
1.85511e-09
-6.41858e-09
2.09866e-09
-8.75858e-09
2.34e-09
-1.13419e-08
2.58329e-09
-1.41731e-08
2.83129e-09
-1.72584e-08
3.0852e-09
-2.06032e-08
3.3448e-09
-2.42117e-08
3.60854e-09
-2.80854e-08
3.87368e-09
-3.22218e-08
4.1364e-09
-3.66138e-08
4.39202e-09
-4.12489e-08
4.63508e-09
-4.61083e-08
4.85942e-09
-5.11666e-08
5.05832e-09
-5.63913e-08
5.22462e-09
-6.17421e-08
5.3508e-09
-6.71712e-08
5.42914e-09
-7.26231e-08
5.45186e-09
-7.80345e-08
5.41139e-09
-8.3335e-08
5.30055e-09
-8.84478e-08
5.11281e-09
-9.32904e-08
4.84264e-09
-9.77762e-08
4.48572e-09
-1.01815e-07
4.03934e-09
-1.05318e-07
3.50261e-09
-1.08195e-07
2.8768e-09
-1.1036e-07
2.16559e-09
-1.11736e-07
1.37526e-09
-1.12251e-07
5.14895e-10
-1.11845e-07
-4.05352e-10
-1.10476e-07
-1.3696e-09
-1.08114e-07
-2.36191e-09
-1.0475e-07
-3.36336e-09
-1.00397e-07
-4.35341e-09
-9.50867e-08
-5.31029e-09
-8.88751e-08
-6.21165e-09
-8.18398e-08
-7.03525e-09
-7.408e-08
-7.75979e-09
-6.57144e-08
-8.36566e-09
-5.68786e-08
-8.83583e-09
-4.7722e-08
-9.15655e-09
-3.8404e-08
-9.31804e-09
-2.9089e-08
-9.315e-09
-1.9942e-08
-9.14698e-09
-1.11235e-08
-8.81849e-09
-2.78463e-09
-8.33891e-09
4.93758e-09
-7.72222e-09
1.19237e-08
-6.9861e-09
1.80753e-08
-6.15158e-09
2.33172e-08
-5.24199e-09
2.7599e-08
-4.28179e-09
3.08946e-08
-3.29562e-09
3.3202e-08
-2.30733e-09
3.4541e-08
-1.33904e-09
3.49515e-08
-4.10465e-10
3.449e-08
4.6146e-10
3.32274e-08
1.2627e-09
3.12456e-08
1.98176e-09
2.86365e-08
2.60905e-09
2.55011e-08
3.1355e-09
2.19503e-08
3.55081e-09
1.81092e-08
3.84108e-09
1.41235e-08
3.98566e-09
1.01698e-08
3.95373e-09
6.46826e-09
3.70154e-09
3.29448e-09
3.17379e-09
9.83455e-10
2.31104e-09
-1.13199e-10
1.09665e-09
-1.13179e-10
7.61849e-10
-1.09904e-09
2.02982e-09
-2.01973e-09
3.17822e-09
-1.93796e-09
3.80774e-09
-1.2228e-09
3.68643e-09
-1.63776e-10
2.70625e-09
1.04378e-09
8.38456e-10
2.28164e-09
-1.89979e-09
3.48471e-09
-5.47045e-09
4.62541e-09
-9.83062e-09
5.69932e-09
-1.49422e-08
6.71556e-09
-2.07768e-08
7.68974e-09
-2.73172e-08
8.63907e-09
-3.45565e-08
9.57922e-09
-4.24955e-08
1.05223e-08
-5.11402e-08
1.1476e-08
-6.04977e-08
1.24427e-08
-7.0573e-08
1.34202e-08
-8.13658e-08
1.44014e-08
-9.28673e-08
1.53751e-08
-1.05057e-07
1.63265e-08
-1.17903e-07
1.72375e-08
-1.31355e-07
1.80873e-08
-1.45348e-07
1.88527e-08
-1.59799e-07
1.95089e-08
-1.74604e-07
2.00297e-08
-1.89641e-07
2.03881e-08
-2.04769e-07
2.05569e-08
-2.19827e-07
2.05093e-08
-2.34635e-07
2.02199e-08
-2.49e-07
1.96654e-08
-2.62713e-07
1.88254e-08
-2.75554e-07
1.76839e-08
-2.87298e-07
1.62294e-08
-2.97715e-07
1.44569e-08
-3.0658e-07
1.23679e-08
-3.13675e-07
9.9715e-09
-3.18795e-07
7.28527e-09
-3.21755e-07
4.33544e-09
-3.22397e-07
1.15741e-09
-3.20594e-07
-2.20842e-09
-3.16256e-07
-5.70816e-09
-3.09335e-07
-9.28239e-09
-2.99833e-07
-1.28662e-08
-2.87797e-07
-1.63892e-08
-2.73329e-07
-1.97781e-08
-2.56582e-07
-2.29583e-08
-2.37761e-07
-2.58565e-08
-2.17118e-07
-2.84026e-08
-1.94951e-07
-3.05329e-08
-1.71595e-07
-3.2192e-08
-1.47416e-07
-3.33353e-08
-1.22803e-07
-3.39308e-08
-9.81574e-08
-3.3961e-08
-7.38807e-08
-3.34237e-08
-5.03667e-08
-3.23325e-08
-2.79888e-08
-3.07168e-08
-7.09057e-09
-2.86205e-08
1.20241e-08
-2.61007e-08
2.90978e-08
-2.32253e-08
4.39261e-08
-2.00703e-08
5.6361e-08
-1.67168e-08
6.63131e-08
-1.32477e-08
7.37503e-08
-9.74459e-09
7.86963e-08
-6.285e-09
8.12259e-08
-2.94002e-09
8.14604e-08
2.26956e-10
7.9562e-08
3.16108e-09
7.5729e-08
5.81473e-09
7.01922e-08
8.14589e-09
6.32133e-08
1.01144e-08
5.50871e-08
1.1677e-08
4.61469e-08
1.27813e-08
3.6774e-08
1.33586e-08
2.74098e-08
1.33179e-08
1.85666e-08
1.25447e-08
1.08268e-08
1.09136e-08
4.8142e-09
8.32368e-09
1.10278e-09
4.8081e-09
9.896e-10
8.09383e-10
-1.90842e-09
1.94312e-09
-3.15346e-09
2.66101e-09
-2.65583e-09
2.50343e-09
-1.06521e-09
1.19574e-09
1.14391e-09
-1.4004e-09
3.63994e-09
-5.32942e-09
6.21064e-09
-1.05798e-08
8.73511e-09
-1.71119e-08
1.11575e-08
-2.48774e-08
1.34648e-08
-3.38319e-08
1.56701e-08
-4.39415e-08
1.77993e-08
-5.51847e-08
1.98823e-08
-6.75515e-08
2.1946e-08
-8.10405e-08
2.40113e-08
-9.56544e-08
2.60898e-08
-1.11395e-07
2.81835e-08
-1.28259e-07
3.02843e-08
-1.46233e-07
3.2375e-08
-1.65287e-07
3.44296e-08
-1.85376e-07
3.64148e-08
-2.06429e-07
3.82907e-08
-2.28354e-07
4.00121e-08
-2.5103e-07
4.15294e-08
-2.74311e-07
4.27899e-08
-2.9802e-07
4.37385e-08
-3.21951e-07
4.43196e-08
-3.45872e-07
4.44779e-08
-3.69523e-07
4.41603e-08
-3.92621e-07
4.33173e-08
-4.14861e-07
4.19051e-08
-4.35922e-07
3.9887e-08
-4.55474e-07
3.72358e-08
-4.7318e-07
3.39353e-08
-4.88705e-07
2.99822e-08
-5.01725e-07
2.53873e-08
-5.1193e-07
2.01769e-08
-5.19039e-07
1.43938e-08
-5.22801e-07
8.09802e-09
-5.23011e-07
1.36736e-09
-5.19505e-07
-5.71405e-09
-5.12182e-07
-1.30314e-08
-5.00999e-07
-2.04654e-08
-4.8598e-07
-2.78849e-08
-4.67219e-07
-3.51506e-08
-4.44879e-07
-4.2118e-08
-4.19196e-07
-4.86416e-08
-3.90473e-07
-5.45792e-08
-3.5908e-07
-5.97959e-08
-3.25444e-07
-6.41689e-08
-2.90044e-07
-6.75916e-08
-2.53402e-07
-6.99779e-08
-2.16067e-07
-7.12656e-08
-1.78608e-07
-7.14197e-08
-1.41598e-07
-7.04339e-08
-1.05599e-07
-6.83318e-08
-7.11483e-08
-6.51672e-08
-3.87472e-08
-6.10216e-08
-8.84546e-09
-5.60025e-08
1.81684e-08
-5.02392e-08
4.19758e-08
-4.38777e-08
6.23349e-08
-3.70759e-08
7.90844e-08
-2.99971e-08
9.21445e-08
-2.28047e-08
1.01516e-07
-1.56562e-08
1.07275e-07
-8.69961e-09
1.09572e-07
-2.06958e-09
1.0862e-07
4.11332e-09
1.04692e-07
9.742e-09
9.81189e-08
1.47194e-08
8.92805e-08
1.89528e-08
7.86114e-08
2.23462e-08
6.66026e-08
2.479e-08
5.38092e-08
2.6152e-08
4.08573e-08
2.62698e-08
2.84482e-08
2.49538e-08
1.73521e-08
2.20096e-08
8.38087e-09
1.7295e-08
2.33655e-09
1.08524e-08
3.32614e-09
5.89512e-10
-2.49793e-09
1.10336e-09
-3.6673e-09
7.93192e-10
-2.34564e-09
-7.9717e-10
5.25149e-10
-3.93682e-09
4.28358e-09
-8.76018e-09
8.4633e-09
-1.53098e-08
1.27603e-08
-2.35733e-08
1.69986e-08
-3.35102e-08
2.10944e-08
-4.50721e-08
2.50267e-08
-5.82143e-08
2.88123e-08
-7.2903e-08
3.2488e-08
-8.91164e-08
3.60957e-08
-1.06844e-07
3.96733e-08
-1.2608e-07
4.32481e-08
-1.46824e-07
4.68335e-08
-1.69067e-07
5.04267e-08
-1.92792e-07
5.40094e-08
-2.17965e-07
5.75478e-08
-2.4453e-07
6.09947e-08
-2.72406e-07
6.42905e-08
-3.01481e-07
6.73655e-08
-3.31611e-07
7.01419e-08
-3.62616e-07
7.25351e-08
-3.94283e-07
7.44563e-08
-4.26359e-07
7.58143e-08
-4.58557e-07
7.65181e-08
-4.90558e-07
7.64789e-08
-5.22011e-07
7.56129e-08
-5.52537e-07
7.38443e-08
-5.8174e-07
7.11079e-08
-6.09205e-07
6.73522e-08
-6.34512e-07
6.25421e-08
-6.57238e-07
5.66618e-08
-6.76973e-07
4.97166e-08
-6.93321e-07
4.17355e-08
-7.05916e-07
3.2772e-08
-7.14428e-07
2.29055e-08
-7.18571e-07
1.22416e-08
-7.18122e-07
9.17978e-10
-7.12899e-07
-1.09367e-08
-7.02809e-07
-2.31215e-08
-6.87826e-07
-3.54486e-08
-6.68002e-07
-4.77086e-08
-6.43472e-07
-5.96807e-08
-6.14452e-07
-7.11379e-08
-5.81241e-07
-8.18532e-08
-5.44215e-07
-9.16051e-08
-5.03826e-07
-1.00184e-07
-4.60595e-07
-1.074e-07
-4.15099e-07
-1.13087e-07
-3.67966e-07
-1.1711e-07
-3.19861e-07
-1.19371e-07
-2.7147e-07
-1.19811e-07
-2.23488e-07
-1.18416e-07
-1.76603e-07
-1.15217e-07
-1.31477e-07
-1.10293e-07
-8.87345e-08
-1.03764e-07
-4.89452e-08
-9.57917e-08
-1.26111e-08
-8.65733e-08
1.98455e-08
-7.63343e-08
4.80905e-08
-6.53209e-08
7.18846e-08
-5.37913e-08
9.1087e-08
-4.2007e-08
1.05655e-07
-3.02247e-08
1.15645e-07
-1.8689e-08
1.21202e-07
-7.6272e-09
1.22563e-07
2.75285e-09
1.20042e-07
1.22629e-08
1.14031e-07
2.07303e-08
1.04993e-07
2.79905e-08
9.34624e-08
3.38772e-08
8.00421e-08
3.82103e-08
6.54105e-08
4.07836e-08
5.03227e-08
4.13576e-08
3.56126e-08
3.96639e-08
2.21912e-08
3.54311e-08
1.10412e-08
2.8445e-08
3.22434e-09
1.86693e-08
6.55048e-09
2.02449e-10
-2.70037e-09
-2.72489e-10
-3.19235e-09
-2.08797e-09
-5.30175e-10
-5.64222e-09
4.07943e-09
-1.11599e-08
9.80122e-09
-1.87436e-08
1.60471e-08
-2.84168e-08
2.24335e-08
-4.01562e-08
2.8738e-08
-5.39176e-08
3.48558e-08
-6.96523e-08
4.07614e-08
-8.73182e-08
4.64783e-08
-1.06884e-07
5.20542e-08
-1.28332e-07
5.75428e-08
-1.51649e-07
6.29908e-08
-1.7683e-07
6.8429e-08
-2.03864e-07
7.38678e-08
-2.32733e-07
7.9295e-08
-2.63399e-07
8.46754e-08
-2.95803e-07
8.99524e-08
-3.29858e-07
9.50497e-08
-3.65442e-07
9.98742e-08
-4.02395e-07
1.04319e-07
-4.40519e-07
1.08265e-07
-4.79571e-07
1.11587e-07
-5.19268e-07
1.14154e-07
-5.59285e-07
1.15831e-07
-5.99257e-07
1.1649e-07
-6.38783e-07
1.16005e-07
-6.7743e-07
1.1426e-07
-7.1474e-07
1.11154e-07
-7.50235e-07
1.06603e-07
-7.83428e-07
1.00545e-07
-8.13828e-07
9.2942e-08
-8.40952e-07
8.37859e-08
-8.64334e-07
7.30992e-08
-8.83536e-07
6.09376e-08
-8.98156e-07
4.73915e-08
-9.07837e-07
3.25863e-08
-9.12276e-07
1.66803e-08
-9.11254e-07
-1.03939e-10
-9.04572e-07
-1.76181e-08
-8.92161e-07
-3.5533e-08
-8.74008e-07
-5.36013e-08
-8.50191e-07
-7.15257e-08
-8.20874e-07
-8.89975e-08
-7.86311e-07
-1.05701e-07
-7.46842e-07
-1.21322e-07
-7.02892e-07
-1.35555e-07
-6.54966e-07
-1.4811e-07
-6.03645e-07
-1.58722e-07
-5.49572e-07
-1.6716e-07
-4.93448e-07
-1.73235e-07
-4.36015e-07
-1.76804e-07
-3.78045e-07
-1.77781e-07
-3.20324e-07
-1.76137e-07
-2.63635e-07
-1.71906e-07
-2.08743e-07
-1.65185e-07
-1.56375e-07
-1.56132e-07
-1.07205e-07
-1.44962e-07
-6.18385e-08
-1.3194e-07
-2.07967e-08
-1.17376e-07
1.5493e-08
-1.01611e-07
4.67076e-08
-8.50058e-08
7.26339e-08
-6.79333e-08
9.3172e-08
-5.07629e-08
1.08335e-07
-3.38523e-08
1.18248e-07
-1.75397e-08
1.2314e-07
-2.13906e-09
1.23342e-07
1.2061e-08
1.19279e-07
2.4793e-08
1.11466e-07
3.58034e-08
1.00503e-07
4.48407e-08
8.70714e-08
5.16415e-08
7.19382e-08
5.59168e-08
5.59526e-08
5.73433e-08
4.00512e-08
5.55652e-08
2.52653e-08
5.0217e-08
1.27379e-08
4.09724e-08
3.77221e-09
2.76349e-08
1.03227e-08
-2.97956e-10
-2.4024e-09
-2.03905e-09
-1.45125e-09
-5.74115e-09
3.17195e-09
-1.16978e-08
1.00361e-08
-2.00551e-08
1.81585e-08
-3.08605e-08
2.68526e-08
-4.41014e-08
3.56744e-08
-5.97339e-08
4.43705e-08
-7.7704e-08
5.28259e-08
-9.79614e-08
6.10188e-08
-1.20467e-07
6.89834e-08
-1.45193e-07
7.67803e-08
-1.72124e-07
8.44742e-08
-2.01251e-07
9.21179e-08
-2.32564e-07
9.97416e-08
-2.66044e-07
1.07348e-07
-3.01656e-07
1.14908e-07
-3.39344e-07
1.22363e-07
-3.79019e-07
1.29627e-07
-4.20555e-07
1.36586e-07
-4.63789e-07
1.43108e-07
-5.08509e-07
1.49039e-07
-5.54459e-07
1.54215e-07
-6.01334e-07
1.58463e-07
-6.48784e-07
1.61603e-07
-6.96412e-07
1.6346e-07
-7.43782e-07
1.6386e-07
-7.9042e-07
1.62643e-07
-8.35823e-07
1.59663e-07
-8.79465e-07
1.54796e-07
-9.20805e-07
1.47943e-07
-9.59299e-07
1.39038e-07
-9.94406e-07
1.28049e-07
-1.0256e-06
1.1498e-07
-1.05238e-06
9.98809e-08
-1.07429e-06
8.28409e-08
-1.09089e-06
6.39951e-08
-1.10182e-06
4.35224e-08
-1.10679e-06
2.16451e-08
-1.10553e-06
-1.36501e-09
-1.0979e-06
-2.52424e-08
-1.08382e-06
-4.96198e-08
-1.06327e-06
-7.41456e-08
-1.03636e-06
-9.84374e-08
-1.00326e-06
-1.22096e-07
-9.64247e-07
-1.44717e-07
-9.19676e-07
-1.65893e-07
-8.69999e-07
-1.85232e-07
-8.1575e-07
-2.02359e-07
-7.57541e-07
-2.1693e-07
-6.96058e-07
-2.28644e-07
-6.32047e-07
-2.37246e-07
-5.66305e-07
-2.42545e-07
-4.9967e-07
-2.44416e-07
-4.32997e-07
-2.42809e-07
-3.67153e-07
-2.37751e-07
-3.02987e-07
-2.29351e-07
-2.41322e-07
-2.17797e-07
-1.8293e-07
-2.03354e-07
-1.28516e-07
-1.86354e-07
-7.87027e-08
-1.67189e-07
-3.40142e-08
-1.46299e-07
5.13535e-09
-1.24155e-07
3.84509e-08
-1.01249e-07
6.57619e-08
-7.80738e-08
8.70249e-08
-5.51153e-08
1.02323e-07
-3.28381e-08
1.11864e-07
-1.16793e-08
1.15971e-07
7.95402e-09
1.15081e-07
2.56828e-08
1.09736e-07
4.11478e-08
1.00579e-07
5.39977e-08
8.83468e-08
6.38741e-08
7.38686e-08
7.03951e-08
5.80681e-08
7.31438e-08
4.19677e-08
7.16656e-08
2.67041e-08
6.54805e-08
1.35608e-08
5.41158e-08
4.03396e-09
3.71618e-08
1.43567e-08
-8.79177e-10
-1.52323e-09
-4.10213e-09
1.77172e-09
-9.99817e-09
9.06798e-09
-1.87191e-08
1.8757e-08
-3.03049e-08
2.97442e-08
-4.4727e-08
4.12746e-08
-6.19215e-08
5.28689e-08
-8.18139e-08
6.42629e-08
-1.04335e-07
7.5347e-08
-1.2943e-07
8.61135e-08
-1.5706e-07
9.66138e-08
-1.87204e-07
1.06924e-07
-2.19849e-07
1.17119e-07
-2.54986e-07
1.27255e-07
-2.92603e-07
1.37358e-07
-3.3267e-07
1.47415e-07
-3.75136e-07
1.57374e-07
-4.19921e-07
1.67147e-07
-4.66902e-07
1.76609e-07
-5.15918e-07
1.85602e-07
-5.66755e-07
1.93945e-07
-6.19153e-07
2.01437e-07
-6.72796e-07
2.07859e-07
-7.27321e-07
2.12987e-07
-7.8231e-07
2.16593e-07
-8.37305e-07
2.18455e-07
-8.91804e-07
2.18359e-07
-9.45272e-07
2.1611e-07
-9.97146e-07
2.11537e-07
-1.04685e-06
2.04497e-07
-1.09379e-06
1.94885e-07
-1.13738e-06
1.82634e-07
-1.17706e-06
1.67723e-07
-1.21226e-06
1.50181e-07
-1.24247e-06
1.30087e-07
-1.2672e-06
1.07572e-07
-1.28602e-06
8.28197e-08
-1.29857e-06
5.60655e-08
-1.30452e-06
2.75963e-08
-1.30363e-06
-2.2492e-09
-1.29575e-06
-3.31232e-08
-1.28079e-06
-6.45848e-08
-1.25874e-06
-9.61954e-08
-1.22969e-06
-1.27485e-07
-1.19382e-06
-1.57965e-07
-1.1514e-06
-1.87139e-07
-1.10278e-06
-2.14508e-07
-1.04843e-06
-2.39589e-07
-9.88868e-07
-2.61918e-07
-9.24733e-07
-2.81065e-07
-8.56726e-07
-2.9665e-07
-7.85623e-07
-3.08348e-07
-7.12263e-07
-3.15906e-07
-6.37529e-07
-3.1915e-07
-5.62343e-07
-3.17995e-07
-4.87641e-07
-3.12453e-07
-4.14357e-07
-3.02635e-07
-3.43405e-07
-2.88749e-07
-2.75658e-07
-2.71101e-07
-2.11924e-07
-2.50088e-07
-1.52932e-07
-2.26182e-07
-9.93103e-08
-1.99921e-07
-5.15736e-08
-1.71892e-07
-1.01103e-08
-1.42712e-07
2.48265e-08
-1.13011e-07
5.31236e-08
-8.34125e-08
7.48091e-08
-5.45236e-08
9.00507e-08
-2.69209e-08
9.91513e-08
-1.14653e-09
1.02542e-07
2.22921e-08
1.00776e-07
4.29141e-08
9.45193e-08
6.02541e-08
8.45478e-08
7.38456e-08
7.17403e-08
8.32025e-08
5.70807e-08
8.78034e-08
4.1665e-08
8.70814e-08
2.67203e-08
8.04252e-08
1.36433e-08
6.71927e-08
4.06657e-09
4.67386e-08
1.84232e-08
-1.52481e-09
1.58596e-12
-6.40045e-09
6.64732e-09
-1.47409e-08
1.74084e-08
-2.65259e-08
3.05421e-08
-4.16658e-08
4.48841e-08
-6.00379e-08
5.96467e-08
-8.15147e-08
7.43456e-08
-1.05982e-07
8.87304e-08
-1.3335e-07
1.02715e-07
-1.63556e-07
1.16319e-07
-1.96562e-07
1.2962e-07
-2.32349e-07
1.42711e-07
-2.70909e-07
1.55679e-07
-3.12233e-07
1.6858e-07
-3.56303e-07
1.81428e-07
-4.03079e-07
1.94191e-07
-4.52493e-07
2.06788e-07
-5.04436e-07
2.1909e-07
-5.58753e-07
2.30926e-07
-6.15242e-07
2.42091e-07
-6.73644e-07
2.52347e-07
-7.33645e-07
2.61438e-07
-7.94877e-07
2.6909e-07
-8.56916e-07
2.75026e-07
-9.1929e-07
2.78967e-07
-9.81482e-07
2.80646e-07
-1.04294e-06
2.79812e-07
-1.10306e-06
2.7624e-07
-1.16126e-06
2.69736e-07
-1.21691e-06
2.60146e-07
-1.26939e-06
2.47362e-07
-1.31808e-06
2.31326e-07
-1.36239e-06
2.12035e-07
-1.40175e-06
1.89545e-07
-1.43564e-06
1.63969e-07
-1.46355e-06
1.35482e-07
-1.48505e-06
1.04319e-07
-1.49975e-06
7.07726e-08
-1.50735e-06
3.5192e-08
-1.50759e-06
-2.00728e-09
-1.50029e-06
-4.04286e-08
-1.48534e-06
-7.95303e-08
-1.46274e-06
-1.188e-07
-1.43254e-06
-1.57683e-07
-1.3949e-06
-1.95602e-07
-1.35007e-06
-2.3197e-07
-1.29838e-06
-2.66195e-07
-1.24027e-06
-2.97697e-07
-1.17627e-06
-3.2592e-07
-1.107e-06
-3.50343e-07
-1.03315e-06
-3.70493e-07
-9.55535e-07
-3.85966e-07
-8.75008e-07
-3.96433e-07
-7.92499e-07
-4.01658e-07
-7.08984e-07
-4.0151e-07
-6.2547e-07
-3.95967e-07
-5.42976e-07
-3.85129e-07
-4.62511e-07
-3.69214e-07
-3.85052e-07
-3.4856e-07
-3.11521e-07
-3.23619e-07
-2.42761e-07
-2.94941e-07
-1.79517e-07
-2.63164e-07
-1.22418e-07
-2.28992e-07
-7.19561e-08
-1.93174e-07
-2.84812e-08
-1.56486e-07
7.81069e-09
-1.19704e-07
3.68795e-08
-8.35925e-08
5.88412e-08
-4.88826e-08
7.39636e-08
-1.62689e-08
8.26604e-08
1.35953e-08
8.54828e-08
4.00917e-08
8.31112e-08
6.26257e-08
7.63477e-08
8.06091e-08
6.61111e-08
9.34392e-08
5.34364e-08
1.00478e-07
3.94829e-08
1.01035e-07
2.55528e-08
9.43553e-08
1.3127e-08
7.96185e-08
3.92271e-09
5.59428e-08
2.23459e-08
-2.21707e-09
2.21865e-09
-8.89165e-09
1.33219e-08
-1.98832e-08
2.84e-08
-3.498e-08
4.56389e-08
-5.39434e-08
6.38476e-08
-7.65422e-08
8.22455e-08
-1.02574e-07
1.00378e-07
-1.31879e-07
1.18035e-07
-1.64341e-07
1.35177e-07
-1.99887e-07
1.51865e-07
-2.38478e-07
1.6821e-07
-2.80097e-07
1.8433e-07
-3.24738e-07
2.0032e-07
-3.72394e-07
2.16235e-07
-4.23039e-07
2.32073e-07
-4.76622e-07
2.47774e-07
-5.33053e-07
2.63219e-07
-5.92197e-07
2.78233e-07
-6.53865e-07
2.92595e-07
-7.17814e-07
3.06039e-07
-7.83739e-07
3.18272e-07
-8.51278e-07
3.28977e-07
-9.2001e-07
3.37823e-07
-9.89462e-07
3.44478e-07
-1.05911e-06
3.48616e-07
-1.12839e-06
3.49927e-07
-1.1967e-06
3.48125e-07
-1.26342e-06
3.4296e-07
-1.32791e-06
3.34223e-07
-1.38952e-06
3.21755e-07
-1.44761e-06
3.05449e-07
-1.50155e-06
2.85263e-07
-1.55073e-06
2.61215e-07
-1.59457e-06
2.33388e-07
-1.63254e-06
2.01936e-07
-1.66413e-06
1.67076e-07
-1.6889e-06
1.29092e-07
-1.70646e-06
8.83307e-08
-1.71646e-06
4.51935e-08
-1.71868e-06
2.0727e-10
-1.71284e-06
-4.62687e-08
-1.69885e-06
-9.35154e-08
-1.67666e-06
-1.4099e-07
-1.6463e-06
-1.8805e-07
-1.60786e-06
-2.34034e-07
-1.56157e-06
-2.7826e-07
-1.50772e-06
-3.20044e-07
-1.44671e-06
-3.58709e-07
-1.37904e-06
-3.93597e-07
-1.30529e-06
-4.24085e-07
-1.22618e-06
-4.49604e-07
-1.1425e-06
-4.6965e-07
-1.05512e-06
-4.83808e-07
-9.6502e-07
-4.91762e-07
-8.73215e-07
-4.93314e-07
-7.80787e-07
-4.88396e-07
-6.88838e-07
-4.77077e-07
-5.98481e-07
-4.59571e-07
-5.10805e-07
-4.36236e-07
-4.26857e-07
-4.07568e-07
-3.47609e-07
-3.74189e-07
-2.73937e-07
-3.36836e-07
-2.06597e-07
-2.96331e-07
-1.46205e-07
-2.53566e-07
-9.32201e-08
-2.0947e-07
-4.79369e-08
-1.64988e-07
-1.04769e-08
-1.21052e-07
1.92114e-08
-7.8571e-08
4.135e-08
-3.84074e-08
5.63245e-08
-1.37929e-09
6.46756e-08
3.17406e-08
6.70894e-08
6.02119e-08
6.43882e-08
8.33103e-08
5.7524e-08
1.00303e-07
4.75768e-08
1.10425e-07
3.57597e-08
1.12852e-07
2.34354e-08
1.0668e-07
1.21444e-08
9.09096e-08
3.64772e-09
6.44395e-08
2.59936e-08
-2.96118e-09
5.17984e-09
-1.15479e-08
2.19086e-08
-2.53593e-08
4.22113e-08
-4.39692e-08
6.42487e-08
-6.69742e-08
8.68526e-08
-9.40224e-08
1.09294e-07
-1.24829e-07
1.31184e-07
-1.59181e-07
1.52387e-07
-1.96933e-07
1.7293e-07
-2.38001e-07
1.92933e-07
-2.82341e-07
2.1255e-07
-3.29939e-07
2.31928e-07
-3.80791e-07
2.51172e-07
-4.34887e-07
2.70331e-07
-4.92194e-07
2.89381e-07
-5.52649e-07
3.08228e-07
-6.16139e-07
3.26709e-07
-6.82501e-07
3.44596e-07
-7.51513e-07
3.61607e-07
-8.22892e-07
3.77418e-07
-8.9629e-07
3.9167e-07
-9.713e-07
4.03987e-07
-1.04746e-06
4.13979e-07
-1.12424e-06
4.21262e-07
-1.20109e-06
4.25463e-07
-1.27739e-06
4.26233e-07
-1.35253e-06
4.23259e-07
-1.42584e-06
4.1627e-07
-1.49666e-06
4.05047e-07
-1.56434e-06
3.89429e-07
-1.62821e-06
3.69321e-07
-1.68764e-06
3.44693e-07
-1.74201e-06
3.1559e-07
-1.79075e-06
2.82125e-07
-1.8333e-06
2.44488e-07
-1.86916e-06
2.02936e-07
-1.89787e-06
1.578e-07
-1.91901e-06
1.09475e-07
-1.93224e-06
5.84243e-08
-1.93722e-06
5.18091e-09
-1.93377e-06
-4.97206e-08
-1.92167e-06
-1.05609e-07
-1.90084e-06
-1.6182e-07
-1.87125e-06
-2.1764e-07
-1.83296e-06
-2.72323e-07
-1.78612e-06
-3.251e-07
-1.73098e-06
-3.75192e-07
-1.66787e-06
-4.21818e-07
-1.59725e-06
-4.64216e-07
-1.51968e-06
-5.01652e-07
-1.43584e-06
-5.33446e-07
-1.3465e-06
-5.58985e-07
-1.25257e-06
-5.77745e-07
-1.15501e-06
-5.89315e-07
-1.05492e-06
-5.93409e-07
-9.53427e-07
-5.89889e-07
-8.51728e-07
-5.78776e-07
-7.5104e-07
-5.60259e-07
-6.52577e-07
-5.34699e-07
-5.57521e-07
-5.02623e-07
-4.6699e-07
-4.6472e-07
-3.82009e-07
-4.21817e-07
-3.03481e-07
-3.7486e-07
-2.32162e-07
-3.24885e-07
-1.68643e-07
-2.72989e-07
-1.13332e-07
-2.20298e-07
-6.6451e-08
-1.67934e-07
-2.80247e-08
-1.16997e-07
2.11072e-09
-6.85427e-08
2.43032e-08
-2.35718e-08
3.90758e-08
1.69681e-08
4.7114e-08
5.21737e-08
4.92558e-08
8.11685e-08
4.64824e-08
1.03077e-07
3.99137e-08
1.16994e-07
3.081e-08
1.21956e-07
2.05827e-08
1.16907e-07
1.08132e-08
1.00679e-07
3.27979e-09
7.19729e-08
2.92734e-08
-3.74427e-09
8.92411e-09
-1.43423e-08
3.25066e-08
-3.11106e-08
5.89797e-08
-5.33938e-08
8.65319e-08
-8.06109e-08
1.1407e-07
-1.1228e-07
1.40963e-07
-1.48027e-07
1.66931e-07
-1.87583e-07
1.91943e-07
-2.30772e-07
2.16119e-07
-2.77492e-07
2.39654e-07
-3.27699e-07
2.62757e-07
-3.81379e-07
2.85607e-07
-4.38526e-07
3.0832e-07
-4.99129e-07
3.30934e-07
-5.63147e-07
3.53399e-07
-6.305e-07
3.75581e-07
-7.01056e-07
3.97264e-07
-7.74622e-07
4.18162e-07
-8.50943e-07
4.37929e-07
-9.29699e-07
4.56174e-07
-1.0105e-06
4.72475e-07
-1.09291e-06
4.86391e-07
-1.17641e-06
4.97479e-07
-1.26045e-06
5.05302e-07
-1.34443e-06
5.09445e-07
-1.42772e-06
5.09527e-07
-1.50967e-06
5.05209e-07
-1.58961e-06
4.96206e-07
-1.66686e-06
4.82295e-07
-1.74074e-06
4.63317e-07
-1.81061e-06
4.39189e-07
-1.87582e-06
4.099e-07
-1.93575e-06
3.75517e-07
-1.98981e-06
3.36186e-07
-2.03745e-06
2.92126e-07
-2.07814e-06
2.43634e-07
-2.11142e-06
1.91079e-07
-2.13685e-06
1.34901e-07
-2.15403e-06
7.56093e-08
-2.16263e-06
1.37763e-08
-2.16237e-06
-4.99776e-08
-2.15303e-06
-1.14952e-07
-2.13444e-06
-1.80407e-07
-2.10652e-06
-2.45557e-07
-2.06927e-06
-3.09578e-07
-2.02276e-06
-3.71612e-07
-1.96716e-06
-4.30785e-07
-1.90277e-06
-4.86214e-07
-1.82996e-06
-5.37024e-07
-1.74925e-06
-5.82366e-07
-1.66126e-06
-6.21433e-07
-1.56675e-06
-6.53491e-07
-1.46661e-06
-6.7789e-07
-1.36182e-06
-6.94099e-07
-1.25351e-06
-7.01724e-07
-1.14286e-06
-7.00533e-07
-1.03117e-06
-6.90471e-07
-9.19751e-07
-6.71679e-07
-8.09951e-07
-6.44498e-07
-7.03102e-07
-6.09473e-07
-6.00482e-07
-5.6734e-07
-5.03286e-07
-5.19013e-07
-4.12587e-07
-4.65559e-07
-3.29306e-07
-4.08166e-07
-2.54187e-07
-3.48108e-07
-1.87779e-07
-2.86706e-07
-1.30417e-07
-2.25296e-07
-8.22241e-08
-1.6519e-07
-4.31078e-08
-1.07659e-07
-1.27681e-08
-5.39115e-08
9.29165e-09
-5.09173e-09
2.37516e-08
3.77137e-08
3.14617e-08
7.34584e-08
3.34296e-08
1.01109e-07
3.0812e-08
1.19612e-07
2.49121e-08
1.27856e-07
1.71825e-08
1.24636e-07
9.23467e-09
1.08627e-07
2.85067e-09
7.83569e-08
3.21241e-08
-4.56052e-09
1.34846e-08
-1.72493e-08
4.51954e-08
-3.70818e-08
7.88122e-08
-6.31591e-08
1.12609e-07
-9.4713e-08
1.45624e-07
-1.31125e-07
1.77375e-07
-1.71927e-07
2.07733e-07
-2.16791e-07
2.36807e-07
-2.65509e-07
2.64836e-07
-3.17964e-07
2.92109e-07
-3.74106e-07
3.18899e-07
-4.33919e-07
3.45421e-07
-4.97401e-07
3.71801e-07
-5.64532e-07
3.98065e-07
-6.35264e-07
4.24131e-07
-7.095e-07
4.49818e-07
-7.87086e-07
4.7485e-07
-8.67803e-07
4.98879e-07
-9.51363e-07
5.21489e-07
-1.03741e-06
5.42222e-07
-1.12553e-06
5.6059e-07
-1.21523e-06
5.76091e-07
-1.30597e-06
5.88225e-07
-1.39718e-06
5.9651e-07
-1.48823e-06
6.00493e-07
-1.57846e-06
5.99763e-07
-1.66722e-06
5.93964e-07
-1.75381e-06
5.82801e-07
-1.83757e-06
5.66047e-07
-1.9178e-06
5.43552e-07
-1.99386e-06
5.15245e-07
-2.06509e-06
4.81134e-07
-2.13088e-06
4.41308e-07
-2.19063e-06
3.95939e-07
-2.24379e-06
3.45278e-07
-2.28981e-06
2.89652e-07
-2.32819e-06
2.29466e-07
-2.35849e-06
1.65195e-07
-2.38027e-06
9.73891e-08
-2.39315e-06
2.66624e-08
-2.39682e-06
-4.63102e-08
-2.39099e-06
-1.20783e-07
-2.37544e-06
-1.95956e-07
-2.35002e-06
-2.70977e-07
-2.31465e-06
-3.44949e-07
-2.26933e-06
-4.16932e-07
-2.21415e-06
-4.85958e-07
-2.14933e-06
-5.51042e-07
-2.07516e-06
-6.11194e-07
-1.99208e-06
-6.65442e-07
-1.90067e-06
-7.12849e-07
-1.80162e-06
-7.52538e-07
-1.69579e-06
-7.83721e-07
-1.58416e-06
-8.05723e-07
-1.46787e-06
-8.18016e-07
-1.34816e-06
-8.20244e-07
-1.22638e-06
-8.1225e-07
-1.10396e-06
-7.94094e-07
-9.82391e-07
-7.66071e-07
-8.63149e-07
-7.28716e-07
-7.47694e-07
-6.82795e-07
-6.37411e-07
-6.29296e-07
-5.33569e-07
-5.69401e-07
-4.37283e-07
-5.04452e-07
-3.49479e-07
-4.35911e-07
-2.70872e-07
-3.65314e-07
-2.01941e-07
-2.94226e-07
-1.42927e-07
-2.24204e-07
-9.38276e-08
-1.56758e-07
-5.44055e-08
-9.33336e-08
-2.41999e-08
-3.52974e-08
-2.54259e-09
1.60565e-08
1.14245e-08
5.94913e-08
1.87335e-08
9.37999e-08
2.05769e-08
1.17768e-07
1.8299e-08
1.30133e-07
1.33914e-08
1.29544e-07
7.4923e-09
1.14526e-07
2.38619e-09
8.3463e-08
3.45103e-08
-5.40373e-09
1.88884e-08
-2.02433e-08
6.0035e-08
-4.32165e-08
1.01785e-07
-7.31697e-08
1.42562e-07
-1.0914e-07
1.81594e-07
-1.50367e-07
2.18602e-07
-1.96287e-07
2.53653e-07
-2.46511e-07
2.87032e-07
-3.00798e-07
3.19123e-07
-3.59017e-07
3.50327e-07
-4.21109e-07
3.80991e-07
-4.87059e-07
4.11371e-07
-5.56862e-07
4.41604e-07
-6.30493e-07
4.71696e-07
-7.07893e-07
5.01531e-07
-7.88948e-07
5.30873e-07
-8.73482e-07
5.59385e-07
-9.6125e-07
5.86646e-07
-1.05193e-06
6.12172e-07
-1.14515e-06
6.35435e-07
-1.24044e-06
6.55881e-07
-1.33729e-06
6.72947e-07
-1.43515e-06
6.86083e-07
-1.53341e-06
6.94763e-07
-1.63141e-06
6.985e-07
-1.72851e-06
6.96861e-07
-1.82402e-06
6.89474e-07
-1.91726e-06
6.76036e-07
-2.00753e-06
6.56325e-07
-2.09418e-06
6.30197e-07
-2.17653e-06
5.97594e-07
-2.25394e-06
5.58543e-07
-2.32578e-06
5.13153e-07
-2.39146e-06
4.61621e-07
-2.45041e-06
4.04222e-07
-2.50207e-06
3.41312e-07
-2.54593e-06
2.73325e-07
-2.5815e-06
2.00769e-07
-2.60834e-06
1.24226e-07
-2.62602e-06
4.43472e-08
-2.63418e-06
-3.81483e-08
-2.63249e-06
-1.22474e-07
-2.62067e-06
-2.07778e-07
-2.5985e-06
-2.93152e-07
-2.56581e-06
-3.77631e-07
-2.52255e-06
-4.60201e-07
-2.4687e-06
-5.39808e-07
-2.40437e-06
-6.15367e-07
-2.32979e-06
-6.85777e-07
-2.24529e-06
-7.4994e-07
-2.15136e-06
-8.06781e-07
-2.04862e-06
-8.55273e-07
-1.93788e-06
-8.94468e-07
-1.82007e-06
-9.23531e-07
-1.69632e-06
-9.41769e-07
-1.56789e-06
-9.48673e-07
-1.43619e-06
-9.43945e-07
-1.30276e-06
-9.27532e-07
-1.16918e-06
-8.99645e-07
-1.03712e-06
-8.60775e-07
-9.08225e-07
-8.11692e-07
-7.84084e-07
-7.53436e-07
-6.66193e-07
-6.87293e-07
-5.5589e-07
-6.14755e-07
-4.54321e-07
-5.3748e-07
-3.62401e-07
-4.57235e-07
-2.80787e-07
-3.75841e-07
-2.09867e-07
-2.95124e-07
-1.49753e-07
-2.16872e-07
-1.00291e-07
-1.42796e-07
-6.10697e-08
-7.4519e-08
-3.14415e-08
-1.35717e-08
-1.05452e-08
3.8595e-08
2.67395e-09
8.05808e-08
9.44441e-09
1.10998e-07
1.11528e-08
1.28425e-07
9.33186e-09
1.31365e-07
5.65125e-09
1.18207e-07
1.90631e-09
8.72079e-08
3.64166e-08
-6.26642e-09
2.51548e-08
-2.32957e-08
7.70642e-08
-4.94546e-08
1.27944e-07
-8.33259e-08
1.76434e-07
-1.23746e-07
2.22014e-07
-1.69811e-07
2.64666e-07
-2.2086e-07
3.04702e-07
-2.76444e-07
3.42616e-07
-3.36288e-07
3.78967e-07
-4.00245e-07
4.14283e-07
-4.6825e-07
4.48997e-07
-5.40286e-07
4.83408e-07
-6.16343e-07
5.17661e-07
-6.96392e-07
5.51745e-07
-7.80359e-07
5.85498e-07
-8.68115e-07
6.18628e-07
-9.5946e-07
6.5073e-07
-1.05412e-06
6.8131e-07
-1.15176e-06
7.09811e-07
-1.25196e-06
7.35633e-07
-1.35424e-06
7.58159e-07
-1.45806e-06
7.76769e-07
-1.56284e-06
7.90864e-07
-1.66796e-06
7.99878e-07
-1.77275e-06
8.03297e-07
-1.87656e-06
8.00666e-07
-1.97869e-06
7.91602e-07
-2.07845e-06
7.758e-07
-2.17516e-06
7.53039e-07
-2.26815e-06
7.23186e-07
-2.35675e-06
6.86195e-07
-2.44032e-06
6.4211e-07
-2.51823e-06
5.91061e-07
-2.58987e-06
5.33265e-07
-2.65467e-06
4.69021e-07
-2.71207e-06
3.98712e-07
-2.76154e-06
3.22795e-07
-2.80258e-06
2.41809e-07
-2.83472e-06
1.56362e-07
-2.85751e-06
6.71389e-08
-2.87055e-06
-2.51074e-08
-2.87347e-06
-1.19556e-07
-2.86594e-06
-2.15313e-07
-2.84766e-06
-3.11422e-07
-2.81843e-06
-4.06865e-07
-2.77807e-06
-5.00563e-07
-2.72649e-06
-5.91386e-07
-2.66369e-06
-6.78161e-07
-2.58979e-06
-7.5968e-07
-2.50501e-06
-8.34724e-07
-2.40971e-06
-9.02078e-07
-2.30442e-06
-9.60559e-07
-2.18984e-06
-1.00905e-06
-2.06685e-06
-1.04653e-06
-1.93651e-06
-1.07211e-06
-1.80008e-06
-1.0851e-06
-1.65899e-06
-1.08503e-06
-1.51484e-06
-1.07168e-06
-1.36934e-06
-1.04514e-06
-1.22432e-06
-1.0058e-06
-1.08159e-06
-9.54413e-07
-9.43005e-07
-8.92026e-07
-8.10287e-07
-8.2001e-07
-6.85043e-07
-7.4e-07
-5.68674e-07
-6.53849e-07
-4.62338e-07
-5.6357e-07
-3.66913e-07
-4.71265e-07
-2.82973e-07
-3.79064e-07
-2.10779e-07
-2.89066e-07
-1.50285e-07
-2.0329e-07
-1.01148e-07
-1.23655e-07
-6.27577e-08
-5.19623e-08
-3.42554e-08
1.00927e-08
-1.45666e-08
6.0892e-08
-2.42596e-09
9.8857e-08
3.59929e-09
1.224e-07
5.09004e-09
1.29874e-07
3.75763e-09
1.19539e-07
1.4252e-09
8.95404e-08
3.78418e-08
-7.13987e-09
3.22946e-08
-2.63752e-08
9.62996e-08
-5.57314e-08
1.57301e-07
-9.35218e-08
2.14224e-07
-1.3838e-07
2.66872e-07
-1.89256e-07
3.15543e-07
-2.45394e-07
3.60839e-07
-3.06284e-07
4.03507e-07
-3.71619e-07
4.44302e-07
-4.41233e-07
4.83898e-07
-5.15059e-07
5.22822e-07
-5.93074e-07
5.61422e-07
-6.75263e-07
5.9985e-07
-7.61588e-07
6.3807e-07
-8.51963e-07
6.75874e-07
-9.4624e-07
7.12906e-07
-1.0442e-06
7.48689e-07
-1.14554e-06
7.82654e-07
-1.2499e-06
8.14171e-07
-1.35684e-06
8.42569e-07
-1.46585e-06
8.67167e-07
-1.57637e-06
8.87292e-07
-1.68781e-06
9.02299e-07
-1.79952e-06
9.11588e-07
-1.91083e-06
9.14617e-07
-2.02108e-06
9.10915e-07
-2.12957e-06
9.00091e-07
-2.23561e-06
8.81838e-07
-2.33851e-06
8.55941e-07
-2.4376e-06
8.22275e-07
-2.53221e-06
7.80808e-07
-2.62171e-06
7.31602e-07
-2.70545e-06
6.74806e-07
-2.78284e-06
6.10659e-07
-2.85331e-06
5.39484e-07
-2.91628e-06
4.61687e-07
-2.97124e-06
3.77753e-07
-3.01767e-06
2.88244e-07
-3.05511e-06
1.93795e-07
-3.08308e-06
9.51167e-08
-3.10118e-06
-7.00991e-09
-3.109e-06
-1.1174e-07
-3.10617e-06
-2.18145e-07
-3.09235e-06
-3.25238e-07
-3.06726e-06
-4.31958e-07
-3.03064e-06
-5.3718e-07
-2.98232e-06
-6.39713e-07
-2.92217e-06
-7.38308e-07
-2.85018e-06
-8.31668e-07
-2.76644e-06
-9.1846e-07
-2.67118e-06
-9.97337e-07
-2.56479e-06
-1.06696e-06
-2.44781e-06
-1.12602e-06
-2.32101e-06
-1.17332e-06
-2.18537e-06
-1.20775e-06
-2.04209e-06
-1.22839e-06
-1.89257e-06
-1.23455e-06
-1.73845e-06
-1.22581e-06
-1.58152e-06
-1.20206e-06
-1.42374e-06
-1.16358e-06
-1.26714e-06
-1.11101e-06