/*--------------------------------*- C++ -*----------------------------------*\
  =========                 |
  \\      /  F ield         | OpenFOAM: The Open Source CFD Toolbox
   \\    /   O peration     | Website:  https://openfoam.org
    \\  /    A nd           | Version:  7
     \\/     M anipulation  |
\*---------------------------------------------------------------------------*/
FoamFile
{
    version     2.0;
    format      ascii;
    class       volVectorField;
    location    "0.675";
    object      U;
}
// * * * * * * * * * * * * * * * * * * * * * * * * * * * * * * * * * * * * * //

dimensions      [0 1 -1 0 0 0 0];

internalField   nonuniform List<vector> 
6400
(
(9.58505e-06 -9.8219e-06 0)
(3.24994e-05 -1.4166e-05 0)
(5.19417e-05 -9.73463e-06 0)
(5.35409e-05 -2.1258e-06 0)
(3.16619e-05 6.16316e-06 0)
(-1.38844e-05 1.3991e-05 0)
(-8.15094e-05 2.0932e-05 0)
(-0.000168817 2.68487e-05 0)
(-0.000273157 3.17637e-05 0)
(-0.000391887 3.57676e-05 0)
(-0.000522543 3.89735e-05 0)
(-0.000662912 4.14983e-05 0)
(-0.000811053 4.34508e-05 0)
(-0.000965295 4.4931e-05 0)
(-0.00112422 4.60287e-05 0)
(-0.00128663 4.68172e-05 0)
(-0.00145153 4.73537e-05 0)
(-0.00161804 4.76822e-05 0)
(-0.00178544 4.78347e-05 0)
(-0.00195304 4.78307e-05 0)
(-0.00212023 4.76785e-05 0)
(-0.00228641 4.73776e-05 0)
(-0.00245097 4.69199e-05 0)
(-0.00261325 4.62908e-05 0)
(-0.00277256 4.54703e-05 0)
(-0.00292817 4.44345e-05 0)
(-0.00307923 4.31571e-05 0)
(-0.00322485 4.16109e-05 0)
(-0.00336406 3.9769e-05 0)
(-0.0034958 3.76059e-05 0)
(-0.00361897 3.50974e-05 0)
(-0.00373238 3.22233e-05 0)
(-0.00383481 2.89676e-05 0)
(-0.00392502 2.53202e-05 0)
(-0.00400174 2.12779e-05 0)
(-0.00406374 1.68444e-05 0)
(-0.0041098 1.2032e-05 0)
(-0.0041388 6.86241e-06 0)
(-0.00414968 1.36675e-06 0)
(-0.00414153 -4.41489e-06 0)
(-0.00411359 -1.04303e-05 0)
(-0.00406527 -1.66188e-05 0)
(-0.00399623 -2.29101e-05 0)
(-0.00390633 -2.92243e-05 0)
(-0.00379573 -3.54746e-05 0)
(-0.00366485 -4.15679e-05 0)
(-0.00351443 -4.74068e-05 0)
(-0.00334549 -5.28914e-05 0)
(-0.00315939 -5.79223e-05 0)
(-0.00295777 -6.24026e-05 0)
(-0.00274258 -6.62408e-05 0)
(-0.00251602 -6.93535e-05 0)
(-0.00228054 -7.16679e-05 0)
(-0.00203879 -7.31246e-05 0)
(-0.00179358 -7.36788e-05 0)
(-0.00154783 -7.33028e-05 0)
(-0.00130451 -7.19872e-05 0)
(-0.00106662 -6.97414e-05 0)
(-0.000837064 -6.65933e-05 0)
(-0.00061866 -6.2589e-05 0)
(-0.000414046 -5.7792e-05 0)
(-0.000225645 -5.22817e-05 0)
(-5.56046e-05 -4.61528e-05 0)
(9.42381e-05 -3.95134e-05 0)
(0.000222373 -3.24571e-05 0)
(0.000327687 -2.51349e-05 0)
(0.000409481 -1.76607e-05 0)
(0.000467464 -1.01676e-05 0)
(0.000501799 -2.79578e-06 0)
(0.000513128 4.30619e-06 0)
(0.000502601 1.09725e-05 0)
(0.000471927 1.70217e-05 0)
(0.000423455 2.22288e-05 0)
(0.000360283 2.63033e-05 0)
(0.000286437 2.88486e-05 0)
(0.000207138 2.93109e-05 0)
(0.000129085 2.69328e-05 0)
(6.0697e-05 2.0704e-05 0)
(1.26258e-05 9.79114e-06 0)
(-2.418e-06 -2.38394e-06 0)
(1.40134e-05 -3.2552e-05 0)
(3.9256e-05 -3.93059e-05 0)
(4.33284e-05 -1.35213e-05 0)
(3.12973e-06 2.63487e-05 0)
(-9.16311e-05 7.06542e-05 0)
(-0.000242965 0.000114174 0)
(-0.000448705 0.000154287 0)
(-0.000704394 0.000189812 0)
(-0.00100444 0.000220406 0)
(-0.0013429 0.000246181 0)
(-0.00171391 0.000267489 0)
(-0.00211197 0.000284792 0)
(-0.00253212 0.000298584 0)
(-0.00296992 0.000309352 0)
(-0.00342149 0.000317544 0)
(-0.00388345 0.000323547 0)
(-0.00435287 0.000327684 0)
(-0.00482719 0.000330209 0)
(-0.00530411 0.000331306 0)
(-0.00578156 0.000331098 0)
(-0.00625755 0.000329647 0)
(-0.00673019 0.000326961 0)
(-0.00719754 0.000323005 0)
(-0.00765764 0.000317706 0)
(-0.00810837 0.000310961 0)
(-0.0085475 0.000302646 0)
(-0.00897265 0.000292622 0)
(-0.00938124 0.000280745 0)
(-0.00977051 0.000266873 0)
(-0.0101376 0.000250872 0)
(-0.0104793 0.000232623 0)
(-0.0107926 0.00021203 0)
(-0.0110741 0.000189027 0)
(-0.0113205 0.000163581 0)
(-0.0115285 0.000135704 0)
(-0.0116948 0.000105451 0)
(-0.0118164 7.29286e-05 0)
(-0.0118903 3.82986e-05 0)
(-0.0119139 1.77944e-06 0)
(-0.011885 -3.63505e-05 0)
(-0.0118016 -7.57573e-05 0)
(-0.0116624 -0.000116049 0)
(-0.0114668 -0.00015678 0)
(-0.0112145 -0.000197457 0)
(-0.0109061 -0.000237544 0)
(-0.010543 -0.000276474 0)
(-0.0101272 -0.000313661 0)
(-0.00966162 -0.000348506 0)
(-0.00914998 -0.000380417 0)
(-0.00859669 -0.00040882 0)
(-0.00800695 -0.000433176 0)
(-0.00738662 -0.000452995 0)
(-0.00674219 -0.000467849 0)
(-0.00608062 -0.00047739 0)
(-0.00540933 -0.000481356 0)
(-0.00473597 -0.000479584 0)
(-0.00406837 -0.000472019 0)
(-0.00341436 -0.000458712 0)
(-0.00278162 -0.000439827 0)
(-0.00217756 -0.000415637 0)
(-0.00160914 -0.000386519 0)
(-0.00108278 -0.000352945 0)
(-0.000604212 -0.000315478 0)
(-0.000178316 -0.000274761 0)
(0.000190844 -0.000231496 0)
(0.000500248 -0.000186438 0)
(0.000748001 -0.00014041 0)
(0.000933291 -9.42693e-05 0)
(0.00105654 -4.89247e-05 0)
(0.00111948 -5.34578e-06 0)
(0.00112522 3.54133e-05 0)
(0.00107837 7.21865e-05 0)
(0.000985216 0.000103632 0)
(0.000853871 0.00012816 0)
(0.000694578 0.000143829 0)
(0.000519976 0.000148272 0)
(0.000345117 0.000138717 0)
(0.000187144 0.000112212 0)
(6.69057e-05 6.71839e-05 0)
(9.58551e-06 1.25104e-05 0)
(1.00857e-05 -5.25143e-05 0)
(1.40149e-05 -4.33944e-05 0)
(-2.86429e-05 2.84138e-05 0)
(-0.00013957 0.000130291 0)
(-0.00032945 0.000243201 0)
(-0.00060088 0.000355647 0)
(-0.00095136 0.000461043 0)
(-0.00137526 0.000555999 0)
(-0.00186523 0.000639126 0)
(-0.00241316 0.000710247 0)
(-0.00301083 0.000769896 0)
(-0.0036504 0.000818994 0)
(-0.00432453 0.000858633 0)
(-0.00502659 0.000889947 0)
(-0.00575065 0.000914007 0)
(-0.00649142 0.000931774 0)
(-0.00724424 0.00094406 0)
(-0.00800494 0.000951518 0)
(-0.00876974 0.000954632 0)
(-0.00953514 0.000953729 0)
(-0.0102978 0.000948981 0)
(-0.0110546 0.000940429 0)
(-0.0118022 0.000927993 0)
(-0.0125373 0.000911498 0)
(-0.0132564 0.000890693 0)
(-0.0139559 0.000865267 0)
(-0.0146319 0.000834877 0)
(-0.0152803 0.000799166 0)
(-0.0158967 0.000757782 0)
(-0.0164765 0.0007104 0)
(-0.017015 0.000656737 0)
(-0.0175072 0.000596576 0)
(-0.017948 0.00052978 0)
(-0.0183325 0.00045631 0)
(-0.0186556 0.000376237 0)
(-0.0189124 0.00028976 0)
(-0.0190982 0.000197214 0)
(-0.0192089 9.90786e-05 0)
(-0.0192404 -4.01325e-06 0)
(-0.0191896 -0.000111274 0)
(-0.0190539 -0.000221766 0)
(-0.0188313 -0.000334405 0)
(-0.0185209 -0.000447966 0)
(-0.0181229 -0.000561104 0)
(-0.0176381 -0.000672369 0)
(-0.0170688 -0.000780235 0)
(-0.0164183 -0.000883122 0)
(-0.0156912 -0.000979435 0)
(-0.014893 -0.00106759 0)
(-0.0140307 -0.00114607 0)
(-0.0131122 -0.00121345 0)
(-0.0121463 -0.00126841 0)
(-0.0111429 -0.00130983 0)
(-0.0101124 -0.0013368 0)
(-0.00906619 -0.0013486 0)
(-0.0080157 -0.00134482 0)
(-0.00697276 -0.00132529 0)
(-0.00594918 -0.00129015 0)
(-0.0049566 -0.00123983 0)
(-0.00400622 -0.00117505 0)
(-0.00310864 -0.0010968 0)
(-0.00227362 -0.00100636 0)
(-0.0015099 -0.000905205 0)
(-0.00082504 -0.000795078 0)
(-0.000225245 -0.000677909 0)
(0.000284774 -0.000555738 0)
(0.000701964 -0.00043082 0)
(0.001025 -0.000305534 0)
(0.00125442 -0.000182403 0)
(0.00139274 -6.41125e-05 0)
(0.00144457 4.64471e-05 0)
(0.00141677 0.00014611 0)
(0.00131859 0.000231356 0)
(0.00116189 0.000298195 0)
(0.000961303 0.000342072 0)
(0.000734436 0.000357863 0)
(0.00050153 0.000340141 0)
(0.000284818 0.000283962 0)
(0.000112059 0.000187306 0)
(2.0362e-05 6.01335e-05 0)
(2.5349e-06 -5.44865e-05 0)
(-2.70332e-05 -2.32808e-06 0)
(-0.000134927 0.000140144 0)
(-0.000335528 0.000327678 0)
(-0.000636669 0.000532472 0)
(-0.0010401 0.000736638 0)
(-0.0015424 0.000929248 0)
(-0.00213679 0.00110425 0)
(-0.00281457 0.00125885 0)
(-0.00356606 0.00139231 0)
(-0.00438137 0.00150523 0)
(-0.00525086 0.00159896 0)
(-0.00616544 0.00167523 0)
(-0.00711671 0.00173591 0)
(-0.00809707 0.00178281 0)
(-0.00909962 0.00181757 0)
(-0.0101182 0.00184162 0)
(-0.0111471 0.00185612 0)
(-0.0121814 0.00186192 0)
(-0.013216 0.00185961 0)
(-0.0142465 0.00184952 0)
(-0.0152683 0.00183173 0)
(-0.0162769 0.0018061 0)
(-0.0172677 0.00177234 0)
(-0.018236 0.00173001 0)
(-0.0191767 0.00167857 0)
(-0.0200846 0.00161741 0)
(-0.020954 0.00154592 0)
(-0.0217793 0.00146349 0)
(-0.0225543 0.00136955 0)
(-0.0232727 0.00126365 0)
(-0.0239281 0.00114543 0)
(-0.0245138 0.0010147 0)
(-0.0250235 0.00087144 0)
(-0.0254505 0.000715856 0)
(-0.0257888 0.000548377 0)
(-0.0260323 0.000369686 0)
(-0.0261758 0.000180736 0)
(-0.0262143 -1.72434e-05 0)
(-0.0261439 -0.000222742 0)
(-0.0259613 -0.000433973 0)
(-0.0256643 -0.000648884 0)
(-0.0252519 -0.000865177 0)
(-0.0247244 -0.00108034 0)
(-0.0240832 -0.00129166 0)
(-0.0233313 -0.00149633 0)
(-0.0224732 -0.00169141 0)
(-0.0215147 -0.00187395 0)
(-0.0204632 -0.00204107 0)
(-0.0193276 -0.00218994 0)
(-0.0181179 -0.00231794 0)
(-0.0168458 -0.00242268 0)
(-0.0155236 -0.00250209 0)
(-0.014165 -0.00255446 0)
(-0.0127843 -0.00257852 0)
(-0.0113962 -0.00257346 0)
(-0.0100159 -0.00253898 0)
(-0.00865856 -0.00247532 0)
(-0.00733911 -0.00238323 0)
(-0.00607199 -0.00226403 0)
(-0.00487088 -0.00211953 0)
(-0.00374845 -0.00195207 0)
(-0.00271607 -0.0017644 0)
(-0.00178364 -0.00155972 0)
(-0.000959323 -0.00134159 0)
(-0.000249386 -0.00111391 0)
(0.000341994 -0.000880846 0)
(0.000812875 -0.000646882 0)
(0.0011637 -0.000416768 0)
(0.00139745 -0.000195546 0)
(0.00151975 1.13985e-05 0)
(0.00153904 0.00019825 0)
(0.0014667 0.000358675 0)
(0.00131717 0.000485714 0)
(0.00110814 0.000571727 0)
(0.000860544 0.000608489 0)
(0.000598145 0.000587645 0)
(0.000346915 0.000501753 0)
(0.00014048 0.000346708 0)
(2.67477e-05 0.000128377 0)
(-6.18208e-06 -3.2122e-05 0)
(-7.51111e-05 9.69955e-05 0)
(-0.000259057 0.000336594 0)
(-0.000561432 0.000632144 0)
(-0.000984998 0.000948684 0)
(-0.00152938 0.00126279 0)
(-0.00218948 0.00155957 0)
(-0.00295708 0.00183037 0)
(-0.00382211 0.0020709 0)
(-0.00477362 0.00227981 0)
(-0.00580035 0.00245765 0)
(-0.00689129 0.00260617 0)
(-0.00803595 0.00272771 0)
(-0.00922455 0.00282488 0)
(-0.0104481 0.00290029 0)
(-0.0116985 0.00295632 0)
(-0.0129681 0.00299505 0)
(-0.0142501 0.00301817 0)
(-0.0155381 0.00302697 0)
(-0.0168261 0.00302233 0)
(-0.0181084 0.00300474 0)
(-0.0193791 0.00297431 0)
(-0.0206327 0.00293088 0)
(-0.0218633 0.00287398 0)
(-0.023065 0.00280298 0)
(-0.0242313 0.00271707 0)
(-0.0253559 0.00261536 0)
(-0.0264318 0.00249694 0)
(-0.027452 0.00236093 0)
(-0.0284089 0.00220652 0)
(-0.029295 0.00203305 0)
(-0.0301024 0.00184006 0)
(-0.0308233 0.00162731 0)
(-0.0314499 0.00139488 0)
(-0.0319746 0.00114315 0)
(-0.0323898 0.000872866 0)
(-0.0326887 0.000585185 0)
(-0.032865 0.000281662 0)
(-0.032913 -3.57195e-05 0)
(-0.0328281 -0.000364546 0)
(-0.0326065 -0.000701981 0)
(-0.0322458 -0.00104479 0)
(-0.031745 -0.00138936 0)
(-0.0311045 -0.00173176 0)
(-0.0303261 -0.00206778 0)
(-0.0294134 -0.00239302 0)
(-0.0283719 -0.00270294 0)
(-0.0272086 -0.00299299 0)
(-0.0259322 -0.00325865 0)
(-0.0245533 -0.00349561 0)
(-0.0230838 -0.00369978 0)
(-0.0215374 -0.00386748 0)
(-0.019929 -0.0039955 0)
(-0.0182745 -0.00408118 0)
(-0.0165908 -0.00412253 0)
(-0.0148956 -0.00411829 0)
(-0.0132068 -0.00406794 0)
(-0.0115424 -0.00397183 0)
(-0.00992022 -0.00383108 0)
(-0.00835757 -0.00364769 0)
(-0.00687083 -0.00342444 0)
(-0.00547524 -0.00316489 0)
(-0.00418458 -0.00287333 0)
(-0.00301087 -0.0025547 0)
(-0.00196414 -0.00221455 0)
(-0.00105219 -0.00185896 0)
(-0.000280325 -0.00149449 0)
(0.000348735 -0.00112815 0)
(0.000835121 -0.000767386 0)
(0.00118194 -0.000420082 0)
(0.00139539 -9.46059e-05 0)
(0.00148493 0.000200119 0)
(0.00146333 0.000454531 0)
(0.00134685 0.000658349 0)
(0.00115522 0.000800568 0)
(0.000911767 0.000869614 0)
(0.000642905 0.000853835 0)
(0.000377721 0.000742489 0)
(0.000154701 0.000527601 0)
(2.97762e-05 0.000207797 0)
(-1.50407e-05 1.65743e-05 0)
(-0.000125704 0.000260529 0)
(-0.000391309 0.000626162 0)
(-0.000802493 0.00105291 0)
(-0.00135554 0.00150055 0)
(-0.00204695 0.00194134 0)
(-0.00286924 0.00235713 0)
(-0.00381229 0.00273708 0)
(-0.00486455 0.00307558 0)
(-0.00601374 0.00337072 0)
(-0.00724743 0.00362305 0)
(-0.00855344 0.00383469 0)
(-0.00992015 0.00400861 0)
(-0.0113367 0.00414818 0)
(-0.0127929 0.00425679 0)
(-0.0142796 0.00433757 0)
(-0.0157881 0.00439329 0)
(-0.0173105 0.0044262 0)
(-0.0188394 0.00443802 0)
(-0.0203676 0.00442993 0)
(-0.0218884 0.00440259 0)
(-0.0233949 0.00435615 0)
(-0.0248804 0.00429037 0)
(-0.0263379 0.00420463 0)
(-0.0277604 0.00409807 0)
(-0.0291403 0.00396959 0)
(-0.0304701 0.00381801 0)
(-0.0317417 0.00364209 0)
(-0.0329467 0.00344067 0)
(-0.0340765 0.00321269 0)
(-0.0351223 0.0029573 0)
(-0.0360751 0.00267394 0)
(-0.0369259 0.00236239 0)
(-0.0376657 0.00202282 0)
(-0.0382858 0.00165588 0)
(-0.0387777 0.00126274 0)
(-0.0391337 0.000845086 0)
(-0.0393466 0.000405213 0)
(-0.0394099 -5.4006e-05 0)
(-0.0393186 -0.000529103 0)
(-0.0390683 -0.00101602 0)
(-0.0386566 -0.00151016 0)
(-0.0380821 -0.0020064 0)
(-0.0373453 -0.00249918 0)
(-0.0364485 -0.00298256 0)
(-0.0353957 -0.00345035 0)
(-0.034193 -0.00389617 0)
(-0.0328484 -0.00431362 0)
(-0.0313718 -0.00469637 0)
(-0.0297749 -0.00503834 0)
(-0.0280715 -0.0053338 0)
(-0.0262769 -0.00557758 0)
(-0.0244077 -0.00576514 0)
(-0.0224822 -0.00589272 0)
(-0.0205196 -0.00595749 0)
(-0.0185398 -0.00595761 0)
(-0.0165633 -0.00589231 0)
(-0.0146106 -0.00576197 0)
(-0.0127021 -0.00556813 0)
(-0.0108576 -0.00531351 0)
(-0.00909608 -0.00500194 0)
(-0.00743516 -0.00463839 0)
(-0.00589086 -0.00422882 0)
(-0.00447728 -0.00378019 0)
(-0.0032063 -0.00330028 0)
(-0.00208725 -0.0027977 0)
(-0.00112673 -0.00228172 0)
(-0.000328343 -0.00176227 0)
(0.00030747 -0.0012499 0)
(0.000783627 -0.00075571 0)
(0.00110652 -0.000291456 0)
(0.00128613 0.000130462 0)
(0.00133614 0.000496917 0)
(0.00127396 0.000794007 0)
(0.00112082 0.00100708 0)
(0.000901814 0.0011209 0)
(0.000645478 0.00112005 0)
(0.00038356 0.000989707 0)
(0.000158271 0.000716807 0)
(3.05814e-05 0.000291615 0)
(-2.36705e-05 9.18643e-05 0)
(-0.00017658 0.000490679 0)
(-0.000526105 0.00101305 0)
(-0.00104955 0.00159509 0)
(-0.00173595 0.00219318 0)
(-0.00257796 0.00277662 0)
(-0.00356513 0.00332494 0)
(-0.00468501 0.00382569 0)
(-0.00592431 0.00427235 0)
(-0.00726936 0.00466266 0)
(-0.00870654 0.00499729 0)
(-0.0102226 0.0052788 0)
(-0.011805 0.00551083 0)
(-0.0134419 0.00569753 0)
(-0.0151223 0.00584306 0)
(-0.016836 0.00595134 0)
(-0.0185735 0.00602581 0)
(-0.020326 0.00606928 0)
(-0.0220851 0.0060839 0)
(-0.0238428 0.00607115 0)
(-0.0255914 0.00603183 0)
(-0.0273231 0.00596613 0)
(-0.0290302 0.00587372 0)
(-0.0307048 0.00575381 0)
(-0.0323387 0.00560526 0)
(-0.0339235 0.0054267 0)
(-0.0354504 0.0052166 0)
(-0.0369104 0.00497343 0)
(-0.0382941 0.00469569 0)
(-0.0395917 0.0043821 0)
(-0.0407933 0.00403163 0)
(-0.0418889 0.00364362 0)
(-0.0428684 0.00321789 0)
(-0.0437217 0.00275478 0)
(-0.0444393 0.00225525 0)
(-0.0450118 0.00172093 0)
(-0.0454304 0.00115416 0)
(-0.0456871 0.000558042 0)
(-0.0457751 -6.35374e-05 0)
(-0.0456883 -0.000705932 0)
(-0.0454222 -0.00136373 0)
(-0.0449738 -0.00203081 0)
(-0.0443416 -0.00270038 0)
(-0.0435262 -0.00336508 0)
(-0.0425297 -0.00401707 0)
(-0.0413567 -0.00464816 0)
(-0.0400136 -0.00524993 0)
(-0.038509 -0.00581393 0)
(-0.0368538 -0.00633182 0)
(-0.0350607 -0.00679556 0)
(-0.0331448 -0.00719759 0)
(-0.0311226 -0.00753103 0)
(-0.0290128 -0.00778984 0)
(-0.0268351 -0.00796901 0)
(-0.0246109 -0.00806471 0)
(-0.0223622 -0.00807441 0)
(-0.0201117 -0.00799699 0)
(-0.0178823 -0.00783283 0)
(-0.0156968 -0.00758384 0)
(-0.0135775 -0.00725347 0)
(-0.0115456 -0.00684669 0)
(-0.00962124 -0.00636993 0)
(-0.00782256 -0.00583103 0)
(-0.00616581 -0.0052391 0)
(-0.00466474 -0.00460443 0)
(-0.00333039 -0.00393838 0)
(-0.00217074 -0.00325326 0)
(-0.00119052 -0.00256223 0)
(-0.000390961 -0.00187925 0)
(0.00023037 -0.00121904 0)
(0.000679716 -0.00059703 0)
(0.000967234 -2.94375e-05 0)
(0.00110707 0.00046674 0)
(0.00111742 0.000873691 0)
(0.00102056 0.00117282 0)
(0.000842964 0.00134488 0)
(0.000614918 0.00137026 0)
(0.000370386 0.00122945 0)
(0.000154219 0.000903704 0)
(2.99772e-05 0.000375004 0)
(-3.19471e-05 0.000193327 0)
(-0.000226664 0.00078787 0)
(-0.000660376 0.00149877 0)
(-0.00129712 0.00226092 0)
(-0.00211838 0.00302901 0)
(-0.00311254 0.00377073 0)
(-0.00426571 0.00446429 0)
(-0.0055628 0.00509637 0)
(-0.0069885 0.00566005 0)
(-0.00852762 0.00615306 0)
(-0.0101653 0.00657642 0)
(-0.0118873 0.00693327 0)
(-0.0136802 0.00722799 0)
(-0.0155313 0.00746555 0)
(-0.0174289 0.00765093 0)
(-0.019362 0.00778883 0)
(-0.0213205 0.00788334 0)
(-0.0232947 0.00793785 0)
(-0.0252755 0.00795492 0)
(-0.0272543 0.0079363 0)
(-0.0292223 0.00788293 0)
(-0.0311711 0.007795 0)
(-0.0330922 0.00767208 0)
(-0.0349766 0.00751316 0)
(-0.0368155 0.00731685 0)
(-0.0385995 0.00708145 0)
(-0.0403189 0.00680509 0)
(-0.0419636 0.00648589 0)
(-0.0435232 0.00612205 0)
(-0.0449872 0.00571204 0)
(-0.0463445 0.00525464 0)
(-0.0475842 0.00474914 0)
(-0.0486952 0.0041954 0)
(-0.0496665 0.00359394 0)
(-0.0504876 0.00294608 0)
(-0.0511481 0.00225396 0)
(-0.0516385 0.00152064 0)
(-0.0519501 0.000750109 0)
(-0.052075 -5.26686e-05 0)
(-0.0520067 -0.000881764 0)
(-0.0517401 -0.00173031 0)
(-0.0512716 -0.00259053 0)
(-0.0505994 -0.00345384 0)
(-0.0497238 -0.00431093 0)
(-0.048647 -0.00515189 0)
(-0.0473733 -0.00596638 0)
(-0.0459096 -0.00674377 0)
(-0.0442648 -0.00747337 0)
(-0.0424503 -0.00814463 0)
(-0.0404797 -0.00874736 0)
(-0.038369 -0.00927195 0)
(-0.0361361 -0.00970962 0)
(-0.0338007 -0.0100527 0)
(-0.0313846 -0.0102946 0)
(-0.0289106 -0.0104305 0)
(-0.0264028 -0.0104569 0)
(-0.0238859 -0.0103723 0)
(-0.0213853 -0.010177 0)
(-0.018926 -0.00987306 0)
(-0.0165326 -0.00946481 0)
(-0.0142289 -0.0089583 0)
(-0.0120373 -0.00836154 0)
(-0.00997836 -0.0076843 0)
(-0.0080705 -0.00693803 0)
(-0.00632952 -0.00613571 0)
(-0.0047683 -0.00529168 0)
(-0.00339643 -0.00442155 0)
(-0.00221997 -0.00354199 0)
(-0.00124123 -0.00267071 0)
(-0.000458501 -0.0018263 0)
(0.000134003 -0.00102822 0)
(0.000546306 -0.000296791 0)
(0.000792725 0.000346823 0)
(0.000891913 0.000880606 0)
(0.000866924 0.00128171 0)
(0.000745299 0.00152655 0)
(0.000558764 0.00159094 0)
(0.000343089 0.00145034 0)
(0.00014487 0.00108014 0)
(2.85206e-05 0.000454669 0)
(-3.986e-05 0.000320282 0)
(-0.000275494 0.00115142 0)
(-0.000792498 0.00208314 0)
(-0.00154201 0.00305072 0)
(-0.00249797 0.00400863 0)
(-0.00364422 0.00492417 0)
(-0.0049632 0.00577528 0)
(-0.00643688 0.00654856 0)
(-0.00804774 0.00723726 0)
(-0.00977892 0.00783955 0)
(-0.0116143 0.00835708 0)
(-0.0135386 0.00879378 0)
(-0.0155375 0.0091549 0)
(-0.0175977 0.0094463 0)
(-0.0197067 0.00967383 0)
(-0.0218531 0.00984299 0)
(-0.024026 0.00995853 0)
(-0.0262154 0.0100244 0)
(-0.0284113 0.0100436 0)
(-0.0306046 0.010018 0)
(-0.0327859 0.00994879 0)
(-0.0349461 0.00983608 0)
(-0.0370759 0.00967931 0)
(-0.0391658 0.00947726 0)
(-0.0412059 0.00922821 0)
(-0.0431863 0.00893013 0)
(-0.0450964 0.00858079 0)
(-0.0469252 0.00817793 0)
(-0.0486617 0.00771946 0)
(-0.0502941 0.00720354 0)
(-0.0518106 0.00662881 0)
(-0.0531994 0.00599446 0)
(-0.0544485 0.0053004 0)
(-0.0555459 0.00454736 0)
(-0.0564802 0.00373703 0)
(-0.0572401 0.0028721 0)
(-0.0578151 0.00195635 0)
(-0.0581957 0.000994712 0)
(-0.0583732 -6.70332e-06 0)
(-0.0583402 -0.00104062 0)
(-0.0580909 -0.00209864 0)
(-0.057621 -0.00317125 0)
(-0.0569283 -0.00424796 0)
(-0.0560123 -0.00531739 0)
(-0.0548749 -0.00636743 0)
(-0.0535205 -0.00738541 0)
(-0.0519556 -0.00835835 0)
(-0.0501893 -0.00927314 0)
(-0.0482333 -0.0101168 0)
(-0.0461018 -0.0108768 0)
(-0.0438114 -0.0115413 0)
(-0.041381 -0.0120993 0)
(-0.0388316 -0.0125414 0)
(-0.0361862 -0.0128593 0)
(-0.0334695 -0.0130466 0)
(-0.0307073 -0.0130992 0)
(-0.0279265 -0.0130146 0)
(-0.0251545 -0.0127929 0)
(-0.0224189 -0.0124367 0)
(-0.0197468 -0.0119506 0)
(-0.0171644 -0.0113421 0)
(-0.0146967 -0.0106205 0)
(-0.0123667 -0.00979788 0)
(-0.0101952 -0.00888797 0)
(-0.00820045 -0.00790664 0)
(-0.00639724 -0.00687146 0)
(-0.00479709 -0.00580154 0)
(-0.00340765 -0.00471737 0)
(-0.00223255 -0.00364065 0)
(-0.00127112 -0.00259418 0)
(-0.000518263 -0.00160174 0)
(3.5634e-05 -0.000688062 0)
(0.000404809 0.000121218 0)
(0.000608145 0.000799574 0)
(0.000669238 0.0013196 0)
(0.000616479 0.00165306 0)
(0.00048276 0.0017709 0)
(0.000305324 0.00164338 0)
(0.000131874 0.00124007 0)
(2.65685e-05 0.000528417 0)
(-4.74367e-05 0.000471946 0)
(-0.000322905 0.00158004 0)
(-0.00092165 0.00276493 0)
(-0.00178243 0.00396351 0)
(-0.00287173 0.00513124 0)
(-0.00416884 0.00623619 0)
(-0.00565233 0.00725698 0)
(-0.0073011 0.00818094 0)
(-0.00909527 0.00900215 0)
(-0.0110162 0.00971967 0)
(-0.0130464 0.0103361 0)
(-0.0151695 0.0108565 0)
(-0.0173705 0.0112871 0)
(-0.0196354 0.0116348 0)
(-0.0219512 0.0119064 0)
(-0.0243058 0.0121082 0)
(-0.0266881 0.0122456 0)
(-0.0290874 0.0123232 0)
(-0.0314935 0.0123442 0)
(-0.0338966 0.0123109 0)
(-0.0362869 0.0122245 0)
(-0.0386548 0.012085 0)
(-0.0409904 0.0118918 0)
(-0.0432836 0.0116433 0)
(-0.0455239 0.0113375 0)
(-0.0477007 0.010972 0)
(-0.0498026 0.0105441 0)
(-0.0518181 0.0100513 0)
(-0.0537352 0.00949099 0)
(-0.0555414 0.00886116 0)
(-0.0572241 0.00816019 0)
(-0.0587705 0.00738718 0)
(-0.0601677 0.00654208 0)
(-0.061403 0.00562582 0)
(-0.0624637 0.00464043 0)
(-0.0633378 0.00358915 0)
(-0.0640137 0.00247651 0)
(-0.0644808 0.0013084 0)
(-0.0647296 9.20774e-05 0)
(-0.0647516 -0.0011638 0)
(-0.0645401 -0.00244923 0)
(-0.0640898 -0.00375292 0)
(-0.0633977 -0.00506236 0)
(-0.0624627 -0.00636402 0)
(-0.0612859 -0.00764346 0)
(-0.0598711 -0.00888557 0)
(-0.0582245 -0.0100748 0)
(-0.0563551 -0.0111955 0)
(-0.0542745 -0.0122319 0)
(-0.0519972 -0.0131691 0)
(-0.0495401 -0.0139927 0)
(-0.046923 -0.0146894 0)
(-0.044168 -0.0152474 0)
(-0.0412992 -0.0156568 0)
(-0.0383428 -0.0159095 0)
(-0.0353267 -0.016 0)
(-0.0322797 -0.0159251 0)
(-0.0292316 -0.0156846 0)
(-0.0262124 -0.0152809 0)
(-0.0232518 -0.0147194 0)
(-0.0203788 -0.0140085 0)
(-0.017621 -0.0131593 0)
(-0.0150045 -0.0121857 0)
(-0.0125525 -0.0111043 0)
(-0.0102859 -0.00993369 0)
(-0.00822185 -0.00869501 0)
(-0.00637408 -0.00741108 0)
(-0.00475216 -0.00610646 0)
(-0.0033613 -0.00480717 0)
(-0.00220215 -0.0035405 0)
(-0.00127059 -0.00233488 0)
(-0.000557651 -0.00121977 0)
(-4.93817e-05 -0.000225613 0)
(0.000273132 0.000616246 0)
(0.000433848 0.00127353 0)
(0.00046182 0.00171306 0)
(0.000390914 0.00190068 0)
(0.000259608 0.00180134 0)
(0.000116315 0.00137895 0)
(2.43364e-05 0.000594781 0)
(-5.47129e-05 0.000647525 0)
(-0.000368866 0.00207216 0)
(-0.00104745 0.00354231 0)
(-0.00201735 0.00499743 0)
(-0.00323786 0.00639506 0)
(-0.00468369 0.00770501 0)
(-0.00632955 0.00890755 0)
(-0.00815116 0.0099915 0)
(-0.0101262 0.0109524 0)
(-0.0122342 0.0117907 0)
(-0.0144562 0.0125105 0)
(-0.0167749 0.013118 0)
(-0.0191744 0.0136208 0)
(-0.02164 0.014027 0)
(-0.0241585 0.0143443 0)
(-0.0267173 0.0145799 0)
(-0.0293049 0.0147401 0)
(-0.0319103 0.0148298 0)
(-0.034523 0.0148528 0)
(-0.0371329 0.0148115 0)
(-0.0397297 0.0147071 0)
(-0.0423035 0.0145396 0)
(-0.044844 0.0143081 0)
(-0.0473406 0.0140109 0)
(-0.0497824 0.0136454 0)
(-0.052158 0.0132089 0)
(-0.0544556 0.0126983 0)
(-0.056663 0.0121106 0)
(-0.0587675 0.0114428 0)
(-0.060756 0.0106926 0)
(-0.0626149 0.00985813 0)
(-0.0643307 0.00893829 0)
(-0.0658895 0.00793307 0)
(-0.0672775 0.00684353 0)
(-0.0684813 0.00567203 0)
(-0.0694876 0.00442233 0)
(-0.0702839 0.00309967 0)
(-0.0708583 0.00171087 0)
(-0.0712 0.000264356 0)
(-0.0712996 -0.00122984 0)
(-0.0711489 -0.00276009 0)
(-0.0707418 -0.00431326 0)
(-0.0700737 -0.00587481 0)
(-0.0691427 -0.00742892 0)
(-0.0679489 -0.00895874 0)
(-0.0664951 -0.0104466 0)
(-0.064787 -0.0118741 0)
(-0.0628329 -0.0132229 0)
(-0.0606442 -0.0144745 0)
(-0.0582353 -0.015611 0)
(-0.0556233 -0.0166153 0)
(-0.0528286 -0.0174714 0)
(-0.049874 -0.0181652 0)
(-0.0467849 -0.0186844 0)
(-0.043589 -0.0190191 0)
(-0.0403159 -0.0191623 0)
(-0.0369967 -0.0191096 0)
(-0.0336635 -0.0188603 0)
(-0.0303489 -0.0184165 0)
(-0.0270856 -0.0177843 0)
(-0.0239055 -0.0169728 0)
(-0.0208393 -0.0159948 0)
(-0.0179161 -0.0148664 0)
(-0.0151623 -0.0136065 0)
(-0.0126016 -0.0122373 0)
(-0.010254 -0.0107832 0)
(-0.00813582 -0.00927117 0)
(-0.00625878 -0.00773008 0)
(-0.00463009 -0.00619058 0)
(-0.00325201 -0.00468479 0)
(-0.00212168 -0.00324614 0)
(-0.00123098 -0.00190919 0)
(-0.000566488 -0.000709491 0)
(-0.000109419 0.000316414 0)
(0.000164396 0.00113106 0)
(0.000284537 0.00169603 0)
(0.000285709 0.00197189 0)
(0.0002075 0.00191815 0)
(9.88479e-05 0.00149325 0)
(2.1946e-05 0.000652737 0)
(-6.17219e-05 0.00084625 0)
(-0.000413401 0.00262608 0)
(-0.00116972 0.00441307 0)
(-0.00224621 0.00615008 0)
(-0.00359522 0.00779759 0)
(-0.00518701 0.00932815 0)
(-0.00699242 0.0107244 0)
(-0.00898399 0.0119776 0)
(-0.0111369 0.0130852 0)
(-0.0134289 0.0140496 0)
(-0.0158395 0.0148769 0)
(-0.0183504 0.0155747 0)
(-0.020945 0.0161523 0)
(-0.023608 0.016619 0)
(-0.0263257 0.0169837 0)
(-0.0290854 0.0172546 0)
(-0.0318752 0.0174386 0)
(-0.0346839 0.0175413 0)
(-0.0375009 0.0175668 0)
(-0.0403158 0.0175177 0)
(-0.0431182 0.0173952 0)
(-0.0458979 0.0171994 0)
(-0.0486442 0.0169289 0)
(-0.0513462 0.0165817 0)
(-0.0539927 0.0161549 0)
(-0.0565719 0.0156453 0)
(-0.0590715 0.0150493 0)
(-0.0614787 0.0143633 0)
(-0.0637801 0.0135841 0)
(-0.065962 0.0127087 0)
(-0.0680101 0.0117351 0)
(-0.0699099 0.0106619 0)
(-0.0716467 0.00948917 0)
(-0.0732057 0.00821792 0)
(-0.0745723 0.0068508 0)
(-0.075732 0.00539202 0)
(-0.0766711 0.00384746 0)
(-0.0773765 0.00222485 0)
(-0.0778358 0.000533706 0)
(-0.0780382 -0.00121456 0)
(-0.0779741 -0.00300671 0)
(-0.0776358 -0.00482777 0)
(-0.0770174 -0.00666108 0)
(-0.0761153 -0.00848852 0)
(-0.0749285 -0.0102907 0)
(-0.0734586 -0.0120471 0)
(-0.07171 -0.0137367 0)
(-0.0696903 -0.015338 0)
(-0.0674102 -0.0168293 0)
(-0.0648838 -0.0181898 0)
(-0.0621281 -0.0193992 0)
(-0.0591638 -0.0204386 0)
(-0.0560143 -0.021291 0)
(-0.0527062 -0.0219416 0)
(-0.0492685 -0.0223784 0)
(-0.0457327 -0.0225922 0)
(-0.0421321 -0.0225775 0)
(-0.0385014 -0.0223323 0)
(-0.034876 -0.0218588 0)
(-0.0312917 -0.0211629 0)
(-0.0277838 -0.0202548 0)
(-0.0243864 -0.0191487 0)
(-0.0211322 -0.0178627 0)
(-0.018051 -0.0164187 0)
(-0.0151698 -0.0148419 0)
(-0.0125121 -0.0131607 0)
(-0.0100968 -0.0114063 0)
(-0.00793864 -0.00961211 0)
(-0.00604701 -0.00781384 0)
(-0.00442614 -0.00604882 0)
(-0.00307473 -0.00435582 0)
(-0.00198579 -0.00277487 0)
(-0.00114662 -0.0013471 0)
(-0.000538718 -0.000114564 0)
(-0.000137842 0.000879717 0)
(8.6019e-05 0.00159179 0)
(0.000168338 0.00197668 0)
(0.000149786 0.00198842 0)
(7.98042e-05 0.00157997 0)
(1.94558e-05 0.000701507 0)
(-6.84904e-05 0.00106739 0)
(-0.000456545 0.00324002 0)
(-0.0012884 0.00537479 0)
(-0.00246869 0.00741864 0)
(-0.0039431 0.00933585 0)
(-0.00567757 0.0111025 0)
(-0.00763918 0.0127045 0)
(-0.00979733 0.014136 0)
(-0.0121248 0.0153973 0)
(-0.0145973 0.0164933 0)
(-0.0171931 0.017432 0)
(-0.0198929 0.0182234 0)
(-0.0226791 0.0188784 0)
(-0.0255363 0.0194077 0)
(-0.0284502 0.0198217 0)
(-0.0314079 0.0201294 0)
(-0.0343975 0.0203386 0)
(-0.0374077 0.0204556 0)
(-0.0404277 0.0204847 0)
(-0.0434471 0.0204288 0)
(-0.0464555 0.0202892 0)
(-0.0494423 0.0200656 0)
(-0.052397 0.0197565 0)
(-0.0553084 0.0193595 0)
(-0.0581649 0.0188712 0)
(-0.0609544 0.0182878 0)
(-0.0636643 0.0176052 0)
(-0.0662813 0.0168193 0)
(-0.0687915 0.0159263 0)
(-0.0711804 0.0149228 0)
(-0.0734332 0.0138062 0)
(-0.0755343 0.0125751 0)
(-0.0774682 0.0112291 0)
(-0.0792191 0.00976938 0)
(-0.0807709 0.00819867 0)
(-0.0821081 0.00652154 0)
(-0.0832154 0.00474444 0)
(-0.0840781 0.00287589 0)
(-0.0846823 0.00092646 0)
(-0.0850154 -0.00109114 0)
(-0.0850661 -0.0031621 0)
(-0.0848248 -0.00526959 0)
(-0.0842838 -0.00739484 0)
(-0.0834378 -0.00951734 0)
(-0.0822839 -0.0116151 0)
(-0.0808222 -0.0136647 0)
(-0.0790556 -0.015642 0)
(-0.0769904 -0.0175223 0)
(-0.0746365 -0.0192808 0)
(-0.072007 -0.0208929 0)
(-0.0691189 -0.022335 0)
(-0.0659926 -0.023585 0)
(-0.0626523 -0.0246226 0)
(-0.0591253 -0.02543 0)
(-0.0554421 -0.0259924 0)
(-0.051636 -0.0262985 0)
(-0.0477425 -0.0263409 0)
(-0.0437991 -0.0261163 0)
(-0.0398444 -0.0256262 0)
(-0.0359175 -0.0248765 0)
(-0.0320574 -0.023878 0)
(-0.0283023 -0.0226464 0)
(-0.0246886 -0.0212018 0)
(-0.0212503 -0.0195688 0)
(-0.0180183 -0.0177761 0)
(-0.0150196 -0.0158561 0)
(-0.0122769 -0.0138445 0)
(-0.00980789 -0.0117798 0)
(-0.00762484 -0.00970298 0)
(-0.00573432 -0.00765697 0)
(-0.0041369 -0.00568639 0)
(-0.00282702 -0.00383721 0)
(-0.00179288 -0.00215649 0)
(-0.00101649 -0.000692282 0)
(-0.000473617 0.00050646 0)
(-0.000133886 0.00138991 0)
(3.8928e-05 0.00190729 0)
(8.66325e-05 0.00200695 0)
(5.92692e-05 0.00163635 0)
(1.68808e-05 0.000740409 0)
(-7.5035e-05 0.00131022 0)
(-0.00049832 0.00391219 0)
(-0.00140343 0.00642488 0)
(-0.00268455 0.00880004 0)
(-0.00428095 0.0110065 0)
(-0.00615445 0.0130245 0)
(-0.00826847 0.0148442 0)
(-0.0105894 0.0164631 0)
(-0.0130875 0.0178851 0)
(-0.0157368 0.019118 0)
(-0.0185142 0.0201724 0)
(-0.0213992 0.0210607 0)
(-0.0243739 0.0217958 0)
(-0.0274221 0.0223901 0)
(-0.0305294 0.0228554 0)
(-0.0336829 0.0232019 0)
(-0.0368704 0.0234383 0)
(-0.0400809 0.0235715 0)
(-0.0433034 0.0236062 0)
(-0.0465278 0.0235455 0)
(-0.0497436 0.0233905 0)
(-0.0529403 0.023141 0)
(-0.0561072 0.022795 0)
(-0.0592331 0.0223496 0)
(-0.0623064 0.0218011 0)
(-0.0653147 0.0211449 0)
(-0.0682451 0.0203763 0)
(-0.0710839 0.0194906 0)
(-0.0738167 0.0184834 0)
(-0.0764285 0.0173506 0)
(-0.0789036 0.0160892 0)
(-0.0812257 0.0146972 0)
(-0.0833782 0.0131741 0)
(-0.085344 0.0115209 0)
(-0.087106 0.00974018 0)
(-0.088647 0.00783685 0)
(-0.0899502 0.00581778 0)
(-0.0909991 0.00369216 0)
(-0.0917779 0.00147149 0)
(-0.0922721 -0.00083029 0)
(-0.0924681 -0.00319687 0)
(-0.0923542 -0.0056096 0)
(-0.0919206 -0.00804759 0)
(-0.0911598 -0.0104879 0)
(-0.0900667 -0.0129058 0)
(-0.0886394 -0.015275 0)
(-0.0868789 -0.017568 0)
(-0.08479 -0.0197566 0)
(-0.082381 -0.0218124 0)
(-0.079664 -0.023707 0)
(-0.0766555 -0.0254131 0)
(-0.0733755 -0.0269048 0)
(-0.0698485 -0.028158 0)
(-0.0661025 -0.0291516 0)