/*--------------------------------*- C++ -*----------------------------------*\
  =========                 |
  \\      /  F ield         | OpenFOAM: The Open Source CFD Toolbox
   \\    /   O peration     | Website:  https://openfoam.org
    \\  /    A nd           | Version:  7
     \\/     M anipulation  |
\*---------------------------------------------------------------------------*/
FoamFile
{
    version     2.0;
    format      ascii;
    class       volVectorField;
    location    "2.35";
    object      U;
}
// * * * * * * * * * * * * * * * * * * * * * * * * * * * * * * * * * * * * * //

dimensions      [0 1 -1 0 0 0 0];

internalField   nonuniform List<vector> 
6400
(
(1.12594e-05 -1.16389e-05 0)
(4.9481e-05 -2.40932e-05 0)
(0.000102208 -2.44272e-05 0)
(0.000142978 -1.78792e-05 0)
(0.000158793 -8.45123e-06 0)
(0.000145199 1.7084e-06 0)
(0.000101325 1.16023e-05 0)
(2.83194e-05 2.06188e-05 0)
(-7.15913e-05 2.86477e-05 0)
(-0.000195875 3.56882e-05 0)
(-0.00034194 4.18181e-05 0)
(-0.000507366 4.71612e-05 0)
(-0.000690014 5.18543e-05 0)
(-0.000888061 5.60293e-05 0)
(-0.00109999 5.98025e-05 0)
(-0.00132454 6.32684e-05 0)
(-0.00156066 6.64967e-05 0)
(-0.00180745 6.95321e-05 0)
(-0.00206407 7.23946e-05 0)
(-0.00232971 7.50817e-05 0)
(-0.0026035 7.75711e-05 0)
(-0.00288445 7.98231e-05 0)
(-0.00317144 8.17842e-05 0)
(-0.00346317 8.33903e-05 0)
(-0.00375811 8.45692e-05 0)
(-0.00405451 8.52436e-05 0)
(-0.00435039 8.53337e-05 0)
(-0.00464352 8.47595e-05 0)
(-0.00493146 8.34439e-05 0)
(-0.00521153 8.13142e-05 0)
(-0.00548088 7.83054e-05 0)
(-0.0057365 7.43619e-05 0)
(-0.00597525 6.94402e-05 0)
(-0.00619391 6.35109e-05 0)
(-0.00638924 5.65613e-05 0)
(-0.00655804 4.85976e-05 0)
(-0.00669719 3.96467e-05 0)
(-0.00680375 2.97578e-05 0)
(-0.00687498 1.90044e-05 0)
(-0.00690848 7.48433e-06 0)
(-0.00690221 -4.68159e-06 0)
(-0.00685457 -1.73467e-05 0)
(-0.00676449 -3.03417e-05 0)
(-0.00663145 -4.34771e-05 0)
(-0.00645558 -5.65462e-05 0)
(-0.00623767 -6.93286e-05 0)
(-0.00597919 -8.15952e-05 0)
(-0.00568231 -9.31137e-05 0)
(-0.00534993 -0.000103655 0)
(-0.0049856 -0.000112998 0)
(-0.00459351 -0.00012094 0)
(-0.00417843 -0.0001273 0)
(-0.00374562 -0.000131924 0)
(-0.00330075 -0.000134696 0)
(-0.00284978 -0.000135535 0)
(-0.00239883 -0.000134405 0)
(-0.00195409 -0.000131314 0)
(-0.00152165 -0.000126315 0)
(-0.00110738 -0.000119502 0)
(-0.000716809 -0.000111012 0)
(-0.000355004 -0.000101017 0)
(-2.64722e-05 -8.97227e-05 0)
(0.000264935 -7.73554e-05 0)
(0.000516091 -6.4159e-05 0)
(0.000724648 -5.0391e-05 0)
(0.00088907 -3.63121e-05 0)
(0.00100866 -2.21834e-05 0)
(0.00108355 -8.26412e-06 0)
(0.00111476 5.18689e-06 0)
(0.00110416 1.79058e-05 0)
(0.00105455 2.96131e-05 0)
(0.000969681 3.99888e-05 0)
(0.000854449 4.86405e-05 0)
(0.000715068 5.50477e-05 0)
(0.00055943 5.84795e-05 0)
(0.000397616 5.78996e-05 0)
(0.000242439 5.18948e-05 0)
(0.000109834 3.86328e-05 0)
(1.94908e-05 1.68261e-05 0)
(-6.1945e-06 -6.16146e-06 0)
(2.43002e-05 -5.03655e-05 0)
(9.02621e-05 -8.9987e-05 0)
(0.000163907 -8.16086e-05 0)
(0.000201308 -4.45487e-05 0)
(0.000178053 6.88881e-06 0)
(8.35466e-05 6.3741e-05 0)
(-8.59978e-05 0.000120706 0)
(-0.00032961 0.000174861 0)
(-0.000643309 0.000224759 0)
(-0.00102202 0.000269898 0)
(-0.00146003 0.00031033 0)
(-0.0019517 0.000346427 0)
(-0.00249174 0.000378707 0)
(-0.00307544 0.000407725 0)
(-0.00369865 0.000434001 0)
(-0.00435774 0.000457971 0)
(-0.00504949 0.000479961 0)
(-0.00577098 0.00050017 0)
(-0.00651941 0.000518676 0)
(-0.00729197 0.000535434 0)
(-0.00808569 0.000550291 0)
(-0.00889731 0.000563002 0)
(-0.00972319 0.000573243 0)
(-0.0105592 0.000580633 0)
(-0.0114007 0.000584749 0)
(-0.0122424 0.000585142 0)
(-0.0130785 0.000581357 0)
(-0.0139026 0.000572948 0)
(-0.0147078 0.00055949 0)
(-0.0154867 0.000540601 0)
(-0.0162312 0.00051595 0)
(-0.0169333 0.000485275 0)
(-0.0175844 0.000448396 0)
(-0.0181761 0.000405225 0)
(-0.0186997 0.000355784 0)
(-0.019147 0.000300209 0)
(-0.01951 0.000238763 0)
(-0.0197811 0.000171843 0)
(-0.0199537 9.99846e-05 0)
(-0.0200218 2.386e-05 0)
(-0.0199807 -5.57264e-05 0)
(-0.0198266 -0.000137829 0)
(-0.0195574 -0.00022139 0)
(-0.0191722 -0.000305243 0)
(-0.0186721 -0.000388137 0)
(-0.0180595 -0.000468759 0)
(-0.0173389 -0.000545759 0)
(-0.0165163 -0.000617784 0)
(-0.0155996 -0.000683507 0)
(-0.0145984 -0.000741667 0)
(-0.0135237 -0.000791102 0)
(-0.0123882 -0.000830783 0)
(-0.0112055 -0.000859846 0)
(-0.00999047 -0.000877625 0)
(-0.00875842 -0.000883672 0)
(-0.0075253 -0.000877778 0)
(-0.00630709 -0.000859981 0)
(-0.0051196 -0.000830572 0)
(-0.00397809 -0.000790087 0)
(-0.002897 -0.000739299 0)
(-0.00188964 -0.000679193 0)
(-0.000967935 -0.000610941 0)
(-0.000142157 -0.000535872 0)
(0.000579226 -0.000455437 0)
(0.00118974 -0.000371181 0)
(0.00168503 -0.000284707 0)
(0.00206293 -0.000197659 0)
(0.00232353 -0.00011171 0)
(0.00246928 -2.85639e-05 0)
(0.00250504 5.0019e-05 0)
(0.00243814 0.000122173 0)
(0.00227864 0.000185841 0)
(0.00203951 0.000238656 0)
(0.001737 0.000277777 0)
(0.00139117 0.000299691 0)
(0.00102633 0.000300074 0)
(0.000671113 0.000273906 0)
(0.000357687 0.000216067 0)
(0.000124445 0.000124686 0)
(1.66292e-05 1.93779e-05 0)
(2.52457e-05 -0.00010388 0)
(8.28239e-05 -0.000164073 0)
(0.000124659 -0.000124624 0)
(0.000102059 -2.41382e-05 0)
(-1.28756e-05 0.000109806 0)
(-0.000233465 0.000258241 0)
(-0.00056482 0.000408744 0)
(-0.00100621 0.000554049 0)
(-0.001553 0.000689966 0)
(-0.00219854 0.000814664 0)
(-0.00293517 0.000927786 0)
(-0.00375504 0.00102985 0)
(-0.00465061 0.00112185 0)
(-0.00561487 0.00120495 0)
(-0.00664147 0.00128028 0)
(-0.00772466 0.00134881 0)
(-0.00885916 0.00141125 0)
(-0.01004 0.00146804 0)
(-0.0112623 0.0015193 0)
(-0.0125211 0.00156485 0)
(-0.0138111 0.00160425 0)
(-0.0151267 0.00163681 0)
(-0.0164615 0.00166166 0)
(-0.0178085 0.00167778 0)
(-0.0191599 0.00168405 0)
(-0.020507 0.0016793 0)
(-0.0218403 0.00166234 0)
(-0.0231495 0.00163202 0)
(-0.0244235 0.0015873 0)
(-0.0256506 0.00152721 0)
(-0.0268185 0.00145099 0)
(-0.0279144 0.00135804 0)
(-0.0289255 0.001248 0)
(-0.0298386 0.0011208 0)
(-0.0306411 0.000976628 0)
(-0.0313205 0.000816011 0)
(-0.031865 0.00063981 0)
(-0.0322638 0.000449238 0)
(-0.0325071 0.000245866 0)
(-0.0325867 3.16227e-05 0)
(-0.032496 -0.000191222 0)
(-0.03223 -0.000420059 0)
(-0.0317862 -0.000651994 0)
(-0.0311641 -0.00088388 0)
(-0.0303657 -0.00111236 0)
(-0.0293954 -0.00133395 0)
(-0.0282604 -0.00154508 0)
(-0.0269702 -0.0017422 0)
(-0.025537 -0.00192185 0)
(-0.0239753 -0.00208074 0)
(-0.022302 -0.00221587 0)
(-0.0205358 -0.00232455 0)
(-0.0186973 -0.00240458 0)
(-0.0168085 -0.00245422 0)
(-0.0148924 -0.0024723 0)
(-0.0129726 -0.00245828 0)
(-0.0110729 -0.00241223 0)
(-0.00921696 -0.00233491 0)
(-0.00742753 -0.00222767 0)
(-0.00572632 -0.0020925 0)
(-0.00413339 -0.00193195 0)
(-0.00266686 -0.00174908 0)
(-0.00134246 -0.00154737 0)
(-0.0001733 -0.00133068 0)
(0.000830439 -0.00110313 0)
(0.0016617 -0.00086905 0)
(0.00231673 -0.000632937 0)
(0.0027952 -0.000399406 0)
(0.00310034 -0.000173202 0)
(0.00323907 4.07549e-05 0)
(0.00322214 0.000237272 0)
(0.00306431 0.000410743 0)
(0.00278464 0.000554933 0)
(0.00240673 0.000662748 0)
(0.00195916 0.000726029 0)
(0.00147572 0.00073558 0)
(0.000994741 0.000681811 0)
(0.000557753 0.000556479 0)
(0.000216136 0.000357869 0)
(3.83325e-05 0.000109332 0)
(1.88765e-05 -0.000145839 0)
(4.40038e-05 -0.000200401 0)
(1.67451e-05 -0.00010077 0)
(-0.00010741 9.41236e-05 0)
(-0.000354954 0.000342973 0)
(-0.000739179 0.000616306 0)
(-0.00126489 0.000894091 0)
(-0.00193079 0.00116373 0)
(-0.00273146 0.00141784 0)
(-0.00365904 0.00165282 0)
(-0.00470445 0.00186757 0)
(-0.00585823 0.00206259 0)
(-0.00711113 0.00223924 0)
(-0.00845435 0.0023993 0)
(-0.00987972 0.00254451 0)
(-0.0113796 0.00267639 0)
(-0.0129468 0.00279604 0)
(-0.0145744 0.00290406 0)
(-0.0162554 0.00300055 0)
(-0.0179828 0.00308508 0)
(-0.0197488 0.00315675 0)
(-0.0215453 0.00321425 0)
(-0.0233632 0.00325594 0)
(-0.0251927 0.00327993 0)
(-0.0270227 0.00328417 0)
(-0.0288414 0.00326652 0)
(-0.0306356 0.00322488 0)
(-0.0323915 0.0031572 0)
(-0.0340942 0.00306164 0)
(-0.0357281 0.00293658 0)
(-0.037277 0.00278075 0)
(-0.0387244 0.00259323 0)
(-0.0400534 0.00237357 0)
(-0.0412475 0.00212181 0)
(-0.0422904 0.00183855 0)
(-0.0431665 0.00152498 0)
(-0.0438611 0.00118291 0)
(-0.0443608 0.000814783 0)
(-0.044654 0.000423691 0)
(-0.0447306 1.33619e-05 0)
(-0.044583 -0.000411852 0)
(-0.0442057 -0.000847066 0)
(-0.0435961 -0.00128687 0)
(-0.0427544 -0.00172543 0)
(-0.0416839 -0.00215657 0)
(-0.0403908 -0.00257391 0)
(-0.0388846 -0.00297096 0)
(-0.037178 -0.00334127 0)
(-0.0352867 -0.00367858 0)
(-0.0332294 -0.00397697 0)
(-0.0310275 -0.00423102 0)
(-0.0287048 -0.00443593 0)
(-0.0262873 -0.00458769 0)
(-0.0238028 -0.00468317 0)
(-0.0212803 -0.00472027 0)
(-0.0187497 -0.00469796 0)
(-0.0162409 -0.00461635 0)
(-0.0137839 -0.00447671 0)
(-0.0114076 -0.00428147 0)
(-0.00913974 -0.00403416 0)
(-0.00700601 -0.00373933 0)
(-0.00502978 -0.00340251 0)
(-0.00323156 -0.00303 0)
(-0.0016286 -0.00262885 0)
(-0.000234511 -0.00220663 0)
(0.000940982 -0.00177137 0)
(0.00189234 -0.00133146 0)
(0.00261838 -0.000895544 0)
(0.00312247 -0.00047258 0)
(0.00341271 -7.18309e-05 0)
(0.00350203 0.000296984 0)
(0.00340845 0.000623519 0)
(0.00315519 0.000896553 0)
(0.00277091 0.00110375 0)
(0.00228993 0.00123154 0)
(0.00175228 0.00126533 0)
(0.0012028 0.0011905 0)
(0.000689885 0.000994728 0)
(0.000276208 0.000673092 0)
(5.17946e-05 0.000241984 0)
(8.78864e-06 -0.000161169 0)
(-1.40504e-05 -0.000169443 0)
(-0.000137541 2.59291e-05 0)
(-0.000394975 0.00034773 0)
(-0.000807692 0.000741857 0)
(-0.00138676 0.00116901 0)
(-0.00213513 0.00160188 0)
(-0.00305 0.0020227 0)
(-0.00412462 0.00242081 0)
(-0.0053499 0.0027907 0)
(-0.00671549 0.00313043 0)
(-0.00821061 0.00344033 0)
(-0.00982462 0.00372207 0)
(-0.0115473 0.00397791 0)
(-0.0133689 0.00421016 0)
(-0.0152801 0.00442078 0)
(-0.0172721 0.00461116 0)
(-0.019336 0.00478199 0)
(-0.0214629 0.00493318 0)
(-0.0236435 0.0050639 0)
(-0.0258679 0.00517264 0)
(-0.0281254 0.00525728 0)
(-0.0304042 0.00531523 0)
(-0.0326915 0.00534355 0)
(-0.0349735 0.00533908 0)
(-0.037235 0.00529859 0)
(-0.0394597 0.00521889 0)
(-0.0416304 0.00509697 0)
(-0.0437287 0.00493013 0)
(-0.0457356 0.00471609 0)
(-0.0476316 0.00445308 0)
(-0.0493967 0.00413998 0)
(-0.0510112 0.00377635 0)
(-0.0524553 0.00336258 0)
(-0.0537101 0.0028999 0)
(-0.0547574 0.00239045 0)
(-0.0555805 0.00183734 0)
(-0.0561641 0.00124462 0)
(-0.0564951 0.000617336 0)
(-0.0565624 -3.85418e-05 0)
(-0.0563578 -0.000716125 0)
(-0.0558757 -0.00140773 0)
(-0.0551138 -0.00210494 0)
(-0.0540729 -0.00279871 0)
(-0.0527575 -0.00347955 0)
(-0.0511756 -0.00413768 0)
(-0.0493387 -0.00476317 0)
(-0.0472619 -0.00534624 0)
(-0.0449639 -0.00587738 0)
(-0.0424668 -0.0063476 0)
(-0.0397954 -0.00674869 0)
(-0.0369778 -0.00707336 0)
(-0.0340443 -0.00731553 0)
(-0.0310271 -0.00747042 0)
(-0.02796 -0.00753479 0)
(-0.024878 -0.00750701 0)
(-0.021816 -0.00738714 0)
(-0.0188093 -0.00717702 0)
(-0.0158917 -0.0068802 0)
(-0.0130962 -0.00650193 0)
(-0.0104533 -0.00604908 0)
(-0.00799092 -0.00552995 0)
(-0.00573393 -0.00495417 0)
(-0.00370337 -0.00433246 0)
(-0.00191621 -0.00367652 0)
(-0.000384869 -0.00299876 0)
(0.000883078 -0.00231225 0)
(0.00188516 -0.00163052 0)
(0.00262425 -0.000967613 0)
(0.00310877 -0.000338029 0)
(0.00335279 0.000243109 0)
(0.00337627 0.000759879 0)
(0.00320508 0.00119534 0)
(0.00287116 0.00153134 0)
(0.00241262 0.00174841 0)
(0.00187377 0.00182614 0)
(0.00130425 0.00174422 0)
(0.000758136 0.00148456 0)
(0.000307482 0.00103526 0)
(5.849e-05 0.000398904 0)
(-3.25433e-06 -0.000142351 0)
(-8.4027e-05 -5.29915e-05 0)
(-0.000323077 0.000279978 0)
(-0.000737763 0.000764359 0)
(-0.00134129 0.001335 0)
(-0.00214068 0.00194401 0)
(-0.00313567 0.00255762 0)
(-0.00432091 0.0031535 0)
(-0.00568775 0.00371803 0)
(-0.00722555 0.00424395 0)
(-0.00892261 0.00472851 0)
(-0.0107669 0.00517192 0)
(-0.0127467 0.00557609 0)
(-0.0148503 0.00594369 0)
(-0.0170668 0.00627748 0)
(-0.0193854 0.00657976 0)
(-0.0217957 0.00685207 0)
(-0.0242872 0.00709502 0)
(-0.0268489 0.00730821 0)
(-0.0294696 0.00749021 0)
(-0.0321371 0.00763872 0)
(-0.0348382 0.00775066 0)
(-0.0375586 0.0078223 0)
(-0.0402829 0.00784952 0)
(-0.0429942 0.00782791 0)
(-0.0456745 0.00775303 0)
(-0.0483045 0.00762055 0)
(-0.0508638 0.00742646 0)
(-0.053331 0.00716721 0)
(-0.0556843 0.00683988 0)
(-0.057901 0.00644233 0)
(-0.0599586 0.00597332 0)
(-0.0618346 0.00543266 0)
(-0.0635068 0.00482126 0)
(-0.0649542 0.00414124 0)
(-0.0661567 0.003396 0)
(-0.0670959 0.00259026 0)
(-0.0677552 0.00173003 0)
(-0.0681206 0.000822654 0)
(-0.0681802 -0.000123268 0)
(-0.0679256 -0.00109795 0)
(-0.0673511 -0.00209051 0)
(-0.0664548 -0.00308911 0)
(-0.0652383 -0.00408115 0)
(-0.063707 -0.00505342 0)
(-0.0618701 -0.00599236 0)
(-0.0597409 -0.0068843 0)
(-0.0573364 -0.00771571 0)
(-0.0546777 -0.00847351 0)
(-0.0517891 -0.00914535 0)
(-0.0486986 -0.00971988 0)
(-0.0454373 -0.0101871 0)
(-0.0420387 -0.0105385 0)
(-0.0385389 -0.0107675 0)
(-0.0349755 -0.0108695 0)
(-0.0313873 -0.0108421 0)
(-0.0278139 -0.0106853 0)
(-0.0242945 -0.0104012 0)
(-0.0208678 -0.0099947 0)
(-0.0175707 -0.00947278 0)
(-0.0144383 -0.00884475 0)
(-0.0115028 -0.00812195 0)
(-0.00879307 -0.00731761 0)
(-0.00633379 -0.00644657 0)
(-0.00414528 -0.0055251 0)
(-0.00224283 -0.00457059 0)
(-0.000636328 -0.00360137 0)
(0.000670003 -0.00263658 0)
(0.00167795 -0.00169602 0)
(0.00239551 -0.000800178 0)
(0.002837 2.97044e-05 0)
(0.00302323 0.000771481 0)
(0.00298156 0.0014019 0)
(0.00274592 0.00189646 0)
(0.0023569 0.00222934 0)
(0.00186184 0.00237374 0)
(0.00131404 0.00230272 0)
(0.000772341 0.00199079 0)
(0.000315751 0.0014165 0)
(6.03827e-05 0.000565859 0)
(-1.62999e-05 -8.48975e-05 0)
(-0.000161512 0.000161563 0)
(-0.000529857 0.000679521 0)
(-0.00111966 0.00136535 0)
(-0.00193387 0.00214501 0)
(-0.00297396 0.00296366 0)
(-0.00423525 0.00378229 0)
(-0.00570891 0.00457492 0)
(-0.00738375 0.00532555 0)
(-0.00924717 0.00602562 0)
(-0.011286 0.00667182 0)
(-0.0134869 0.00726433 0)
(-0.0158368 0.00780534 0)
(-0.0183232 0.00829791 0)
(-0.0209338 0.00874515 0)
(-0.0236567 0.00914957 0)
(-0.0264798 0.00951273 0)
(-0.0293912 0.00983498 0)
(-0.0323781 0.0101154 0)
(-0.0354273 0.0103518 0)
(-0.0385245 0.010541 0)
(-0.0416542 0.0106786 0)
(-0.0447998 0.0107598 0)
(-0.0479432 0.010779 0)
(-0.0510649 0.0107305 0)
(-0.0541442 0.0106087 0)
(-0.0571589 0.010408 0)
(-0.0600861 0.0101234 0)
(-0.0629017 0.00975061 0)
(-0.0655811 0.00928609 0)
(-0.0680994 0.00872749 0)
(-0.0704316 0.00807364 0)
(-0.0725531 0.00732473 0)
(-0.0744399 0.00648245 0)
(-0.0760691 0.00555007 0)
(-0.0774193 0.00453249 0)
(-0.0784708 0.00343632 0)
(-0.0792061 0.00226981 0)
(-0.0796103 0.00104291 0)
(-0.0796713 -0.000232883 0)
(-0.0793801 -0.00154457 0)
(-0.0787314 -0.00287779 0)
(-0.0777234 -0.00421704 0)
(-0.076358 -0.00554585 0)
(-0.0746414 -0.00684705 0)
(-0.0725839 -0.00810304 0)
(-0.0701996 -0.0092961 0)
(-0.0675072 -0.0104087 0)
(-0.0645291 -0.011424 0)
(-0.0612917 -0.012326 0)
(-0.057825 -0.0130999 0)
(-0.0541623 -0.0137327 0)
(-0.05034 -0.0142134 0)
(-0.0463969 -0.0145332 0)
(-0.0423739 -0.0146859 0)
(-0.0383131 -0.0146681 0)
(-0.0342577 -0.0144795 0)
(-0.0302507 -0.0141228 0)
(-0.0263348 -0.0136037 0)
(-0.022551 -0.012931 0)
(-0.0189385 -0.0121166 0)
(-0.0155335 -0.0111748 0)
(-0.0123687 -0.0101229 0)
(-0.00947264 -0.00897994 0)
(-0.0068691 -0.00776719 0)
(-0.00457643 -0.00650744 0)
(-0.00260722 -0.00522482 0)
(-0.000967864 -0.0039446 0)
(0.000341785 -0.00269295 0)
(0.00132862 -0.00149694 0)
(0.00200645 -0.000384519 0)
(0.00239611 0.000615366 0)
(0.00252552 0.00147264 0)
(0.00242968 0.00215593 0)
(0.00215076 0.00263255 0)
(0.00173819 0.00286869 0)
(0.00124808 0.0028299 0)
(0.000742991 0.00248214 0)
(0.000306453 0.00179306 0)
(5.89772e-05 0.000732026 0)
(-2.99069e-05 1.41281e-05 0)
(-0.000243898 0.000482999 0)
(-0.000751256 0.00123788 0)
(-0.00152935 0.00216691 0)
(-0.00256933 0.00318952 0)
(-0.00386601 0.00424572 0)
(-0.00540923 0.0052928 0)
(-0.00718591 0.00630223 0)
(-0.00918169 0.00725652 0)
(-0.0113816 0.0081464 0)
(-0.0137708 0.00896842 0)
(-0.0163344 0.00972297 0)
(-0.0190584 0.0104126 0)
(-0.021929 0.0110409 0)
(-0.0249329 0.0116111 0)
(-0.0280569 0.0121259 0)
(-0.0312878 0.0125867 0)
(-0.0346121 0.0129934 0)
(-0.0380155 0.0133445 0)
(-0.041483 0.0136368 0)
(-0.0449982 0.0138658 0)
(-0.0485436 0.0140262 0)
(-0.0521002 0.0141115 0)
(-0.0556477 0.0141148 0)
(-0.0591641 0.0140291 0)
(-0.0626262 0.0138473 0)
(-0.0660096 0.0135628 0)
(-0.0692888 0.0131695 0)
(-0.0724375 0.0126626 0)
(-0.0754289 0.012038 0)
(-0.0782359 0.0112933 0)
(-0.0808319 0.0104275 0)
(-0.0831903 0.00944146 0)
(-0.0852856 0.00833782 0)
(-0.0870937 0.0071212 0)
(-0.088592 0.00579825 0)
(-0.0897597 0.00437765 0)
(-0.0905788 0.00287014 0)
(-0.0910335 0.00128846 0)
(-0.0911115 -0.000352772 0)
(-0.0908034 -0.00203715 0)
(-0.0901038 -0.00374668 0)
(-0.0890107 -0.00546198 0)
(-0.0875264 -0.00716256 0)
(-0.0856573 -0.00882708 0)
(-0.083414 -0.0104337 0)
(-0.0808114 -0.0119606 0)
(-0.0778688 -0.0133859 0)
(-0.0746095 -0.0146888 0)
(-0.0710612 -0.0158494 0)
(-0.0672554 -0.0168492 0)
(-0.0632269 -0.0176721 0)
(-0.0590143 -0.018304 0)
(-0.0546586 -0.0187338 0)
(-0.0502032 -0.0189535 0)
(-0.0456933 -0.0189585 0)
(-0.0411753 -0.0187478 0)
(-0.0366956 -0.0183243 0)
(-0.0323006 -0.0176946 0)
(-0.0280353 -0.0168692 0)
(-0.0239429 -0.0158624 0)
(-0.0200635 -0.0146918 0)
(-0.016434 -0.0133785 0)
(-0.0130868 -0.0119461 0)
(-0.0100494 -0.0104213 0)
(-0.00734354 -0.00883236 0)
(-0.00498489 -0.0072098 0)
(-0.00298249 -0.00558543 0)
(-0.00133839 -0.00399233 0)
(-4.73617e-05 -0.00246465 0)
(0.000903231 -0.0010376 0)
(0.00153359 0.000252574 0)
(0.00187149 0.00136845 0)
(0.0019523 0.0022713 0)
(0.00181904 0.00292106 0)
(0.00152257 0.00327629 0)
(0.00112099 0.00329438 0)
(0.000679541 0.00293206 0)
(0.00028411 0.00214577 0)
(5.5369e-05 0.000889478 0)
(-4.38735e-05 0.000156621 0)
(-0.00032959 0.000917409 0)
(-0.000982775 0.00196466 0)
(-0.00195866 0.00318108 0)
(-0.00323558 0.00448187 0)
(-0.00480076 0.00580393 0)
(-0.00663782 0.00710241 0)
(-0.00872871 0.00834759 0)
(-0.0110554 0.0095215 0)
(-0.0136003 0.0106149 0)
(-0.0163463 0.0116248 0)
(-0.0192773 0.0125521 0)
(-0.0223778 0.0134001 0)
(-0.025633 0.0141725 0)
(-0.0290287 0.0148732 0)
(-0.0325506 0.0155047 0)
(-0.0361844 0.0160681 0)
(-0.039915 0.0165629 0)
(-0.0437269 0.0169864 0)
(-0.0476032 0.0173346 0)
(-0.051526 0.0176017 0)
(-0.0554757 0.0177808 0)
(-0.0594312 0.0178641 0)
(-0.0633702 0.0178431 0)
(-0.0672685 0.0177093 0)
(-0.0711009 0.0174545 0)
(-0.0748407 0.0170709 0)
(-0.0784604 0.0165516 0)
(-0.0819318 0.015891 0)
(-0.0852263 0.015085 0)
(-0.0883152 0.0141309 0)
(-0.0911701 0.0130284 0)
(-0.0937632 0.011779 0)
(-0.096068 0.0103865 0)
(-0.0980589 0.008857 0)
(-0.0997126 0.0071991 0)
(-0.101007 0.00542373 0)
(-0.101925 0.00354423 0)
(-0.102448 0.00157626 0)
(-0.102564 -0.000462326 0)
(-0.102264 -0.00255162 0)
(-0.101542 -0.00466988 0)
(-0.100394 -0.00679376 0)
(-0.0988238 -0.00889865 0)
(-0.0968368 -0.0109589 0)
(-0.0944436 -0.0129485 0)
(-0.0916591 -0.014841 0)
(-0.0885027 -0.0166103 0)
(-0.0849982 -0.0182313 0)
(-0.0811736 -0.01968 0)
(-0.0770613 -0.0209341 0)
(-0.0726974 -0.0219738 0)
(-0.0681217 -0.0227818 0)
(-0.0633772 -0.0233444 0)
(-0.0585094 -0.0236512 0)
(-0.0535662 -0.0236962 0)
(-0.0485967 -0.0234774 0)
(-0.043651 -0.0229976 0)
(-0.0387788 -0.0222641 0)
(-0.0340292 -0.0212889 0)
(-0.0294493 -0.0200885 0)
(-0.0250837 -0.0186837 0)
(-0.0209733 -0.0170996 0)
(-0.0171549 -0.0153645 0)
(-0.0136599 -0.0135104 0)
(-0.010514 -0.0115718 0)
(-0.00773639 -0.00958571 0)
(-0.00533923 -0.00759092 0)
(-0.00332727 -0.00562787 0)
(-0.00169754 -0.00373834 0)
(-0.000439092 -0.00196527 0)
(0.000467036 -0.000352716 0)
(0.00104793 0.00105404 0)
(0.00133876 0.00220845 0)
(0.00138287 0.0030625 0)
(0.00123187 0.00356665 0)
(0.00094517 0.0036697 0)
(0.000589788 0.00331887 0)
(0.000252217 0.0024597 0)
(5.03176e-05 0.00103254 0)
(-5.80819e-05 0.000343854 0)
(-0.000417515 0.00146899 0)
(-0.00122118 0.00286661 0)
(-0.00240146 0.00441646 0)
(-0.00392316 0.0060318 0)
(-0.00576529 0.00764836 0)
(-0.00790461 0.00922092 0)
(-0.0103176 0.01072 0)
(-0.0129822 0.0121282 0)
(-0.0158777 0.0134374 0)
(-0.0189848 0.0146456 0)
(-0.0222857 0.0157546 0)
(-0.0257637 0.0167685 0)
(-0.029403 0.017692 0)
(-0.0331882 0.0185288 0)
(-0.0371041 0.0192816 0)
(-0.0411353 0.0199512 0)
(-0.0452658 0.0205361 0)
(-0.0494783 0.0210328 0)
(-0.0537548 0.021436 0)
(-0.0580756 0.0217384 0)
(-0.0624194 0.0219316 0)
(-0.0667635 0.0220062 0)
(-0.0710835 0.0219523 0)
(-0.0753535 0.02176 0)
(-0.0795464 0.0214197 0)
(-0.0836337 0.0209225 0)
(-0.0875863 0.020261 0)
(-0.0913744 0.0194288 0)
(-0.0949678 0.0184217 0)
(-0.0983366 0.0172375 0)
(-0.101451 0.015876 0)
(-0.104283 0.0143398 0)
(-0.106803 0.012634 0)
(-0.108987 0.0107663 0)
(-0.110809 0.00874738 0)
(-0.112248 0.00659038 0)
(-0.113284 0.00431136 0)
(-0.113899 0.00192894 0)
(-0.11408 -0.000535756 0)
(-0.113818 -0.00305931 0)
(-0.113104 -0.0056162 0)
(-0.111935 -0.00817911 0)
(-0.110314 -0.0107193 0)
(-0.108246 -0.0132067 0)
(-0.10574 -0.0156109 0)
(-0.10281 -0.017901 0)
(-0.0994756 -0.0200465 0)
(-0.0957602 -0.0220176 0)
(-0.0916918 -0.0237859 0)
(-0.0873028 -0.0253252 0)
(-0.08263 -0.0266115 0)
(-0.0777142 -0.0276241 0)
(-0.0725997 -0.0283461 0)
(-0.0673341 -0.0287645 0)
(-0.0619674 -0.0288712 0)
(-0.0565517 -0.028663 0)
(-0.0511401 -0.0281422 0)
(-0.0457862 -0.0273164 0)
(-0.040543 -0.0261988 0)
(-0.035462 -0.0248079 0)
(-0.0305922 -0.0231678 0)
(-0.0259793 -0.0213072 0)
(-0.0216645 -0.0192594 0)
(-0.017684 -0.017062 0)
(-0.0140676 -0.0147557 0)
(-0.0108387 -0.0123844 0)
(-0.00801306 -0.00999432 0)
(-0.00559872 -0.00763379 0)
(-0.00359545 -0.0053526 0)
(-0.00199458 -0.00320196 0)
(-0.000778866 -0.00123428 0)
(7.75917e-05 0.000496831 0)
(0.000609303 0.00193644 0)
(0.000859421 0.00302816 0)
(0.000879829 0.00371391 0)
(0.000730626 0.00393361 0)
(0.000479845 0.00362502 0)
(0.000213375 0.00272337 0)
(4.43383e-05 0.00115716 0)
(-7.24501e-05 0.00057669 0)
(-0.000506871 0.00214054 0)
(-0.00146398 0.00394824 0)
(-0.00285284 0.00587887 0)
(-0.0046243 0.00784586 0)
(-0.00674871 0.00978582 0)
(-0.00919556 0.0116549 0)
(-0.0119355 0.0134253 0)
(-0.014942 0.0150817 0)
(-0.0181911 0.0166176 0)
(-0.0216611 0.018033 0)
(-0.0253325 0.0193312 0)
(-0.0291871 0.0205174 0)
(-0.0332082 0.0215971 0)
(-0.0373794 0.0225744 0)
(-0.0416846 0.0234519 0)
(-0.0461074 0.0242298 0)
(-0.0506306 0.0249059 0)
(-0.0552362 0.0254756 0)
(-0.0599044 0.025932 0)
(-0.0646143 0.0262664 0)
(-0.0693432 0.0264689 0)
(-0.0740667 0.0265283 0)
(-0.078759 0.0264332 0)
(-0.0833925 0.0261723 0)
(-0.0879386 0.0257349 0)
(-0.0923674 0.0251111 0)
(-0.0966485 0.0242926 0)
(-0.100751 0.0232729 0)
(-0.104643 0.0220475 0)
(-0.108294 0.0206147 0)
(-0.111673 0.0189749 0)
(-0.114751 0.0171316 0)
(-0.117499 0.0150913 0)
(-0.119891 0.0128635 0)
(-0.1219 0.0104608 0)
(-0.123504 0.00789863 0)
(-0.124682 0.00519579 0)
(-0.125417 0.00237379 0)
(-0.125694 -0.000543017 0)
(-0.125501 -0.00352777 0)
(-0.124831 -0.00655122 0)
(-0.123679 -0.0095821 0)
(-0.122045 -0.0125875 0)
(-0.119933 -0.0155331 0)
(-0.117351 -0.0183839 0)
(-0.114313 -0.0211045 0)
(-0.110837 -0.0236596 0)
(-0.106944 -0.0260148 0)
(-0.102663 -0.0281371 0)
(-0.0980256 -0.0299956 0)
(-0.0930684 -0.0315621 0)
(-0.0878328 -0.0328119 0)
(-0.0823643 -0.0337243 0)
(-0.0767119 -0.0342834 0)
(-0.0709278 -0.0344785 0)
(-0.0650667 -0.0343047 0)
(-0.0591852 -0.0337631 0)
(-0.0533404 -0.0328612 0)
(-0.0475898 -0.0316131 0)
(-0.0419893 -0.0300392 0)
(-0.0365929 -0.0281663 0)
(-0.0314513 -0.0260271 0)
(-0.026611 -0.0236596 0)
(-0.0221131 -0.0211071 0)
(-0.0179925 -0.0184169 0)
(-0.0142772 -0.01564 0)
(-0.0109872 -0.0128306 0)
(-0.0081345 -0.0100452 0)
(-0.00572208 -0.00734222 0)
(-0.00374411 -0.00478161 0)
(-0.00218554 -0.0024247 0)
(-0.00102212 -0.000333992 0)
(-0.000220431 0.00142671 0)
(0.000262094 0.00279217 0)
(0.000477153 0.00369541 0)
(0.000485054 0.00406729 0)
(0.000354325 0.00383627 0)
(0.000169472 0.0029279 0)
(3.77797e-05 0.00126045 0)
(-8.69076e-05 0.000855655 0)
(-0.00059698 0.00293371 0)
(-0.00170905 0.0052122 0)
(-0.00330861 0.00757167 0)
(-0.00533229 0.00992782 0)
(-0.00774149 0.0122201 0)
(-0.0104982 0.0144078 0)
(-0.0135669 0.0164665 0)
(-0.0169164 0.0183839 0)
(-0.0205194 0.0201566 0)
(-0.0243517 0.021787 0)
(-0.0283918 0.0232807 0)
(-0.0326203 0.0246443 0)
(-0.0370193 0.0258842 0)
(-0.0415715 0.0270052 0)
(-0.0462601 0.0280097 0)
(-0.0510677 0.0288973 0)
(-0.0559764 0.0296649 0)
(-0.0609668 0.0303067 0)
(-0.0660184 0.0308142 0)
(-0.0711089 0.0311773 0)
(-0.0762144 0.0313841 0)
(-0.0813092 0.031422 0)
(-0.0863662 0.0312781 0)
(-0.0913566 0.0309397 0)
(-0.0962506 0.0303948 0)
(-0.101017 0.0296327 0)
(-0.105625 0.0286446 0)
(-0.110042 0.0274235 0)
(-0.114236 0.0259653 0)
(-0.118175 0.0242682 0)
(-0.121828 0.0223337 0)
(-0.125164 0.0201663 0)
(-0.128154 0.0177737 0)
(-0.130771 0.0151671 0)
(-0.132989 0.0123611 0)
(-0.134783 0.0093735 0)
(-0.136132 0.00622555 0)
(-0.137018 0.00294163 0)
(-0.137423 -0.000450858 0)
(-0.137336 -0.00392169 0)
(-0.136746 -0.00743801 0)
(-0.135649 -0.0109647 0)
(-0.13404 -0.0144647 0)
(-0.131924 -0.0178996 0)
(-0.129306 -0.0212296 0)
(-0.126198 -0.0244147 0)
(-0.122616 -0.0274148 0)
(-0.11858 -0.0301906 0)
(-0.114118 -0.0327041 0)
(-0.109259 -0.0349196 0)
(-0.104042 -0.0368039 0)
(-0.0985057 -0.0383279 0)
(-0.0926977 -0.0394668 0)
(-0.0866681 -0.0402008 0)
(-0.0804708 -0.0405162 0)
(-0.0741633 -0.0404055 0)
(-0.0678053 -0.0398684 0)
(-0.061458 -0.0389117 0)
(-0.0551831 -0.0375499 0)
(-0.0490416 -0.0358047 0)
(-0.0430929 -0.0337056 0)
(-0.0373934 -0.0312889 0)
(-0.0319951 -0.0285974 0)
(-0.026945 -0.0256802 0)
(-0.0222837 -0.0225913 0)
(-0.0180444 -0.0193894 0)
(-0.0142521 -0.0161367 0)
(-0.0109233 -0.0128986 0)
(-0.00806504 -0.0097427 0)
(-0.00567469 -0.00673824 0)
(-0.00373997 -0.00395605 0)
(-0.00223872 -0.00146812 0)
(-0.00113902 0.000652337 0)
(-0.000399247 0.00233077 0)
(3.17376e-05 0.00349095 0)
(0.000214111 0.00405455 0)
(0.000216565 0.00394088 0)
(0.000121836 0.00306639 0)
(3.08737e-05 0.00134036 0)
(-0.000101381 0.00118097 0)
(-0.000687209 0.00384913 0)
(-0.00195445 0.00665948 0)
(-0.00376496 0.00949605 0)
(-0.006041 0.0122789 0)
(-0.00873492 0.0149522 0)
(-0.011801 0.0174803 0)
(-0.0151975 0.0198436 0)
(-0.0188885 0.0220343 0)
(-0.0228431 0.024053 0)
(-0.0270344 0.0259054 0)
(-0.0314392 0.0275998 0)
(-0.0360367 0.0291449 0)
(-0.0408079 0.0305483 0)
(-0.0457347 0.0318152 0)
(-0.0507995 0.0329481 0)
(-0.0559842 0.0339462 0)
(-0.06127 0.0348051 0)
(-0.0666368 0.0355177 0)
(-0.072063 0.0360741 0)
(-0.0775255 0.0364625 0)
(-0.0829993 0.0366692 0)
(-0.0884578 0.0366801 0)
(-0.0938728 0.0364807 0)
(-0.0992147 0.0360569 0)
(-0.104453 0.0353957 0)
(-0.109555 0.0344857 0)
(-0.114489 0.0333174 0)
(-0.119223 0.0318838 0)
(-0.123724 0.0301806 0)
(-0.127959 0.0282067 0)
(-0.131896 0.0259643 0)
(-0.135504 0.0234587 0)
(-0.138755 0.0206992 0)
(-0.141618 0.0176985 0)
(-0.144068 0.014473 0)
(-0.146079 0.0110427 0)
(-0.147629 0.00743122 0)
(-0.148698 0.00366555 0)
(-0.149267 -0.000223979 0)
(-0.149322 -0.00420389 0)
(-0.148852 -0.00823798 0)
(-0.147848 -0.0122874 0)
(-0.146306 -0.0163112 0)
(-0.144225 -0.0202664 0)
(-0.141611 -0.0241091 0)
(-0.138472 -0.0277942 0)
(-0.134821 -0.0312768 0)
(-0.130677 -0.0345123 0)
(-0.126065 -0.0374575 0)
(-0.121015 -0.0400713 0)
(-0.115561 -0.0423153 0)
(-0.109745 -0.0441553 0)
(-0.103613 -0.0455616 0)
(-0.0972164 -0.0465101 0)
(-0.0906106 -0.046983 0)
(-0.0838556 -0.04697 0)
(-0.0770143 -0.0464682 0)
(-0.0701519 -0.0454832 0)
(-0.0633349 -0.0440293 0)
(-0.0566297 -0.0421292 0)
(-0.0501014 -0.0398144 0)
(-0.0438126 -0.0371247 0)
(-0.0378218 -0.0341077 0)
(-0.0321825 -0.0308182 0)
(-0.0269417 -0.0273172 0)
(-0.0221386 -0.0236713 0)
(-0.0178042 -0.0199513 0)
(-0.01396 -0.016232 0)
(-0.0106177 -0.0125905 0)
(-0.00777881 -0.00910639 0)
(-0.00543416 -0.00586042 0)
(-0.0035642 -0.00293476 0)
(-0.00213889 -0.000412624 0)
(-0.00111794 0.00162161 0)
(-0.000451032 0.0030821 0)
(-7.83424e-05 0.00388113 0)
(6.88299e-05 0.0039289 0)
(7.13488e-05 0.00313328 0)
(2.37683e-05 0.00139536 0)
(-0.000115785 0.00155253 0)
(-0.000776918 0.00488651 0)
(-0.00219831 0.00828954 0)
(-0.00421823 0.0116512 0)
(-0.00674461 0.0148979 0)
(-0.00972071 0.0179806 0)
(-0.0130931 0.0208704 0)
(-0.0168137 0.023554 0)
(-0.0208419 0.0260295 0)
(-0.0251431 0.0283026 0)
(-0.0296879 0.0303832 0)
(-0.0344512 0.032283 0)
(-0.0394107 0.0340129 0)
(-0.0445465 0.0355822 0)
(-0.0498397 0.0369968 0)
(-0.055272 0.0382592 0)
(-0.0608247 0.0393678 0)
(-0.0664784 0.0403175 0)
(-0.0722121 0.0410997 0)
(-0.0780038 0.041703 0)
(-0.0838293 0.0421136 0)
(-0.0896631 0.0423164 0)
(-0.0954777 0.0422955 0)
(-0.101244 0.042035 0)
(-0.106933 0.0415196 0)
(-0.112511 0.0407352 0)
(-0.117948 0.0396696 0)
(-0.12321 0.0383129 0)
(-0.128264 0.0366581 0)
(-0.133077 0.0347008 0)
(-0.137617 0.0324405 0)
(-0.141851 0.0298799 0)
(-0.145747 0.0270256 0)
(-0.149276 0.0238878 0)
(-0.152407 0.0204808 0)
(-0.155114 0.0168226 0)
(-0.15737 0.0129353 0)
(-0.159151 0.00884456 0)
(-0.160435 0.00457982 0)
(-0.161203 0.000174086 0)
(-0.161438 -0.00433623 0)
(-0.161125 -0.00891169 0)
(-0.160255 -0.0135099 0)
(-0.15882 -0.0180861 0)
(-0.156817 -0.0225932 0)
(-0.154248 -0.0269825 0)
(-0.151117 -0.0312045 0)
(-0.147436 -0.0352088 0)
(-0.143221 -0.0389456 0)
(-0.138494 -0.042366 0)
(-0.133282 -0.0454231 0)
(-0.12762 -0.048073 0)
(-0.121546 -0.0502754 0)
(-0.115108 -0.0519952 0)
(-0.108357 -0.0532031 0)
(-0.101349 -0.0538767 0)
(-0.0941478 -0.0540016 0)
(-0.0868182 -0.0535718 0)
(-0.0794298 -0.0525908 0)
(-0.0720539 -0.0510718 0)
(-0.0647626 -0.049038 0)
(-0.0576274 -0.0465225 0)
(-0.0507175 -0.0435682 0)
(-0.0440989 -0.0402271 0)
(-0.0378321 -0.03656 0)
(-0.0319714 -0.0326349 0)
(-0.0265632 -0.0285265 0)
(-0.021645 -0.0243149 0)
(-0.0172445 -0.0200847 0)
(-0.0133787 -0.0159235 0)
(-0.0100538 -0.0119215 0)
(-0.00726461 -0.00817039 0)
(-0.00499456 -0.00476317 0)
(-0.00321598 -0.00179375 0)