/*--------------------------------*- C++ -*----------------------------------*\
  =========                 |
  \\      /  F ield         | OpenFOAM: The Open Source CFD Toolbox
   \\    /   O peration     | Website:  https://openfoam.org
    \\  /    A nd           | Version:  7
     \\/     M anipulation  |
\*---------------------------------------------------------------------------*/
FoamFile
{
    version     2.0;
    format      ascii;
    class       surfaceScalarField;
    location    "2.4";
    object      phi;
}
// * * * * * * * * * * * * * * * * * * * * * * * * * * * * * * * * * * * * * //

dimensions      [0 3 -1 0 0 0 0];

internalField   nonuniform List<scalar> 
12640
(
4.04192e-10
-3.93524e-10
1.54007e-09
-1.13584e-09
2.9439e-09
-1.4039e-09
4.25077e-09
-1.30683e-09
5.25273e-09
-1.00196e-09
5.84403e-09
-5.9129e-10
5.98104e-09
-1.37031e-10
5.65596e-09
3.25038e-10
4.87921e-09
7.76748e-10
3.66807e-09
1.21115e-09
2.03999e-09
1.62809e-09
9.01006e-12
2.03095e-09
-2.4153e-09
2.42429e-09
-5.22959e-09
2.81431e-09
-8.4346e-09
3.20501e-09
-1.20343e-08
3.59969e-09
-1.60345e-08
4.00021e-09
-2.04413e-08
4.40675e-09
-2.52591e-08
4.81781e-09
-3.04894e-08
5.23031e-09
-3.61289e-08
5.63959e-09
-4.21686e-08
6.03959e-09
-4.85916e-08
6.42304e-09
-5.53731e-08
6.78149e-09
-6.24786e-08
7.10548e-09
-6.98634e-08
7.38479e-09
-7.7472e-08
7.60859e-09
-8.52377e-08
7.76574e-09
-9.30828e-08
7.84501e-09
-1.00918e-07
7.83541e-09
-1.08645e-07
7.72655e-09
-1.16154e-07
7.50903e-09
-1.23329e-07
7.17481e-09
-1.30046e-07
6.71766e-09
-1.3618e-07
6.13353e-09
-1.41601e-07
5.42099e-09
-1.46182e-07
4.58156e-09
-1.49802e-07
3.62003e-09
-1.52347e-07
2.5447e-09
-1.53714e-07
1.36736e-09
-1.53822e-07
1.0747e-10
-1.52595e-07
-1.22636e-09
-1.49996e-07
-2.59969e-09
-1.46004e-07
-3.9921e-09
-1.40629e-07
-5.37481e-09
-1.33911e-07
-6.71769e-09
-1.25921e-07
-7.98973e-09
-1.16762e-07
-9.1599e-09
-1.06563e-07
-1.01983e-08
-9.54862e-08
-1.10771e-08
-8.37143e-08
-1.17719e-08
-7.14516e-08
-1.22627e-08
-5.89165e-08
-1.25351e-08
-4.63359e-08
-1.25806e-08
-3.39383e-08
-1.23976e-08
-2.19468e-08
-1.19915e-08
-1.0573e-08
-1.13738e-08
-8.99232e-12
-1.0564e-08
9.59311e-09
-9.6021e-09
1.80812e-08
-8.48807e-09
2.53533e-08
-7.27213e-09
3.13416e-08
-5.98832e-09
3.60122e-08
-4.67057e-09
3.93646e-08
-3.35243e-09
4.14297e-08
-2.06503e-09
4.22655e-08
-8.35847e-10
4.19534e-08
3.12071e-10
4.05932e-08
1.36024e-09
3.82987e-08
2.29454e-09
3.51945e-08
3.10416e-09
3.14145e-08
3.77995e-09
2.71026e-08
4.312e-09
2.24163e-08
4.68627e-09
1.75359e-08
4.88036e-09
1.26774e-08
4.85852e-09
8.10982e-09
4.56757e-09
4.17223e-09
3.93758e-09
1.28275e-09
2.88948e-09
-1.09153e-10
1.3919e-09
-1.09159e-10
1.15502e-09
-1.5485e-09
3.41139e-09
-3.39212e-09
5.92641e-09
-3.91889e-09
8.08567e-09
-3.46623e-09
9.47378e-09
-2.39007e-09
9.841e-09
-9.58409e-10
9.05782e-09
6.46152e-10
7.07212e-09
2.31072e-09
3.87766e-09
3.97126e-09
-5.09039e-10
5.59787e-09
-6.06411e-09
7.18315e-09
-1.27655e-08
8.73241e-09
-2.05982e-08
1.0257e-08
-2.95541e-08
1.17702e-08
-3.96323e-08
1.32832e-08
-5.08362e-08
1.48036e-08
-6.31699e-08
1.6334e-08
-7.66347e-08
1.78716e-08
-9.12247e-08
1.94079e-08
-1.06923e-07
2.09289e-08
-1.23699e-07
2.24153e-08
-1.41502e-07
2.38429e-08
-1.60263e-07
2.51833e-08
-1.79886e-07
2.64045e-08
-2.00252e-07
2.74715e-08
-2.21214e-07
2.83469e-08
-2.42597e-07
2.89924e-08
-2.64201e-07
2.93691e-08
-2.85795e-07
2.9439e-08
-3.07126e-07
2.91662e-08
-3.27917e-07
2.85179e-08
-3.47874e-07
2.7466e-08
-3.66687e-07
2.59881e-08
-3.84039e-07
2.40692e-08
-3.99608e-07
2.17025e-08
-4.13078e-07
1.8891e-08
-4.24144e-07
1.56477e-08
-4.32521e-07
1.19972e-08
-4.37952e-07
7.97554e-09
-4.40215e-07
3.63044e-09
-4.39132e-07
-9.75435e-10
-4.34576e-07
-5.78291e-09
-4.26475e-07
-1.07003e-08
-4.14824e-07
-1.56431e-08
-3.99683e-07
-2.0516e-08
-3.81181e-07
-2.52192e-08
-3.5952e-07
-2.96513e-08
-3.34968e-07
-3.37118e-08
-3.07861e-07
-3.73048e-08
-2.78596e-07
-4.03419e-08
-2.47623e-07
-4.27458e-08
-2.15432e-07
-4.44533e-08
-1.82549e-07
-4.54183e-08
-1.49515e-07
-4.56142e-08
-1.16877e-07
-4.50354e-08
-8.51708e-08
-4.36981e-08
-5.49043e-08
-4.16404e-08
-2.65452e-08
-3.8923e-08
-5.21081e-10
-3.56262e-08
2.28301e-08
-3.18393e-08
4.32213e-08
-2.76633e-08
6.04523e-08
-2.32193e-08
7.44022e-08
-1.86204e-08
8.50301e-08
-1.39803e-08
9.23718e-08
-9.40673e-09
9.65334e-08
-4.99753e-09
9.76839e-08
-8.38428e-10
9.60462e-08
2.99803e-09
9.18886e-08
6.45211e-09
8.55189e-08
9.47386e-09
7.72801e-08
1.20187e-08
6.75513e-08
1.40408e-08
5.67539e-08
1.54837e-08
4.53632e-08
1.62711e-08
3.39247e-08
1.62969e-08
2.30703e-08
1.5422e-08
1.35209e-08
1.3487e-08
6.05578e-09
1.03546e-08
1.40373e-09
6.04394e-09
1.29457e-09
1.43522e-09
-2.98379e-09
3.94307e-09
-5.89986e-09
6.44584e-09
-6.42168e-09
8.21002e-09
-5.23042e-09
8.73159e-09
-2.91163e-09
7.69033e-09
8.27913e-11
4.90654e-09
3.42992e-09
2.91606e-10
6.9257e-09
-6.18294e-09
1.04458e-08
-1.45142e-08
1.39291e-08
-2.46857e-08
1.73546e-08
-3.6679e-08
2.07258e-08
-5.04802e-08
2.40582e-08
-6.60809e-08
2.73709e-08
-8.34771e-08
3.06794e-08
-1.02666e-07
3.39923e-08
-1.2364e-07
3.73085e-08
-1.46385e-07
4.06159e-08
-1.70868e-07
4.38911e-08
-1.97039e-07
4.70996e-08
-2.2482e-07
5.01964e-08
-2.54104e-07
5.31273e-08
-2.8475e-07
5.58296e-08
-3.1658e-07
5.82341e-08
-3.49375e-07
6.02665e-08
-3.82878e-07
6.18495e-08
-4.1679e-07
6.29045e-08
-4.50775e-07
6.33542e-08
-4.84461e-07
6.31247e-08
-5.17442e-07
6.21481e-08
-5.4929e-07
6.03652e-08
-5.79552e-07
5.77279e-08
-6.07765e-07
5.42014e-08
-6.33463e-07
4.97672e-08
-6.56185e-07
4.44244e-08
-6.75486e-07
3.81917e-08
-6.90947e-07
3.11087e-08
-7.02186e-07
2.32369e-08
-7.08871e-07
1.46598e-08
-7.10723e-07
5.48276e-09
-7.07529e-07
-4.1696e-09
-6.99156e-07
-1.41553e-08
-6.85549e-07
-2.43072e-08
-6.66741e-07
-3.4451e-08
-6.42857e-07
-4.44006e-08
-6.14113e-07
-5.3963e-08
-5.8082e-07
-6.2944e-08
-5.43379e-07
-7.1153e-08
-5.02276e-07
-7.84085e-08
-4.58073e-07
-8.45442e-08
-4.11404e-07
-8.94147e-08
-3.62957e-07
-9.2901e-08
-3.13459e-07
-9.49156e-08
-2.63667e-07
-9.54067e-08
-2.14341e-07
-9.43613e-08
-1.66232e-07
-9.18069e-08
-1.2006e-07
-8.78122e-08
-7.64977e-08
-8.24857e-08
-3.61519e-08
-7.5972e-08
4.51718e-10
-6.84429e-08
3.2889e-08
-6.01005e-08
6.08267e-08
-5.1157e-08
8.4047e-08
-4.18407e-08
1.02442e-07
-3.23754e-08
1.16013e-07
-2.29773e-08
1.24863e-07
-1.3848e-08
1.29193e-07
-5.16879e-09
1.2929e-07
2.9013e-09
1.25516e-07
1.02261e-08
1.18303e-07
1.66872e-08
1.08144e-07
2.21773e-08
9.5596e-08
2.6589e-08
8.12784e-08
2.98012e-08
6.58854e-08
3.16642e-08
5.01941e-08
3.19882e-08
3.50733e-08
3.05427e-08
2.14788e-08
2.70816e-08
1.04245e-08
2.14088e-08
2.92651e-09
1.3542e-08
4.22107e-09
1.31864e-09
-4.30243e-09
3.36406e-09
-7.94537e-09
4.96072e-09
-8.0183e-09
5.33289e-09
-5.60254e-09
3.95324e-09
-1.532e-09
4.89407e-10
3.54658e-09
-5.25955e-09
9.1789e-09
-1.33971e-08
1.50633e-08
-2.39685e-08
2.10171e-08
-3.69845e-08
2.69451e-08
-5.24404e-08
3.28106e-08
-7.03269e-08
3.86122e-08
-9.06348e-08
4.43662e-08
-1.13357e-07
5.00927e-08
-1.38484e-07
5.58066e-08
-1.66002e-07
6.15109e-08
-1.95887e-07
6.7193e-08
-2.28094e-07
7.28228e-08
-2.62555e-07
7.83521e-08
-2.9917e-07
8.37152e-08
-3.37804e-07
8.88298e-08
-3.78276e-07
9.35994e-08
-4.20362e-07
9.79153e-08
-4.63787e-07
1.0166e-07
-5.08229e-07
1.04708e-07
-5.53314e-07
1.06934e-07
-5.9862e-07
1.08211e-07
-6.43684e-07
1.08418e-07
-6.88e-07
1.07441e-07
-7.31035e-07
1.05182e-07
-7.72227e-07
1.01558e-07
-8.11003e-07
9.6504e-08
-8.46785e-07
8.99833e-08
-8.79002e-07
8.19838e-08
-9.07101e-07
7.25234e-08
-9.3056e-07
6.16514e-08
-9.48901e-07
4.94496e-08
-9.61698e-07
3.60332e-08
-9.68588e-07
2.15499e-08
-9.69285e-07
6.17997e-09
-9.6358e-07
-9.87441e-09
-9.51362e-07
-2.63738e-08
-9.3261e-07
-4.30587e-08
-9.07408e-07
-5.96533e-08
-8.7594e-07
-7.5868e-08
-8.38498e-07
-9.14056e-08
-7.95473e-07
-1.05969e-07
-7.47359e-07
-1.19267e-07
-6.94742e-07
-1.31025e-07
-6.38296e-07
-1.4099e-07
-5.78771e-07
-1.4894e-07
-5.16979e-07
-1.54693e-07
-4.53781e-07
-1.58113e-07
-3.90071e-07
-1.59117e-07
-3.26755e-07
-1.57678e-07
-2.64729e-07
-1.53832e-07
-2.04867e-07
-1.47675e-07
-1.4799e-07
-1.39363e-07
-9.4853e-08
-1.29109e-07
-4.61232e-08
-1.17173e-07
-2.36644e-09
-1.03857e-07
3.59709e-08
-8.94944e-08
6.85633e-08
-7.44331e-08
9.52171e-08
-5.90292e-08
1.1587e-07
-4.36303e-08
1.30589e-07
-2.85668e-08
1.39563e-07
-1.41428e-08
1.43096e-07
-6.31918e-10
1.41597e-07
1.1725e-08
1.35571e-07
2.27134e-08
1.25611e-07
3.21376e-08
1.12394e-07
3.98061e-08
9.66808e-08
4.5514e-08
7.93198e-08
4.90252e-08
6.12493e-08
5.00587e-08
4.35031e-08
4.82889e-08
2.72111e-08
4.33736e-08
1.35972e-08
3.50227e-08
3.99383e-09
2.31453e-08
8.2149e-09
9.29486e-10
-5.23195e-09
1.9328e-09
-8.94873e-09
1.87205e-09
-7.9575e-09
3.75471e-12
-3.73425e-09
-4.15726e-09
2.62898e-09
-1.09291e-08
1.03185e-08
-2.04973e-08
1.87472e-08
-3.29637e-08
2.75297e-08
-4.83787e-08
3.64321e-08
-6.67633e-08
4.53297e-08
-8.81238e-08
5.41711e-08
-1.1246e-07
6.29487e-08
-1.39769e-07
7.16753e-08
-1.70044e-07
8.03668e-08
-2.03267e-07
8.90298e-08
-2.39409e-07
9.7653e-08
-2.78419e-07
1.06203e-07
-3.20216e-07
1.1462e-07
-3.64684e-07
1.22821e-07
-4.11665e-07
1.30696e-07
-4.60949e-07
1.38115e-07
-5.12277e-07
1.44927e-07
-5.6533e-07
1.50969e-07
-6.19734e-07
1.56063e-07
-6.75056e-07
1.6003e-07
-7.30809e-07
1.62687e-07
-7.86456e-07
1.63858e-07
-8.41416e-07
1.63378e-07
-8.95072e-07
1.61098e-07
-9.46782e-07
1.56892e-07
-9.95886e-07
1.50662e-07
-1.04172e-06
1.42339e-07
-1.08363e-06
1.31895e-07
-1.12099e-06
1.19339e-07
-1.15319e-06
1.0472e-07
-1.17967e-06
8.8134e-08
-1.19994e-06
6.97184e-08
-1.21356e-06
4.96552e-08
-1.22018e-06
2.8169e-08
-1.21952e-06
5.52523e-09
-1.21141e-06
-1.79891e-08
-1.19575e-06
-4.2029e-08
-1.17258e-06
-6.62359e-08
-1.142e-06
-9.02289e-08
-1.10426e-06
-1.13611e-07
-1.05968e-06
-1.35979e-07
-1.00872e-06
-1.56928e-07
-9.51926e-07
-1.76066e-07
-8.89931e-07
-1.93019e-07
-8.23477e-07
-2.07445e-07
-7.53378e-07
-2.19039e-07
-6.80522e-07
-2.27549e-07
-6.0585e-07
-2.32785e-07
-5.30343e-07
-2.34623e-07
-4.55006e-07
-2.33016e-07
-3.80841e-07
-2.27997e-07
-3.08832e-07
-2.19683e-07
-2.39922e-07
-2.08273e-07
-1.74989e-07
-1.94042e-07
-1.14825e-07
-1.77336e-07
-6.01203e-08
-1.58562e-07
-1.14431e-08
-1.38172e-07
3.07716e-08
-1.16648e-07
6.62309e-08
-9.44885e-08
9.47896e-08
-7.2189e-08
1.16451e-07
-5.02277e-08
1.31362e-07
-2.90542e-08
1.3981e-07
-9.08014e-09
1.42212e-07
9.32281e-09
1.39106e-07
2.58198e-08
1.31141e-07
4.01026e-08
1.19072e-07
5.18748e-08
1.03755e-07
6.08309e-08
8.61449e-08
6.66358e-08
6.72952e-08
6.89083e-08
4.83659e-08
6.72183e-08
3.0632e-08
6.11074e-08
1.55093e-08
5.01454e-08
4.61799e-09
3.40366e-08
1.28329e-08
3.45865e-10
-5.57776e-09
-1.57127e-10
-8.44571e-09
-2.4996e-09
-5.61509e-09
-7.31988e-09
1.08602e-09
-1.50294e-08
1.03385e-08
-2.5878e-08
2.11671e-08
-4.00146e-08
3.28837e-08
-5.75221e-08
4.50373e-08
-7.84457e-08
5.73557e-08
-1.0281e-07
6.96938e-08
-1.30629e-07
8.19898e-08
-1.61909e-07
9.42294e-08
-1.96653e-07
1.06419e-07
-2.34848e-07
1.18562e-07
-2.76468e-07
1.3065e-07
-3.21461e-07
1.42646e-07
-3.69743e-07
1.54484e-07
-4.21188e-07
1.66065e-07
-4.75623e-07
1.77256e-07
-5.32822e-07
1.87894e-07
-5.92495e-07
1.97788e-07
-6.54295e-07
2.06727e-07
-7.17807e-07
2.1448e-07
-7.82554e-07
2.2081e-07
-8.47998e-07
2.25474e-07
-9.13548e-07
2.28236e-07
-9.78563e-07
2.28873e-07
-1.04236e-06
2.27179e-07
-1.10425e-06
2.2298e-07
-1.16348e-06
2.16131e-07
-1.21935e-06
2.06532e-07
-1.27114e-06
1.94123e-07
-1.31814e-06
1.78898e-07
-1.3597e-06
1.60898e-07
-1.3952e-06
1.40222e-07
-1.42409e-06
1.1702e-07
-1.44586e-06
9.14953e-08
-1.46012e-06
6.39056e-08
-1.4665e-06
3.45576e-08
-1.46479e-06
3.8081e-09
-1.4548e-06
-2.79774e-08
-1.43649e-06
-6.03412e-08
-1.40989e-06
-9.28287e-08
-1.37517e-06
-1.24956e-07
-1.33256e-06
-1.56222e-07
-1.28242e-06
-1.86117e-07
-1.22521e-06
-2.14133e-07
-1.1615e-06
-2.39774e-07
-1.09196e-06
-2.62566e-07
-1.01733e-06
-2.82071e-07
-9.38469e-07
-2.97901e-07
-8.56295e-07
-3.09724e-07
-7.71796e-07
-3.17284e-07
-6.86012e-07
-3.20407e-07
-6.00013e-07
-3.19014e-07
-5.14885e-07
-3.13125e-07
-4.31705e-07
-3.02864e-07
-3.51518e-07
-2.8846e-07
-2.75315e-07
-2.70245e-07
-2.04007e-07
-2.48644e-07
-1.38406e-07
-2.24163e-07
-7.92036e-08
-1.97374e-07
-2.69527e-08
-1.68899e-07
1.79437e-08
-1.39385e-07
5.52423e-08
-1.09488e-07
8.48626e-08
-7.98481e-08
1.06889e-07
-5.10809e-08
1.21566e-07
-2.37568e-08
1.29289e-07
1.59949e-09
1.30599e-07
2.45099e-08
1.2617e-07
4.45318e-08
1.16801e-07
6.1244e-08
1.03408e-07
7.42235e-08
8.70213e-08
8.30226e-08
6.87819e-08
8.71478e-08
4.99503e-08
8.60499e-08
3.19251e-08
7.91326e-08
1.62845e-08
6.5786e-08
4.87029e-09
4.54509e-08
1.77032e-08
-3.86847e-10
-5.19088e-09
-2.76823e-09
-6.06435e-09
-7.9162e-09
-4.67179e-10
-1.63002e-08
9.4701e-09
-2.82039e-08
2.22423e-08
-4.3787e-08
3.67502e-08
-6.31365e-08
5.22332e-08
-8.63e-08
6.82007e-08
-1.13306e-07
8.43619e-08
-1.44176e-07
1.00564e-07
-1.78926e-07
1.1674e-07
-2.17568e-07
1.32871e-07
-2.60103e-07
1.48953e-07
-3.06512e-07
1.64972e-07
-3.56753e-07
1.80891e-07
-4.10746e-07
1.96639e-07
-4.68365e-07
2.12104e-07
-5.29435e-07
2.27135e-07
-5.93717e-07
2.41539e-07
-6.60911e-07
2.55087e-07
-7.30644e-07
2.67522e-07
-8.02478e-07
2.78561e-07
-8.75903e-07
2.87905e-07
-9.50344e-07
2.95252e-07
-1.02517e-06
3.003e-07
-1.0997e-06
3.02763e-07
-1.1732e-06
3.02376e-07
-1.24493e-06
2.98907e-07
-1.31411e-06
2.92161e-07
-1.37997e-06
2.81994e-07
-1.44175e-06
2.68314e-07
-1.49872e-06
2.51084e-07
-1.55015e-06
2.30333e-07
-1.5954e-06
2.06148e-07
-1.63386e-06
1.78681e-07
-1.66499e-06
1.48147e-07
-1.68831e-06
1.1482e-07
-1.70344e-06
7.90332e-08
-1.71006e-06
4.11747e-08
-1.70795e-06
1.70221e-09
-1.69695e-06
-3.89765e-08
-1.67703e-06
-8.02668e-08
-1.64822e-06
-1.21633e-07
-1.61068e-06
-1.62497e-07
-1.56465e-06
-2.02256e-07
-1.51046e-06
-2.403e-07
-1.44858e-06
-2.76019e-07
-1.37954e-06
-3.08813e-07
-1.304e-06
-3.38106e-07
-1.22271e-06
-3.63363e-07
-1.13651e-06
-3.84097e-07
-1.04634e-06
-3.99892e-07
-9.53215e-07
-4.10412e-07
-8.58203e-07
-4.1542e-07
-7.6243e-07
-4.14787e-07
-6.67052e-07
-4.08503e-07
-5.73228e-07
-3.96687e-07
-4.82103e-07
-3.79585e-07
-3.94778e-07
-3.57571e-07
-3.12286e-07
-3.31136e-07
-2.35564e-07
-3.00884e-07
-1.65435e-07
-2.67504e-07
-1.02578e-07
-2.31755e-07
-4.75195e-08
-1.94444e-07
-6.14157e-10
-1.56393e-07
3.79614e-08
-1.18424e-07
6.82083e-08
-8.13278e-08
9.03085e-08
-4.5857e-08
1.04617e-07
-1.27093e-08
1.11655e-07
1.74717e-08
1.12098e-07
4.4089e-08
1.06766e-07
6.65768e-08
9.66115e-08
8.43776e-08
8.27184e-08
9.69156e-08
6.62953e-08
1.03571e-07
4.8685e-08
1.0366e-07
3.13876e-08
9.643e-08
1.61056e-08
8.1068e-08
4.82688e-09
5.67296e-08
2.253e-08
-1.23781e-09
-3.95309e-09
-5.80719e-09
-1.49494e-09
-1.41945e-08
7.92016e-09
-2.66536e-08
2.19292e-08
-4.32997e-08
3.88883e-08
-6.4172e-08
5.76225e-08
-8.92762e-08
7.73374e-08
-1.1861e-07
9.75345e-08
-1.52176e-07
1.17928e-07
-1.89984e-07
1.38372e-07
-2.32049e-07
1.58805e-07
-2.78381e-07
1.79204e-07
-3.28977e-07
1.99549e-07
-3.83806e-07
2.19801e-07
-4.42803e-07
2.39888e-07
-5.05855e-07
2.5969e-07
-5.7279e-07
2.79039e-07
-6.43373e-07
2.97718e-07
-7.17299e-07
3.15465e-07
-7.94189e-07
3.31977e-07
-8.73587e-07
3.4692e-07
-9.54966e-07
3.59939e-07
-1.03773e-06
3.70667e-07
-1.12121e-06
3.78737e-07
-1.20471e-06
3.83795e-07
-1.28746e-06
3.85513e-07
-1.36868e-06
3.83596e-07
-1.44756e-06
3.77794e-07
-1.52331e-06
3.67911e-07
-1.59513e-06
3.53814e-07
-1.66225e-06
3.35431e-07
-1.72393e-06
3.12765e-07
-1.77948e-06
2.85883e-07
-1.82826e-06
2.5493e-07
-1.8697e-06
2.20115e-07
-1.90327e-06
1.81718e-07
-1.92853e-06
1.40082e-07
-1.94511e-06
9.56115e-08
-1.9527e-06
4.8764e-08
-1.95113e-06
1.37149e-10
-1.94018e-06
-4.99325e-08
-1.91983e-06
-1.00618e-07
-1.8901e-06
-1.51359e-07
-1.85112e-06
-2.01482e-07
-1.80308e-06
-2.50294e-07
-1.74629e-06
-2.97087e-07
-1.68116e-06
-3.4115e-07
-1.60819e-06
-3.81781e-07
-1.528e-06
-4.18298e-07
-1.4413e-06
-4.50058e-07
-1.34893e-06
-4.76473e-07
-1.2518e-06
-4.97023e-07
-1.15093e-06
-5.11282e-07
-1.04742e-06
-5.18928e-07
-9.42439e-07
-5.19766e-07
-8.37205e-07
-5.13738e-07
-7.32958e-07
-5.00934e-07
-6.30942e-07
-4.81601e-07
-5.32375e-07
-4.56138e-07
-4.38416e-07
-4.25095e-07
-3.50142e-07
-3.89158e-07
-2.68513e-07
-3.49132e-07
-1.94352e-07
-3.05917e-07
-1.28319e-07
-2.60477e-07
-7.0895e-08
-2.13817e-07
-2.23727e-08
-1.66946e-07
1.71552e-08
-1.20856e-07
4.77926e-08
-7.64944e-08
6.98378e-08
-3.47545e-08
8.37757e-08
3.53383e-09
9.02662e-08
3.75984e-08
9.01336e-08
6.67094e-08
8.43543e-08
9.01569e-08
7.40492e-08
1.07221e-07
6.048e-08
1.1714e-07
4.50563e-08
1.19084e-07
2.93566e-08
1.1213e-07
1.5169e-08
9.52555e-08
4.55965e-09
6.73389e-08
2.70897e-08
-2.18914e-09
-1.76399e-09
-9.20149e-09
5.51747e-09
-2.1192e-08
1.99107e-08
-3.81502e-08
3.88874e-08
-5.99907e-08
6.07287e-08
-8.66069e-08
8.42388e-08
-1.17905e-07
1.08636e-07
-1.53821e-07
1.33451e-07
-1.94323e-07
1.58429e-07
-2.39404e-07
1.83452e-07
-2.89069e-07
2.08471e-07
-3.43325e-07
2.33459e-07
-4.02156e-07
2.5838e-07
-4.65516e-07
2.83162e-07
-5.33311e-07
3.07683e-07
-6.05386e-07
3.31766e-07
-6.81521e-07
3.55174e-07
-7.61418e-07
3.77615e-07
-8.44701e-07
3.98748e-07
-9.30914e-07
4.1819e-07
-1.01952e-06
4.35528e-07
-1.10991e-06
4.50333e-07
-1.20142e-06
4.62172e-07
-1.29331e-06
4.70623e-07
-1.3848e-06
4.75288e-07
-1.47509e-06
4.75807e-07
-1.56337e-06
4.71869e-07
-1.64879e-06
4.63221e-07
-1.73056e-06
4.4968e-07
-1.80788e-06
4.31133e-07
-1.88e-06
4.07546e-07
-1.94619e-06
3.7896e-07
-2.00581e-06
3.45497e-07
-2.05823e-06
3.07354e-07
-2.10292e-06
2.648e-07
-2.13937e-06
2.18175e-07
-2.16718e-06
1.67886e-07
-2.18597e-06
1.14401e-07
-2.19544e-06
5.82395e-08
-2.19539e-06
8.66469e-11
-2.18562e-06
-5.97001e-08
-2.16607e-06
-1.20175e-07
-2.1367e-06
-1.80723e-07
-2.0976e-06
-2.40589e-07
-2.0489e-06
-2.98993e-07
-1.99085e-06
-3.55137e-07
-1.92379e-06
-4.08211e-07
-1.84816e-06
-4.5741e-07
-1.76451e-06
-5.01942e-07
-1.67352e-06
-5.41051e-07
-1.57596e-06
-5.74031e-07
-1.47274e-06
-6.0025e-07
-1.36485e-06
-6.19169e-07
-1.25341e-06
-6.30364e-07
-1.13963e-06
-6.33551e-07
-1.02477e-06
-6.28597e-07
-9.10158e-07
-6.15545e-07
-7.97142e-07
-5.94617e-07
-6.8706e-07
-5.6622e-07
-5.81212e-07
-5.30943e-07
-4.80823e-07
-4.89548e-07
-3.8701e-07
-4.42945e-07
-3.00754e-07
-3.92172e-07
-2.22869e-07
-3.38362e-07
-1.53981e-07
-2.82705e-07
-9.45092e-08
-2.26417e-07
-4.46613e-08
-1.70704e-07
-4.42499e-09
-1.16731e-07
2.64272e-08
-6.56067e-08
4.83313e-08
-1.83702e-08
6.19205e-08
2.40093e-08
6.8012e-08
6.06179e-08
6.75942e-08
9.05746e-08
6.18162e-08
1.12999e-07
5.19818e-08
1.26974e-07
3.95532e-08
1.31512e-07
2.61666e-08
1.25516e-07
1.36623e-08
1.0776e-07
4.13195e-09
7.68693e-08
3.12216e-08
-3.22601e-09
1.46202e-09
-1.28957e-08
1.51871e-08
-2.87868e-08
3.58018e-08
-5.05881e-08
6.06887e-08
-7.79839e-08
8.81246e-08
-1.10701e-07
1.16956e-07
-1.48531e-07
1.46466e-07
-1.91339e-07
1.76258e-07
-2.3905e-07
2.0614e-07
-2.91634e-07
2.36037e-07
-3.49086e-07
2.65922e-07
-4.11397e-07
2.9577e-07
-4.78539e-07
3.25522e-07
-5.50441e-07
3.55064e-07
-6.26975e-07
3.84217e-07
-7.07943e-07
4.12734e-07
-7.93068e-07
4.40299e-07
-8.81991e-07
4.66537e-07
-9.74264e-07
4.91021e-07
-1.06936e-06
5.13285e-07
-1.16667e-06
5.32837e-07
-1.26551e-06
5.49179e-07
-1.36516e-06
5.61818e-07
-1.46482e-06
5.70286e-07
-1.56369e-06
5.74152e-07
-1.66092e-06
5.7304e-07
-1.75569e-06
5.66636e-07
-1.84716e-06
5.54699e-07
-1.93455e-06
5.37067e-07
-2.01708e-06
5.13662e-07
-2.09402e-06
4.8449e-07
-2.16471e-06
4.49642e-07
-2.2285e-06
4.09288e-07
-2.28482e-06
3.6368e-07
-2.33316e-06
3.1314e-07
-2.37305e-06
2.58064e-07
-2.40408e-06
1.9891e-07
-2.42588e-06
1.36201e-07
-2.43816e-06
7.05184e-08
-2.44059e-06
2.52044e-09
-2.4331e-06
-6.71871e-08
-2.41549e-06
-1.37791e-07
-2.38768e-06
-2.08531e-07
-2.34968e-06
-2.78589e-07
-2.30156e-06
-3.47109e-07
-2.24349e-06
-4.13206e-07
-2.17573e-06
-4.75978e-07
-2.09862e-06
-5.34513e-07
-2.01266e-06
-5.87908e-07
-1.91842e-06
-6.35287e-07
-1.81664e-06
-6.75815e-07
-1.70815e-06
-7.08732e-07
-1.59396e-06
-7.33367e-07
-1.47515e-06
-7.49173e-07
-1.35295e-06
-7.55747e-07
-1.22869e-06
-7.52861e-07
-1.10376e-06
-7.40476e-07
-9.79608e-07
-7.18766e-07
-8.57709e-07
-6.88118e-07
-7.39509e-07
-6.49143e-07
-6.26399e-07
-6.02658e-07
-5.19672e-07
-5.49671e-07
-4.20488e-07
-4.91356e-07
-3.29836e-07
-4.29014e-07
-2.48508e-07
-3.64033e-07
-1.77076e-07
-2.9785e-07
-1.15878e-07
-2.31902e-07
-6.50108e-08
-1.67598e-07
-2.4333e-08
-1.06285e-07
6.53095e-09
-4.92341e-08
2.81769e-08
2.36331e-09
4.14068e-08
4.7388e-08
4.72137e-08
8.47677e-08
4.67675e-08
1.13445e-07
4.14061e-08
1.32336e-07
3.26334e-08
1.40285e-07
2.21266e-08
1.36023e-07
1.17534e-08
1.18133e-07
3.59788e-09
8.50248e-08
3.48195e-08
-4.33611e-09
5.79811e-09
-1.68385e-08
2.76895e-08
-3.68676e-08
5.58309e-08
-6.37791e-08
8.76001e-08
-9.70027e-08
1.21348e-07
-1.36081e-07
1.56034e-07
-1.80681e-07
1.91067e-07
-2.30587e-07
2.26164e-07
-2.85677e-07
2.6123e-07
-3.45893e-07
2.96253e-07
-4.11212e-07
3.3124e-07
-4.81608e-07
3.66167e-07
-5.57033e-07
4.00947e-07
-6.37387e-07
4.35418e-07
-7.22503e-07
4.69333e-07
-8.12136e-07
5.02366e-07
-9.05951e-07
5.34115e-07
-1.00353e-06
5.64113e-07
-1.10435e-06
5.91844e-07
-1.20783e-06
6.16761e-07
-1.31329e-06
6.38297e-07
-1.42e-06
6.55889e-07
-1.52718e-06
6.68997e-07
-1.63401e-06
6.77117e-07
-1.73966e-06
6.79802e-07
-1.84329e-06
6.76669e-07
-1.94407e-06
6.67417e-07
-2.04119e-06
6.51826e-07
-2.13389e-06
6.29768e-07
-2.22144e-06
6.01205e-07
-2.30313e-06
5.66187e-07
-2.37834e-06
5.24854e-07
-2.44648e-06
4.77424e-07
-2.507e-06
4.24196e-07
-2.5594e-06
3.6554e-07
-2.60323e-06
3.01896e-07
-2.63808e-06
2.33766e-07
-2.6636e-06
1.61714e-07
-2.67944e-06
8.63637e-08
-2.68532e-06
8.39454e-09
-2.68102e-06
-7.14855e-08
-2.66634e-06
-1.52469e-07
-2.64114e-06
-2.33728e-07
-2.60535e-06
-3.14382e-07
-2.55895e-06
-3.93505e-07
-2.50202e-06
-4.70135e-07
-2.43472e-06
-5.43279e-07
-2.35731e-06
-6.11925e-07
-2.27016e-06
-6.75057e-07
-2.17378e-06
-7.3167e-07
-2.0688e-06
-7.80798e-07
-1.956e-06
-8.21532e-07
-1.83631e-06
-8.53055e-07
-1.71081e-06
-8.74669e-07
-1.58073e-06
-8.8583e-07
-1.44741e-06
-8.86177e-07
-1.31233e-06
-8.75561e-07
-1.17702e-06
-8.54071e-07
-1.04309e-06
-8.22047e-07
-9.12149e-07
-7.80089e-07
-7.85758e-07
-7.29048e-07
-6.65413e-07
-6.70016e-07
-5.52476e-07
-6.04293e-07
-4.4814e-07
-5.3335e-07
-3.53391e-07
-4.58782e-07
-2.6898e-07
-3.82261e-07
-1.95402e-07
-3.0548e-07
-1.32884e-07
-2.30115e-07
-8.13892e-08
-1.5778e-07
-4.06164e-08
-9.00069e-08
-1.00183e-08
-2.82348e-08
1.11841e-08
2.61856e-08
2.39819e-08
7.19699e-08
2.9561e-08
1.07866e-07
2.92878e-08
1.32609e-07
2.47003e-08
1.44873e-07
1.75062e-08
1.43217e-07
9.58675e-09
1.26053e-07
3.00257e-09
9.1609e-08
3.78221e-08
-5.50697e-09
1.13051e-08
-2.09792e-08
4.31617e-08
-4.53247e-08
8.01764e-08
-7.7538e-08
1.19813e-07
-1.16775e-07
1.60585e-07
-1.62381e-07
2.0164e-07
-2.13889e-07
2.42575e-07
-2.70998e-07
2.83273e-07
-3.33534e-07
3.23765e-07
-4.01407e-07
3.64126e-07
-4.7457e-07
4.04403e-07
-5.52979e-07
4.44576e-07
-6.36558e-07
4.84525e-07
-7.25174e-07
5.24033e-07
-8.18617e-07
5.62777e-07
-9.16593e-07
6.00342e-07
-1.01871e-06
6.36232e-07
-1.12449e-06
6.69889e-07
-1.23335e-06
7.00709e-07
-1.34465e-06
7.28063e-07
-1.45767e-06
7.51316e-07
-1.57164e-06
7.69854e-07
-1.68574e-06
7.83097e-07
-1.79914e-06
7.90522e-07
-1.91102e-06
7.91675e-07
-2.02053e-06
7.86183e-07
-2.12688e-06
7.73767e-07
-2.22929e-06
7.54238e-07
-2.32703e-06
7.27508e-07
-2.41941e-06
6.93581e-07
-2.50578e-06
6.52554e-07
-2.58553e-06
6.04609e-07
-2.65812e-06
5.50012e-07
-2.72302e-06
4.891e-07
-2.77977e-06
4.22284e-07
-2.82791e-06
3.50038e-07
-2.86704e-06
2.72899e-07
-2.89679e-06
1.91461e-07
-2.9168e-06
1.06378e-07
-2.92677e-06
1.83589e-08
-2.92641e-06
-7.18415e-08
-2.91549e-06
-1.63394e-07
-2.89379e-06
-2.55423e-07
-2.86117e-06
-3.47002e-07
-2.81753e-06
-4.37145e-07
-2.76284e-06
-5.24823e-07
-2.69716e-06
-6.08962e-07
-2.62063e-06
-6.88454e-07
-2.53352e-06
-7.62173e-07
-2.4362e-06
-8.28988e-07
-2.32921e-06
-8.8779e-07
-2.21322e-06
-9.37517e-07
-2.08909e-06
-9.77184e-07
-1.95784e-06
-1.00592e-06
-1.82066e-06
-1.02301e-06
-1.6789e-06
-1.02793e-06
-1.53408e-06
-1.02038e-06
-1.38783e-06
-1.00032e-06
-1.24186e-06
-9.68013e-07
-1.09795e-06
-9.23999e-07
-9.57862e-07
-8.69138e-07
-8.23298e-07
-8.0458e-07
-6.95854e-07
-7.31737e-07
-5.76959e-07
-6.52245e-07
-4.67828e-07
-5.67914e-07
-3.69424e-07
-4.80664e-07
-2.82433e-07
-3.92471e-07
-2.07245e-07
-3.05304e-07
-1.43947e-07
-2.21078e-07
-9.23346e-08
-1.41619e-07
-5.19223e-08
-6.8647e-08
-2.19642e-08
-3.7725e-09
-1.47704e-09
5.14827e-08
1.07368e-08
9.56521e-08
1.60687e-08
1.27277e-07
1.60874e-08
1.44854e-07
1.25274e-08
1.46777e-07
7.27961e-09
1.313e-07
2.38207e-09
9.65065e-08
4.02042e-08
-6.7243e-09
1.80294e-08
-2.52646e-08
6.1702e-08
-5.40449e-08
1.08957e-07
-9.16765e-08
1.57445e-07
-1.37026e-07
2.05935e-07
-1.89233e-07
2.53847e-07
-2.47691e-07
3.01033e-07
-3.12008e-07
3.4759e-07
-3.81955e-07
3.93713e-07
-4.57408e-07
4.39579e-07
-5.38294e-07
4.85289e-07
-6.24542e-07
5.30823e-07
-7.16046e-07
5.76029e-07
-8.12635e-07
6.20623e-07
-9.14057e-07
6.64199e-07
-1.01996e-06
7.06249e-07
-1.12991e-06
7.46182e-07
-1.24337e-06
7.83343e-07
-1.3597e-06
8.17045e-07
-1.47822e-06
8.46583e-07
-1.59818e-06
8.71267e-07
-1.71876e-06
8.90437e-07
-1.83915e-06
9.03491e-07
-1.95853e-06
9.09897e-07
-2.07606e-06
9.09206e-07
-2.19094e-06
9.01069e-07
-2.30241e-06
8.85233e-07
-2.40972e-06
8.61549e-07
-2.51218e-06
8.29971e-07
-2.60915e-06
7.90545e-07
-2.70001e-06
7.43413e-07
-2.7842e-06
6.88798e-07
-2.86119e-06
6.27004e-07
-2.93049e-06
5.58406e-07
-2.99166e-06
4.83445e-07
-3.04424e-06
4.02624e-07
-3.08785e-06
3.16504e-07
-3.12209e-06
2.25706e-07
-3.14662e-06
1.30903e-07
-3.16108e-06
3.28253e-08
-3.16518e-06
-6.77428e-08
-3.15862e-06
-1.69953e-07
-3.14114e-06
-2.72901e-07
-3.11252e-06
-3.75622e-07
-3.07258e-06
-4.77091e-07
-3.02118e-06
-5.7622e-07
-2.95827e-06
-6.71869e-07
-2.88388e-06
-7.62847e-07
-2.79813e-06
-8.47926e-07
-2.70126e-06
-9.25855e-07
-2.59367e-06
-9.95383e-07
-2.4759e-06
-1.05529e-06
-2.34868e-06
-1.1044e-06
-2.21294e-06
-1.14166e-06
-2.0698e-06
-1.16615e-06
-1.92058e-06
-1.17715e-06
-1.76681e-06
-1.17416e-06
-1.61016e-06
-1.15697e-06
-1.45247e-06
-1.1257e-06
-1.29566e-06
-1.08081e-06
-1.14169e-06
-1.02311e-06
-9.92497e-07
-9.53773e-07
-8.49935e-07
-8.74299e-07
-7.15702e-07
-7.86478e-07
-5.91284e-07
-6.92331e-07
-4.77902e-07
-5.94046e-07
-3.76473e-07
-4.939e-07
-2.87585e-07
-3.94191e-07
-2.1149e-07
-2.97173e-07
-1.48103e-07
-2.05006e-07
-9.70211e-08
-1.19729e-07
-5.75448e-08
-4.32488e-08
-2.87073e-08
2.26452e-08
-9.30348e-09
7.62483e-08
2.08149e-09
1.15892e-07
7.04752e-09
1.39888e-07
7.35807e-09
1.46467e-07
4.92042e-09
1.33738e-07
1.76318e-09
9.96637e-08
4.19673e-08
-7.97226e-09
2.60017e-08
-2.96371e-08
8.33668e-08
-6.2909e-08
1.42229e-07
-1.06e-07
2.00536e-07
-1.57476e-07
2.57412e-07
-2.16265e-07
3.12636e-07
-2.81618e-07
3.66385e-07
-3.53051e-07
4.19024e-07
-4.30279e-07
4.7094e-07
-5.13138e-07
5.22439e-07
-6.01526e-07
5.73677e-07
-6.95342e-07
6.24639e-07
-7.94446e-07
6.75134e-07
-8.98629e-07
7.24805e-07
-1.00759e-06
7.73161e-07
-1.12094e-06
8.19594e-07
-1.23817e-06
8.63416e-07
-1.35871e-06
9.03882e-07
-1.48189e-06
9.40221e-07
-1.60697e-06
9.71667e-07
-1.73318e-06
9.9748e-07
-1.85971e-06
1.01697e-06
-1.98575e-06
1.02952e-06
-2.11046e-06
1.03461e-06
-2.23305e-06
1.0318e-06
-2.35274e-06
1.02077e-06
-2.46881e-06
1.0013e-06
-2.58055e-06
9.73288e-07
-2.6873e-06
9.36728e-07
-2.78847e-06
8.91711e-07
-2.88348e-06
8.38417e-07
-2.97179e-06
7.7711e-07
-3.05291e-06
7.08128e-07
-3.12638e-06
6.31877e-07
-3.19176e-06
5.48825e-07
-3.24864e-06
4.59502e-07
-3.29662e-06
3.64488e-07
-3.33534e-06
2.64422e-07
-3.36443e-06
1.59993e-07
-3.38355e-06
5.19444e-08
-3.39237e-06
-5.89252e-08
-3.39056e-06
-1.71757e-07
-3.37783e-06
-2.85631e-07
-3.35389e-06
-3.99563e-07
-3.31848e-06
-5.12501e-07
-3.27138e-06
-6.23324e-07
-3.21241e-06
-7.3084e-07
-3.14146e-06
-8.33794e-07
-3.05852e-06
-9.30872e-07
-2.96366e-06
-1.02071e-06
-2.85711e-06
-1.10193e-06
-2.73925e-06
-1.17315e-06
-2.61065e-06
-1.233e-06
-2.47208e-06
-1.28023e-06
-2.32455e-06
-1.31369e-06
-2.16929e-06
-1.3324e-06
-2.0078e-06
-1.33565e-06
-1.84176e-06
-1.323e-06
-1.67309e-06
-1.29438e-06
-1.50383e-06
-1.25007e-06
-1.33614e-06
-1.1908e-06
-1.1722e-06
-1.11772e-06
-1.01413e-06
-1.03236e-06
-8.6395e-07
-9.36659e-07
-7.23454e-07
-8.32827e-07
-5.9417e-07
-7.23329e-07
-4.77302e-07
-6.10768e-07
-3.73688e-07
-4.97806e-07
-2.83785e-07
-3.87076e-07
-2.07667e-07
-2.81124e-07
-1.45042e-07
-1.82354e-07
-9.52773e-08
-9.30132e-08
-5.7435e-08
-1.5197e-08
-3.03083e-08
4.91215e-08
-1.24593e-08
9.80431e-08
-2.25349e-09
1.29682e-07
2.10962e-09
1.42104e-07
2.56769e-09
1.3328e-07
1.16345e-09
1.01068e-07
4.31308e-08
-9.23319e-09
3.52349e-08
-3.40345e-08
1.08168e-07
-7.17915e-08
1.79986e-07
-1.20305e-07
2.49049e-07
-1.77838e-07
3.14944e-07
-2.43102e-07
3.779e-07
-3.15204e-07
4.38487e-07
-3.93569e-07
4.97389e-07
-4.77852e-07
5.55223e-07
-5.67849e-07
6.12436e-07
-6.63425e-07
6.69253e-07
-7.64447e-07
7.25661e-07
-8.70737e-07
7.81424e-07
-9.82045e-07
8.36113e-07
-1.09803e-06
8.89142e-07
-1.21824e-06
9.39805e-07
-1.34214e-06
9.87317e-07
-1.4691e-06
1.03085e-06
-1.59843e-06
1.06955e-06
-1.72937e-06
1.10261e-06
-1.86113e-06
1.12924e-06
-1.9929e-06
1.14874e-06
-2.12386e-06
1.16048e-06
-2.25322e-06
1.16397e-06
-2.3802e-06
1.15878e-06
-2.50406e-06
1.14463e-06
-2.6241e-06
1.12134e-06
-2.73966e-06
1.08885e-06
-2.85012e-06
1.04719e-06
-2.95491e-06
9.96503e-07
-3.0535e-06
9.37003e-07
-3.14538e-06
8.68993e-07
-3.2301e-06
7.92843e-07
-3.30721e-06
7.08992e-07
-3.37632e-06
6.17935e-07
-3.43704e-06
5.20223e-07
-3.48901e-06
4.16458e-07
-3.53188e-06
3.07292e-07
-3.56531e-06
1.93423e-07
-3.58897e-06
7.56015e-08
-3.60252e-06
-4.53706e-08
-3.60565e-06
-1.68635e-07
-3.598e-06
-2.93272e-07
-3.57927e-06
-4.18299e-07
-3.54911e-06
-5.42656e-07
-3.50723e-06
-6.65209e-07
-3.45333e-06
-7.84743e-07
-3.38716e-06
-8.99958e-07
-3.30856e-06
-1.00948e-06
-3.21742e-06
-1.11185e-06
-3.11377e-06
-1.20558e-06
-2.99779e-06
-1.28913e-06
-2.86983e-06
-1.36095e-06
-2.73049e-06
-1.41958e-06
-2.58058e-06
-1.4636e-06
-2.42121e-06
-1.49178e-06
-2.25374e-06
-1.50312e-06
-2.07985e-06
-1.4969e-06
-1.90144e-06
-1.47278e-06
-1.72068e-06
-1.43083e-06
-1.53988e-06
-1.3716e-06