/*--------------------------------*- C++ -*----------------------------------*\
  =========                 |
  \\      /  F ield         | OpenFOAM: The Open Source CFD Toolbox
   \\    /   O peration     | Website:  https://openfoam.org
    \\  /    A nd           | Version:  7
     \\/     M anipulation  |
\*---------------------------------------------------------------------------*/
FoamFile
{
    version     2.0;
    format      ascii;
    class       volScalarField;
    location    "2.9";
    object      p;
}
// * * * * * * * * * * * * * * * * * * * * * * * * * * * * * * * * * * * * * //

dimensions      [0 2 -2 0 0 0 0];

internalField   nonuniform List<scalar> 
6400
(
-3.37419e-07
1.44121e-05
4.13857e-06
-3.48461e-05
-0.000100342
-0.000189
-0.000297166
-0.000421497
-0.000559271
-0.000708431
-0.000867483
-0.00103537
-0.00121133
-0.00139478
-0.00158516
-0.00178188
-0.0019842
-0.0021912
-0.00240167
-0.00261418
-0.00282695
-0.00303791
-0.00324467
-0.00344454
-0.00363455
-0.00381152
-0.00397207
-0.00411269
-0.00422985
-0.00432009
-0.0043801
-0.00440687
-0.00439782
-0.00435091
-0.00426484
-0.00413909
-0.00397412
-0.00377144
-0.00353367
-0.00326465
-0.00296935
-0.00265371
-0.00232508
-0.00199143
-0.00166149
-0.00134443
-0.00104964
-0.000786314
-0.000563216
-0.000388273
-0.000268279
-0.000208602
-0.000212932
-0.000283113
-0.000419036
-0.00061863
-0.00087793
-0.00119124
-0.00155153
-0.00195029
-0.00237847
-0.00282648
-0.00328465
-0.00374361
-0.00419455
-0.0046295
-0.00504146
-0.00542452
-0.00577386
-0.00608566
-0.00635703
-0.00658585
-0.00677059
-0.00691027
-0.00700454
-0.00705402
-0.00706136
-0.00703318
-0.00698239
-0.00692796
-1.53153e-05
-5.7352e-07
-1.25747e-05
-4.99689e-05
-0.000109607
-0.000189324
-0.000286647
-0.0003991
-0.000524549
-0.000661278
-0.000807968
-0.000963616
-0.00112746
-0.00129888
-0.00147728
-0.00166204
-0.00185243
-0.00204757
-0.00224635
-0.00244743
-0.0026492
-0.00284978
-0.00304699
-0.0032384
-0.0034213
-0.00359277
-0.00374971
-0.0038889
-0.00400707
-0.00410097
-0.00416752
-0.00420388
-0.00420756
-0.00417661
-0.00410969
-0.00400622
-0.00386649
-0.00369179
-0.00348443
-0.00324785
-0.00298657
-0.00270608
-0.00241302
-0.00211479
-0.00181949
-0.00153563
-0.0012719
-0.0010369
-0.000838746
-0.000684831
-0.000581472
-0.000533649
-0.000544776
-0.000616536
-0.000748785
-0.000939551
-0.00118511
-0.00148013
-0.00181795
-0.00219085
-0.00259028
-0.00300743
-0.00343338
-0.00385952
-0.00427779
-0.00468091
-0.00506255
-0.00541735
-0.00574101
-0.0060302
-0.00628245
-0.00649608
-0.00667009
-0.00680409
-0.00689836
-0.00695409
-0.0069741
-0.00696359
-0.0069279
-0.00687341
-4.50021e-06
1.11199e-05
-1.63802e-06
-3.84638e-05
-9.51442e-05
-0.000169788
-0.000260398
-0.000364978
-0.00048178
-0.00060939
-0.000746697
-0.000892843
-0.00104716
-0.00120909
-0.0013781
-0.00155363
-0.00173503
-0.00192149
-0.00211202
-0.00230542
-0.00250021
-0.00269468
-0.00288684
-0.00307443
-0.00325493
-0.0034256
-0.00358351
-0.00372558
-0.00384866
-0.00394959
-0.00402533
-0.00407304
-0.0040902
-0.00407475
-0.00402523
-0.00394087
-0.00382173
-0.00366884
-0.00348422
-0.00327096
-0.00303317
-0.00277624
-0.00250626
-0.00223033
-0.0019562
-0.00169208
-0.0014464
-0.00122746
-0.00104318
-0.000900764
-0.000806366
-0.000764855
-0.000779565
-0.000852137
-0.000982426
-0.00116849
-0.00140669
-0.00169182
-0.00201735
-0.00237575
-0.00275885
-0.00315798
-0.00356464
-0.00397059
-0.00436817
-0.00475054
-0.00511179
-0.00544703
-0.0057524
-0.00602501
-0.00626285
-0.00646468
-0.0066299
-0.00675849
-0.00685094
-0.00690832
-0.00693288
-0.00692799
-0.00689237
-0.00682279
3.66784e-05
4.88193e-05
3.33092e-05
-4.74579e-06
-6.08242e-05
-0.000133026
-0.000219605
-0.000318835
-0.000429293
-0.000549853
-0.000679651
-0.000818032
-0.000964497
-0.00111863
-0.00128004
-0.00144829
-0.00162284
-0.00180305
-0.00198804
-0.00217677
-0.00236793
-0.00255994
-0.00275099
-0.00293894
-0.00312143
-0.00329581
-0.00345922
-0.00360863
-0.00374089
-0.0038528
-0.00394123
-0.0040032
-0.00403603
-0.00403744
-0.00400571
-0.00393979
-0.00383949
-0.00370549
-0.00353955
-0.00334448
-0.0031241
-0.00288354
-0.00262874
-0.00236663
-0.00210483
-0.00185149
-0.00161497
-0.0014036
-0.00122532
-0.00108739
-0.000996049
-0.00095623
-0.000971347
-0.0010431
-0.00117139
-0.00135431
-0.00158821
-0.00186787
-0.00218676
-0.00253732
-0.00291132
-0.00330023
-0.00369551
-0.00408907
-0.00447341
-0.00484192
-0.00518899
-0.00551007
-0.00580168
-0.00606137
-0.00628756
-0.00647942
-0.00663673
-0.00675973
-0.00684893
-0.00690509
-0.00692967
-0.00692442
-0.00688309
-0.00679596
0.000107167
0.000110078
8.85934e-05
4.71834e-05
-1.01899e-05
-8.1719e-05
-0.000165847
-0.000261182
-0.000366628
-0.000481368
-0.00060482
-0.000736584
-0.000876382
-0.001024
-0.00117924
-0.00134183
-0.00151143
-0.00168755
-0.00186951
-0.00205643
-0.00224716
-0.0024403
-0.00263415
-0.00282672
-0.0030157
-0.00319851
-0.00337228
-0.00353394
-0.00368022
-0.00380779
-0.0039133
-0.00399353
-0.0040455
-0.00406662
-0.00405484
-0.00400876
-0.00392783
-0.00381242
-0.00366398
-0.00348505
-0.00327924
-0.00305147
-0.00280759
-0.00255445
-0.00229968
-0.00205147
-0.00181831
-0.00160866
-0.00143066
-0.00129178
-0.00119847
-0.0011559
-0.00116767
-0.00123565
-0.00135986
-0.00153847
-0.00176782
-0.00204269
-0.00235643
-0.00270138
-0.00306916
-0.00345112
-0.00383865
-0.00422356
-0.00459839
-0.0049566
-0.00529275
-0.00560256
-0.00588285
-0.00613156
-0.00634752
-0.00653031
-0.00668009
-0.00679732
-0.00688257
-0.00693635
-0.0069595
-0.00695261
-0.00690622
-0.00680667
0.000204326
0.000192995
0.000162408
0.000115529
5.5106e-05
-1.73573e-05
-0.000100525
-0.000193369
-0.000295167
-0.000405452
-0.000523961
-0.00065059
-0.000785333
-0.000928225
-0.0010793
-0.00123852
-0.00140576
-0.00158074
-0.00176299
-0.00195182
-0.00214625
-0.00234504
-0.0025466
-0.002749
-0.00294998
-0.00314691
-0.00333684
-0.00351654
-0.00368256
-0.00383126
-0.003959
-0.00406219
-0.00413746
-0.00418181
-0.00419276
-0.00416853
-0.00410816
-0.00401166
-0.00388019
-0.00371608
-0.00352265
-0.00330474
-0.00306812
-0.00281964
-0.00256702
-0.0023186
-0.00208308
-0.00186918
-0.00168537
-0.00153945
-0.00143824
-0.00138725
-0.00139043
-0.00144995
-0.00156606
-0.00173707
-0.00195943
-0.00222789
-0.00253574
-0.00287514
-0.00323754
-0.00361403
-0.0039958
-0.00437447
-0.00474244
-0.00509312
-0.0054211
-0.00572221
-0.00599352
-0.00623327
-0.00644064
-0.00661557
-0.00675858
-0.00687039
-0.00695169
-0.00700287
-0.00702442
-0.00701621
-0.00696714
-0.00686169
0.000324359
0.000294572
0.000252365
0.000198266
0.000133018
5.81515e-05
-2.54232e-05
-0.000117146
-0.00021672
-0.000324073
-0.000439308
-0.000562653
-0.000694414
-0.00083492
-0.00098448
-0.00114333
-0.0013116
-0.00148925
-0.00167604
-0.00187148
-0.00207477
-0.00228478
-0.00250001
-0.00271856
-0.0029381
-0.00315591
-0.00336883
-0.00357339
-0.00376578
-0.00394201
-0.004098
-0.00422968
-0.00433321
-0.00440509
-0.00444237
-0.00444279
-0.00440497
-0.00432852
-0.00421433
-0.00406469
-0.00388208
-0.00367173
-0.00343929
-0.00319162
-0.00293658
-0.0026827
-0.00243897
-0.00221448
-0.00201809
-0.00185808
-0.00174177
-0.00167518
-0.00166275
-0.0017071
-0.00180887
-0.00196667
-0.00217717
-0.00243518
-0.00273398
-0.00306561
-0.0034213
-0.00379187
-0.00416819
-0.00454159
-0.00490419
-0.00524923
-0.00557116
-0.00586581
-0.00613038
-0.00636323
-0.00656384
-0.00673248
-0.00686996
-0.00697728
-0.00705532
-0.00710448
-0.00712513
-0.00711681
-0.00706799
-0.00696281
0.000462681
0.000411126
0.000354994
0.000291959
0.000220728
0.00014227
5.70774e-05
-3.48232e-05
-0.00013363
-0.000239717
-0.000353592
-0.000475859
-0.000607172
-0.000748189
-0.000899536
-0.00106175
-0.00123525
-0.00142027
-0.0016168
-0.00182455
-0.00204288
-0.00227077
-0.00250674
-0.00274884
-0.00299462
-0.00324112
-0.00348492
-0.00372216
-0.00394859
-0.00415973
-0.00435096
-0.00451766
-0.0046554
-0.00476013
-0.00482834
-0.00485728
-0.00484509
-0.00479098
-0.00469561
-0.0045615
-0.00438859
-0.00418432
-0.00395373
-0.00370363
-0.00344197
-0.00317752
-0.00291959
-0.00267769
-0.00246119
-0.00227896
-0.00213895
-0.00204785
-0.00201078
-0.002031
-0.00210974
-0.00224612
-0.00243717
-0.00267798
-0.00296191
-0.00328097
-0.0036262
-0.00398817
-0.00435738
-0.00472478
-0.00508213
-0.00542229
-0.00573949
-0.00602938
-0.00628909
-0.00651707
-0.00671292
-0.00687712
-0.00701075
-0.00711506
-0.00719114
-0.00723956
-0.0072607
-0.00725404
-0.00720847
-0.00710887
0.000614245
0.000538175
0.000466327
0.000393178
0.000314882
0.000231813
0.000143907
5.05527e-05
-4.90233e-05
-0.000155696
-0.000270423
-0.000394219
-0.000528121
-0.000673154
-0.000830286
-0.00100039
-0.00118419
-0.0013822
-0.00159467
-0.00182149
-0.00206216
-0.0023157
-0.00258059
-0.00285477
-0.00313557
-0.00341971
-0.00370336
-0.00398217
-0.00425137
-0.00450586
-0.00474039
-0.0049497
-0.00512872
-0.00527276
-0.00537771
-0.00544024
-0.00545798
-0.00542972
-0.00535534
-0.00523573
-0.00507555
-0.00487741
-0.00464722
-0.00439202
-0.0041199
-0.00383984
-0.00356149
-0.00329483
-0.00304983
-0.00283602
-0.00266214
-0.00253575
-0.00246283
-0.00244752
-0.00249191
-0.00259586
-0.00275703
-0.00297097
-0.00323134
-0.00353026
-0.00385872
-0.00420703
-0.00456536
-0.00492422
-0.00527488
-0.00560975
-0.00592262
-0.00620883
-0.00646526
-0.00669025
-0.0068834
-0.00704528
-0.00717712
-0.00728038
-0.00735637
-0.00740585
-0.00742932
-0.00742638
-0.00738686
-0.00729711
0.000773463
0.000670631
0.0005817
0.000497541
0.000411372
0.000322845
0.000231205
0.000135091
3.30796e-05
-7.62647e-05
-0.000194393
-0.000322769
-0.000462844
-0.000616035
-0.000783686
-0.000967022
-0.0011671
-0.00138471
-0.00162034
-0.00187406
-0.00214544
-0.00243351
-0.00273665
-0.00305257
-0.00337828
-0.00371009
-0.00404365
-0.00437404
-0.00469583
-0.00500323
-0.00529028
-0.00555099
-0.00577959
-0.00597066
-0.00611944
-0.00622195
-0.00627527
-0.00627763
-0.0062284
-0.00612804
-0.0059806
-0.00578879
-0.00555827
-0.00529592
-0.00500987
-0.00470929
-0.00440415
-0.00410491
-0.00382216
-0.00356623
-0.0033468
-0.00317243
-0.00305025
-0.00298554
-0.00298151
-0.00303909
-0.00315687
-0.00333117
-0.00355623
-0.00382448
-0.00412701
-0.00445403
-0.00479539
-0.00514114
-0.00548199
-0.00580976
-0.00611767
-0.00640053
-0.00665479
-0.00687848
-0.00707099
-0.00723285
-0.00736528
-0.00746986
-0.00754804
-0.00760078
-0.00762873
-0.00763164
-0.00760066
-0.00752395
0.000934179
0.000802784
0.00069576
0.000599967
0.00050533
0.000410618
0.000314247
0.000213994
0.000107705
-6.67082e-06
-0.000131123
-0.000267598
-0.000417992
-0.000584141
-0.000767785
-0.00097052
-0.00119373
-0.0014385
-0.00170552
-0.00199501
-0.00230656
-0.00263913
-0.00299091
-0.0033593
-0.00374089
-0.00413148
-0.00452611
-0.00491916
-0.00530447
-0.0056755
-0.00602547
-0.00634761
-0.00663535
-0.00688252
-0.0070836
-0.0072339
-0.0073298
-0.00736891
-0.00735003
-0.0072733
-0.00714155
-0.00695774
-0.00672712
-0.00645635
-0.00615349
-0.00582781
-0.00548955
-0.00514963
-0.00481931
-0.00450978
-0.00423177
-0.00399507
-0.00380815
-0.00367773
-0.0036085
-0.00360279
-0.00366053
-0.00377917
-0.00395386
-0.00417767
-0.00444205
-0.00473725
-0.00505293
-0.00537868
-0.00570464
-0.0060219
-0.00632295
-0.00660185
-0.00685442
-0.00707813
-0.00727197
-0.00743615
-0.00757174
-0.00768028
-0.00776326
-0.00782175
-0.0078565
-0.00786741
-0.00784709
-0.00778569
0.00108954
0.000928267
0.00080247
0.000694651
0.000591115
0.000489558
0.000387427
0.000281533
0.000168911
4.68387e-05
-8.72536e-05
-0.000235827
-0.000401252
-0.000585807
-0.000791644
-0.00102074
-0.00127481
-0.0015552
-0.0018628
-0.00219788
-0.00256004
-0.00294807
-0.00335988
-0.00379247
-0.00424192
-0.00470341
-0.00517127
-0.00563912
-0.00609998
-0.00654646
-0.00697093
-0.00736574
-0.00772347
-0.0080371
-0.00830028
-0.00850752
-0.00865441
-0.00873779
-0.00875581
-0.00870814
-0.00859642
-0.00842351
-0.00819416
-0.00791468
-0.00759295
-0.00723821
-0.00686091
-0.00647237
-0.00608449
-0.00570937
-0.00535887
-0.00504418
-0.00477533
-0.00456081
-0.00440708
-0.00431835
-0.00429627
-0.0043399
-0.00444572
-0.00460787
-0.00481848
-0.00506814
-0.00534646
-0.00564271
-0.00594639
-0.00624781
-0.00653852
-0.00681168
-0.00706218
-0.00728668
-0.00748348
-0.00765224
-0.00779364
-0.00790894
-0.00799951
-0.00806642
-0.00811041
-0.00813143
-0.00812353
-0.00807894
0.00123216
0.00104008
0.00089513
0.000775091
0.000662324
0.000553275
0.000444281
0.000331078
0.00020982
7.70595e-05
-7.03913e-05
-0.000235541
-0.000421259
-0.000630285
-0.000865199
-0.00112836
-0.00142179
-0.0017471
-0.0021053
-0.0024967
-0.00292078
-0.00337611
-0.00386022
-0.00436962
-0.00489978
-0.00544517
-0.00599934
-0.00655506
-0.00710445
-0.00763921
-0.00815078
-0.00863058
-0.00907023
-0.00946181
-0.00979806
-0.0100726
-0.0102801
-0.0104165
-0.0104792
-0.0104671
-0.010381
-0.0102231
-0.00999762
-0.00971031
-0.00936874
-0.00898202
-0.00856063
-0.0081162
-0.00766122
-0.00720865
-0.00677155
-0.0063626
-0.00599359
-0.00567501
-0.00541551
-0.00522154
-0.00509699
-0.00504304
-0.00505806
-0.00513774
-0.00527536
-0.00546223
-0.00568822
-0.0059424
-0.00621374
-0.00649168
-0.00676673
-0.00703087
-0.0072778
-0.00750306
-0.00770394
-0.00787925
-0.00802898
-0.00815386
-0.00825492
-0.00833299
-0.00838867
-0.00842184
-0.00842789
-0.00840097
0.00135399
0.00113064
0.000966429
0.000834124
0.000711854
0.00059463
0.000477547
0.000355171
0.000222705
7.59301e-05
-8.89944e-05
-0.000275654
-0.000487441
-0.000727574
-0.000999066
-0.00130465
-0.00164666
-0.00202688
-0.00244643
-0.00290558
-0.00340362
-0.0039388
-0.00450818
-0.00510771
-0.00573214
-0.00637514
-0.00702941
-0.00768678
-0.00833843
-0.00897505
-0.00958709
-0.0101649
-0.0106993
-0.0111811
-0.0116021
-0.0119551
-0.0122336
-0.0124328
-0.0125489
-0.0125801
-0.0125261
-0.0123885
-0.0121707
-0.0118777
-0.0115167
-0.0110965
-0.0106274
-0.0101211
-0.00959072
-0.00904985
-0.00851273
-0.00799356
-0.00750602
-0.00706279
-0.00667502
-0.00635182
-0.00609984
-0.00592293
-0.00582197
-0.00579484
-0.00583655
-0.00593965
-0.00609469
-0.00629085
-0.00651669
-0.00676083
-0.00701258
-0.00726255
-0.00750296
-0.00772789
-0.00793324
-0.00811659
-0.00827689
-0.00841403
-0.00852839
-0.00862037
-0.00869019
-0.00873747
-0.00875876
-0.00874999
0.00144649
0.00119185
0.00100853
0.000864029
0.000731996
0.000605839
0.000479287
0.00034565
0.000199128
3.46877e-05
-0.000152199
-0.000365719
-0.000609808
-0.000888177
-0.00120427
-0.00156119
-0.00196152
-0.00240723
-0.00289945
-0.00343832
-0.0040229
-0.00465098
-0.00531912
-0.00602254
-0.00675524
-0.00751
-0.00827857
-0.00905179
-0.00981979
-0.0105722
-0.0112984
-0.0119877
-0.0126297
-0.0132143
-0.0137322
-0.014175
-0.0145354
-0.0148073
-0.0149861
-0.0150689
-0.0150544
-0.0149433
-0.0147381
-0.0144431
-0.0140647
-0.0136113
-0.0130927
-0.0125207
-0.0119086
-0.0112705
-0.0106217
-0.00997785
-0.00935447
-0.00876657
-0.008228
-0.00775088
-0.0073451
-0.00701777
-0.00677296
-0.00661146
-0.00653075
-0.00652531
-0.00658693
-0.00670537
-0.00686907
-0.00706592
-0.00728404
-0.00751244
-0.00774159
-0.00796369
-0.00817286
-0.00836502
-0.00853767
-0.00868946
-0.00881979
-0.00892832
-0.00901463
-0.0090779
-0.00911565
-0.00912527
0.00150069
0.00121523
0.0010132
0.000856647
0.000714568
0.000578611
0.000441034
0.000293825
0.00013013
-5.59288e-05
-0.000269596
-0.000515685
-0.00079869
-0.00112282
-0.00149195
-0.00190951
-0.00237833
-0.00290047
-0.00347703
-0.00410794
-0.0047919
-0.00552622
-0.00630678
-0.00712806
-0.00798315
-0.00886388
-0.00976098
-0.0106642
-0.0115625
-0.0124445
-0.0132983
-0.0141121
-0.0148744
-0.0155739
-0.0162003
-0.016744
-0.0171967
-0.0175511
-0.0178018
-0.0179446
-0.0179774
-0.0178997
-0.017713
-0.017421
-0.0170289
-0.0165445
-0.0159772
-0.0153382
-0.0146408
-0.0138996
-0.0131305
-0.0123503
-0.0115763
-0.0108257
-0.0101152
-0.00946025
-0.00887422
-0.0083681
-0.00794983
-0.0076239
-0.00739113
-0.00724875
-0.00719061
-0.00720768
-0.00728875
-0.0074213
-0.00759227
-0.00778902
-0.00799992
-0.00821496
-0.00842599
-0.00862677
-0.00881286
-0.00898124
-0.00912991
-0.00925745
-0.00936253
-0.00944365
-0.00949894
-0.00952719
0.00150742
0.00119206
0.000971942
0.000803545
0.000651088
0.00050434
0.000354002
0.00019069
6.46367e-06
-0.000205429
-0.000450969
-0.000735613
-0.00106443
-0.00144212
-0.00187297
-0.00236073
-0.00290841
-0.00351811
-0.00419079
-0.00492613
-0.00572235
-0.00657616
-0.0074827
-0.00843556
-0.00942688
-0.0104474
-0.0114868
-0.0125335
-0.0135754
-0.0145998
-0.0155937
-0.0165441
-0.0174381
-0.0182635
-0.0190088
-0.0196633
-0.0202176
-0.0206635
-0.0209944
-0.0212053
-0.0212928
-0.0212556
-0.0210942
-0.0208111
-0.0204108
-0.0198999
-0.019287
-0.018583
-0.0178004
-0.016954
-0.0160598
-0.0151357
-0.0142002
-0.0132727
-0.0123725
-0.0115182
-0.0107271
-0.0100145
-0.00939283
-0.00887105
-0.00845431
-0.00814356
-0.00793569
-0.00782379
-0.00779773
-0.00784504
-0.00795179
-0.00810362
-0.00828666
-0.00848826
-0.0086975
-0.00890548
-0.00910522
-0.00929151
-0.00946051
-0.00960927
-0.00973525
-0.00983598
-0.00990998
-0.00995728
0.00145744
0.0011136
0.000876221
0.000696209
0.000532978
0.000374316
0.000209308
2.71679e-05
-0.000181152
-0.000423294
-0.000705993
-0.00103536
-0.00141704
-0.00185622
-0.00235759
-0.00292516
-0.00356207
-0.00427038
-0.00505085
-0.00590276
-0.0068238
-0.00780995
-0.0088555
-0.00995305
-0.0110937
-0.0122669
-0.0134611
-0.0146637
-0.015861
-0.0170392
-0.0181839
-0.019281
-0.0203163
-0.0212766
-0.0221492
-0.0229224
-0.0235858
-0.0241303
-0.0245484
-0.0248341
-0.0249833
-0.0249934
-0.0248641
-0.0245967
-0.0241948
-0.0236638
-0.0230113
-0.0222473
-0.0213836
-0.0204343
-0.0194155
-0.0183451
-0.0172428
-0.0161294
-0.0150265
-0.0139558
-0.0129386
-0.0119945
-0.011141
-0.0103923
-0.00975874
-0.00924617
-0.00885568
-0.00858359
-0.00842189
-0.00835894
-0.00838042
-0.0084705
-0.00861294
-0.00879215
-0.00899396
-0.00920615
-0.00941864
-0.0096234
-0.00981416
-0.00998606
-0.0101349
-0.010257
-0.010351
-0.0104179
0.0013417
0.000971266
0.000717644
0.000526266
0.000351793
0.000179969
-1.76741e-06
-0.000205617
-0.000441739
-0.000718675
-0.00104392
-0.00142425
-0.00186587
-0.00237446
-0.00295505
-0.00361188
-0.00434815
-0.00516579
-0.00606527
-0.00704537
-0.00810311
-0.00923365
-0.0104303
-0.0116845
-0.0129861
-0.0143235
-0.0156835
-0.0170523
-0.0184148
-0.0197558
-0.0210596
-0.0223109
-0.0234944
-0.0245957
-0.0256011
-0.0264982
-0.0272757
-0.0279237
-0.0284338
-0.0287995
-0.0290157
-0.029079
-0.0289882
-0.0287435
-0.0283475
-0.0278044
-0.0271207
-0.026305
-0.0253681
-0.024323
-0.0231852
-0.0219723
-0.0207043
-0.0194027
-0.018091
-0.0167934
-0.0155348
-0.0143391
-0.0132291
-0.0122247
-0.0113424
-0.0105941
-0.00998631
-0.00951998
-0.00919052
-0.00898824
-0.00889928
-0.00890682
-0.00899239
-0.00913726
-0.00932355
-0.00953513
-0.00975808
-0.00998089
-0.0101943
-0.0103908
-0.0105643
-0.0107095
-0.0108249
-0.0109125
0.00115157
0.000756867
0.000488207
0.000285721
9.94703e-05
-8.68659e-05
-0.000287505
-0.000516048
-0.000783758
-0.00110007
-0.00147325
-0.00191071
-0.00241923
-0.00300493
-0.00367317
-0.00442833
-0.0052736
-0.00621069
-0.00723966
-0.00835868
-0.00956397
-0.0108497
-0.012208
-0.0136293
-0.0151018
-0.0166126
-0.0181471
-0.0196899
-0.0212245
-0.0227344
-0.0242025
-0.0256122
-0.0269473
-0.0281925
-0.0293331
-0.0303561
-0.0312494
-0.0320028
-0.0326072
-0.0330556
-0.0333422
-0.0334631
-0.0334162
-0.033201
-0.0328187
-0.0322726
-0.0315677
-0.0307112
-0.0297125
-0.0285832
-0.0273376
-0.0259922
-0.0245664
-0.0230821
-0.0215634
-0.0200364
-0.0185287
-0.0170685
-0.0156834
-0.0143996
-0.01324
-0.0122236
-0.0113637
-0.0106675
-0.0101354
-0.00976107
-0.00953244
-0.00943251
-0.00944105
-0.00953621
-0.00969606
-0.00989996
-0.0101295
-0.0103687
-0.0106048
-0.0108271
-0.0110268
-0.0111967
-0.0113352
-0.0114448
0.00087907
0.000462868
0.000180532
-3.27955e-05
-0.000231411
-0.000433687
-0.000655471
-0.000911732
-0.00121481
-0.00157503
-0.00200139
-0.00250196
-0.00308406
-0.0037542
-0.00451802
-0.00537997
-0.00634314
-0.0074089
-0.00857678
-0.00984421
-0.0112064
-0.0126565
-0.0141854
-0.0157818
-0.0174329
-0.0191238
-0.0208385
-0.0225601
-0.0242705
-0.0259518
-0.0275857
-0.0291545
-0.030641
-0.032029
-0.0333034
-0.0344506
-0.0354583
-0.0363157
-0.0370137
-0.0375448
-0.037903
-0.038084
-0.038085
-0.0379048
-0.0375437
-0.0370038
-0.0362888
-0.0354043
-0.034358
-0.0331599
-0.0318223
-0.0303602
-0.0287917
-0.0271378
-0.0254224
-0.0236726
-0.0219177
-0.020189
-0.0185188
-0.0169388
-0.0154792
-0.0141664
-0.0130219
-0.0120605
-0.0112894
-0.0107076
-0.0103064
-0.01007
-0.00997727
-0.0100036
-0.0101228
-0.0103094
-0.0105396
-0.0107924
-0.0110503
-0.0112988
-0.0115261
-0.0117225
-0.0118858
-0.0120194
0.000517156
8.26075e-05
-0.000211893
-0.000435784
-0.000647383
-0.00086706
-0.00111224
-0.00139921
-0.00174135
-0.00214984
-0.00263439
-0.00320371
-0.0038656
-0.00462696
-0.00549358
-0.00646995
-0.0075589
-0.00876138
-0.0100762
-0.0115
-0.0130267
-0.0146483
-0.0163542
-0.0181316
-0.0199659
-0.0218406
-0.0237381
-0.0256396
-0.0275259
-0.0293774
-0.0311748
-0.0328993
-0.034533
-0.0360592
-0.0374624
-0.0387286
-0.0398455
-0.0408025
-0.0415903
-0.0422015
-0.04263
-0.0428713
-0.0429223
-0.0427812
-0.0424477
-0.0419227
-0.0412087
-0.0403098
-0.0392318
-0.0379827
-0.0365726
-0.0350145
-0.0333242
-0.0315211
-0.0296279
-0.027671
-0.0256806
-0.02369
-0.0217346
-0.0198516
-0.0180775
-0.0164468
-0.0149898
-0.0137305
-0.0126846
-0.0118587
-0.0112493
-0.0108438
-0.0106214
-0.0105558
-0.0106167
-0.0107733
-0.010996
-0.0112578
-0.0115356
-0.0118103
-0.0120663
-0.0122907
-0.0124808
-0.0126407
5.9931e-05
-0.000389465
-0.000694485
-0.000928637
-0.00115384
-0.00139237
-0.00166316
-0.00198372
-0.00236842
-0.00282925
-0.00337664
-0.00401986
-0.00476716
-0.00562574
-0.00660151
-0.00769883
-0.0089202
-0.010266
-0.0117342
-0.0133203
-0.0150171
-0.016815
-0.0187018
-0.020663
-0.0226822
-0.0247411
-0.0268204
-0.0288996
-0.0309579
-0.0329747
-0.0349294
-0.0368026
-0.0385757
-0.0402316
-0.0417549
-0.0431317
-0.0443498
-0.0453988
-0.0462699
-0.0469559
-0.0474509
-0.0477504
-0.0478515
-0.0477519
-0.0474508
-0.0469482
-0.0462456
-0.0453455
-0.044252
-0.0429709
-0.0415101
-0.0398797
-0.0380932
-0.036167
-0.0341219
-0.0319825
-0.0297782
-0.0275426
-0.0253134
-0.0231314
-0.0210389
-0.0190781
-0.0172883
-0.0157036
-0.0143502
-0.013244
-0.0123895
-0.0117794
-0.0113955
-0.0112108
-0.011192
-0.0113028
-0.0115072
-0.0117715
-0.012066
-0.0123662
-0.0126514
-0.0129054
-0.0131245
-0.0133135
-0.000497135
-0.000957586
-0.00127136
-0.00151543
-0.00175483
-0.0020136
-0.00231207
-0.00266891
-0.0030994
-0.00361629
-0.00423065
-0.00495229
-0.00578985
-0.00675075
-0.0078409
-0.00906445
-0.0104234
-0.0119174
-0.0135435
-0.0152958
-0.0171659
-0.0191423
-0.0212111
-0.0233559
-0.0255584
-0.0277986
-0.0300551
-0.0323061
-0.0345292
-0.0367026
-0.038805
-0.0408163
-0.0427177
-0.044492
-0.0461239
-0.0476
-0.0489086
-0.0500397
-0.0509853
-0.0517385
-0.052294
-0.0526476
-0.052797
-0.0527393
-0.0524734
-0.0519991
-0.0513166
-0.0504273
-0.0493337
-0.0480393
-0.0465497
-0.0448724
-0.0430174
-0.0409984
-0.0388326
-0.0365421
-0.0341539
-0.0317005
-0.0292198
-0.0267547
-0.0243519
-0.0220599
-0.019927
-0.0179976
-0.0163094
-0.0148899
-0.013754
-0.0129026
-0.0123225
-0.0119881
-0.0118642
-0.0119099
-0.0120824
-0.0123405
-0.0126471
-0.0129709
-0.0132857
-0.0135707
-0.013821
-0.0140421
-0.00115703
-0.0016245
-0.00194515
-0.00219875
-0.00245285
-0.00273313
-0.00306119
-0.00345672
-0.00393584
-0.00451201
-0.00519688
-0.00600071
-0.00693247
-0.0079997
-0.00920823
-0.0105618
-0.0120619
-0.0137073
-0.0154936
-0.0174138
-0.0194577
-0.0216121
-0.0238611
-0.0261863
-0.0285674
-0.0309825
-0.0334085
-0.035822
-0.0381993
-0.0405177
-0.0427552
-0.0448913
-0.0469072
-0.0487861
-0.050513
-0.0520751
-0.0534615
-0.0546631
-0.0556725
-0.0564838
-0.0570925
-0.0574953
-0.0576884
-0.0576709
-0.0574414
-0.0569989
-0.0563433
-0.0554748
-0.0543944
-0.0531039
-0.0516065
-0.0499068
-0.0480118
-0.0459315
-0.0436794
-0.0412737
-0.038738
-0.036102
-0.0334021
-0.0306812
-0.0279882
-0.0253766
-0.0229019
-0.0206189
-0.0185771
-0.0168172
-0.0153668
-0.0142379
-0.0134252
-0.0129075
-0.0126498
-0.0126075
-0.0127314
-0.0129723
-0.0132847
-0.0136293
-0.0139732
-0.0142904
-0.0145742
-0.0148309
-0.00192103
-0.00239131
-0.00271688
-0.00297953
-0.00324875
-0.00355163
-0.00391091
-0.0043472
-0.00487736
-0.00551543
-0.00627361
-0.00716254
-0.00819142
-0.00936781
-0.0106973
-0.0121833
-0.0138262
-0.0156239
-0.0175708
-0.0196582
-0.021874
-0.0242031
-0.0266276
-0.0291271
-0.0316791
-0.0342598
-0.0368446
-0.0394084
-0.0419267
-0.0443759
-0.0467335
-0.0489791
-0.0510941
-0.0530621
-0.054869
-0.0565027
-0.0579533
-0.0592127
-0.0602746
-0.0611339
-0.061787
-0.062231
-0.0624637
-0.0624836
-0.0622896
-0.0618807
-0.0612564
-0.0604161
-0.0593597
-0.0580875
-0.0566006
-0.054901
-0.0529926
-0.0508818
-0.048578
-0.046095
-0.043452
-0.0406744
-0.0377953
-0.0348555
-0.0319039
-0.0289964
-0.0261943
-0.0235609
-0.0211575
-0.0190384
-0.0172461
-0.0158062
-0.0147252
-0.0139891
-0.0135659
-0.0134094
-0.0134648
-0.0136748
-0.0139845
-0.0143459
-0.0147179
-0.0150682
-0.0153877
-0.0156835
-0.00278864
-0.00325741
-0.00358585
-0.00385698
-0.00414156
-0.00446791
-0.00485976
-0.00533846
-0.00592149
-0.00662346
-0.00745695
-0.00843293
-0.00956073
-0.0108478
-0.0122994
-0.0139183
-0.015704
-0.0176532
-0.0197587
-0.0220101
-0.0243934
-0.0268914
-0.0294841
-0.0321489
-0.0348614
-0.037596
-0.0403264
-0.0430263
-0.0456704
-0.0482344
-0.0506958
-0.0530344
-0.0552321
-0.0572731
-0.0591444
-0.0608349
-0.0623359
-0.0636403
-0.064743
-0.06564
-0.0663285
-0.0668065
-0.0670725
-0.0671255
-0.0669647
-0.0665893
-0.0659983
-0.0651911
-0.0641665
-0.0629237
-0.0614621
-0.0597817
-0.0578834
-0.0557701
-0.0534473
-0.050924
-0.0482144
-0.0453388
-0.0423252
-0.0392106
-0.0360413
-0.0328731
-0.0297703
-0.0268028
-0.024042
-0.0215559
-0.0194026
-0.0176239
-0.0162409
-0.0152512
-0.0146292
-0.0143295
-0.0142935
-0.0144561
-0.0147528
-0.0151254
-0.0155236
-0.0159074
-0.0162648
-0.0166033
-0.00375751
-0.00422041
-0.00454958
-0.00482851
-0.00512852
-0.00547895
-0.00590432
-0.00642659
-0.00706377
-0.00783087
-0.00874082
-0.00980478
-0.0110321
-0.01243
-0.0140034
-0.015754
-0.0176806
-0.0197783
-0.0220383
-0.0244483
-0.0269924
-0.0296512
-0.0324024
-0.0352214
-0.0380819
-0.0409565
-0.0438175
-0.0466377
-0.049391
-0.052053
-0.0546013
-0.0570161
-0.0592799
-0.0613781
-0.0632986
-0.0650316
-0.0665696
-0.0679068
-0.0690391
-0.0699637
-0.0706788
-0.0711832
-0.0714762
-0.0715573
-0.0714263
-0.0710824
-0.0705251
-0.0697531
-0.0687652
-0.0675595
-0.0661342
-0.0644876
-0.0626185
-0.0605264
-0.0582133
-0.0556836
-0.0529461
-0.0500156
-0.046914
-0.0436726
-0.040333
-0.0369483
-0.0335828
-0.0303099
-0.027209
-0.0243603
-0.0218374
-0.0196999
-0.0179866
-0.0167101
-0.0158553
-0.0153815
-0.0152285
-0.0153246
-0.0155956
-0.0159722
-0.0163936
-0.0168108
-0.017208
-0.0175928
-0.00482347
-0.00527613
-0.00560388
-0.00588978
-0.00620505
-0.00657984
-0.00703928
-0.00760579
-0.00829772
-0.00913042
-0.0101171
-0.0112689
-0.0125951
-0.0141027
-0.0157958
-0.0176755
-0.0197392
-0.0219805
-0.0243889
-0.0269502
-0.0296462
-0.0324555
-0.0353536
-0.0383139
-0.0413081
-0.0443075
-0.0472831
-0.050207
-0.0530527
-0.0557956
-0.058414
-0.0608884
-0.0632026
-0.0653429
-0.0672984
-0.0690607
-0.0706234
-0.0719821
-0.0731338
-0.0740769
-0.0748103
-0.0753339
-0.0756476
-0.0757517
-0.0756463
-0.0753312
-0.0748058
-0.0740693
-0.07312
-0.0719557
-0.0705739
-0.0689715
-0.0671456
-0.0650934
-0.0628134
-0.0603062
-0.0575754
-0.0546299
-0.0514851
-0.0481655
-0.0447062
-0.0411552
-0.0375734
-0.0340349
-0.0306239
-0.0274298
-0.0245408
-0.0220347
-0.0199699
-0.0183777
-0.0172577
-0.0165781
-0.0162804
-0.0162885
-0.0165188
-0.0168905
-0.017331
-0.0177806
-0.0182192
-0.0186538
-0.00598054
-0.00641871
-0.00674281
-0.0070347
-0.00736485
-0.00776394
-0.00825754
-0.00886836
-0.00961499
-0.010513
-0.0115756
-0.012814
-0.0142374
-0.0158521
-0.0176616
-0.019666
-0.0218614
-0.0242397
-0.0267886
-0.0294919
-0.0323293
-0.0352772
-0.038309
-0.0413963
-0.0445091
-0.0476173
-0.0506911
-0.0537019
-0.0566231
-0.0594305
-0.0621028
-0.0646215
-0.0669714
-0.0691401
-0.071118
-0.0728978
-0.0744746
-0.075845
-0.0770073
-0.0779607
-0.0787053
-0.0792416
-0.0795703
-0.0796922
-0.079608
-0.079318
-0.078822
-0.0781193
-0.0772083
-0.0760868
-0.074752
-0.0731999
-0.0714265
-0.0694273
-0.0671982
-0.0647363
-0.0620408
-0.059115
-0.0559678
-0.0526161
-0.0490876
-0.0454228
-0.0416771
-0.0379212
-0.0342405
-0.0307308
-0.027492
-0.0246191
-0.0221911
-0.0202606
-0.0188463
-0.0179299
-0.0174588
-0.0173552
-0.0175277
-0.0178838
-0.0183379
-0.0188185
-0.0192995
-0.0197872
-0.0072211
-0.00764064
-0.00795885
-0.00825562
-0.00859997
-0.00902292
-0.00955031
-0.0102049
-0.0110055
-0.0119677
-0.0131046
-0.0144274
-0.0159449
-0.0176629
-0.0195841
-0.0217074
-0.0240274
-0.0265345
-0.0292146
-0.0320492
-0.0350161
-0.0380894
-0.0412409
-0.0444401
-0.0476558
-0.0508566
-0.0540122
-0.0570936
-0.0600744
-0.0629308
-0.0656423
-0.0681915
-0.0705642
-0.0727494
-0.0747386
-0.0765261
-0.0781079
-0.079482
-0.0806476
-0.0816048
-0.0823544
-0.0828978
-0.0832364
-0.0833714
-0.0833042
-0.0830353
-0.0825652
-0.0818934
-0.0810188
-0.0799392
-0.0786517
-0.0771524
-0.0754364
-0.0734981
-0.0713318
-0.0689317
-0.0662935
-0.0634155
-0.0603005
-0.0569581
-0.0534076
-0.0496809
-0.0458252
-0.0419055
-0.0380041
-0.0342192
-0.0306591
-0.0274335
-0.0246415
-0.0223587
-0.0206266
-0.0194447
-0.0187716
-0.0185315
-0.0186272
-0.0189553
-0.0194161
-0.0199251
-0.0204491
-0.0209929
-0.00853597
-0.00893297
-0.00924306
-0.0095434
-0.009901
-0.010347
-0.0109073
-0.0116047
-0.0124578
-0.0134821
-0.0146909
-0.0160948
-0.0177024
-0.0195187
-0.0215455
-0.0237805
-0.0262169
-0.0288434
-0.0316439
-0.034598
-0.0376814
-0.0408664
-0.0441227
-0.0474186
-0.0507214
-0.0539992
-0.0572208
-0.0603576
-0.0633832
-0.0662747
-0.0690123
-0.0715799
-0.0739644
-0.076156
-0.0781478
-0.0799349
-0.0815146
-0.082886
-0.0840491
-0.0850048
-0.0857548
-0.0863008
-0.0866449
-0.086789
-0.0867346
-0.0864831
-0.086035
-0.0853906
-0.084549
-0.0835085
-0.0822666
-0.0808193
-0.0791618
-0.0772879
-0.0751908
-0.072863
-0.0702974
-0.0674883