/*--------------------------------*- C++ -*----------------------------------*\
  =========                 |
  \\      /  F ield         | OpenFOAM: The Open Source CFD Toolbox
   \\    /   O peration     | Website:  https://openfoam.org
    \\  /    A nd           | Version:  7
     \\/     M anipulation  |
\*---------------------------------------------------------------------------*/
FoamFile
{
    version     2.0;
    format      ascii;
    class       volVectorField;
    location    "2.325";
    object      U;
}
// * * * * * * * * * * * * * * * * * * * * * * * * * * * * * * * * * * * * * //

dimensions      [0 1 -1 0 0 0 0];

internalField   nonuniform List<vector> 
6400
(
(1.10588e-05 -1.03776e-05 0)
(6.99428e-05 -3.62799e-05 0)
(0.000176246 -4.68223e-05 0)
(0.000287802 -4.52221e-05 0)
(0.000380902 -3.72007e-05 0)
(0.000444145 -2.63483e-05 0)
(0.000472246 -1.46617e-05 0)
(0.000463548 -3.17227e-06 0)
(0.000418432 7.67424e-06 0)
(0.00033818 1.77632e-05 0)
(0.000224283 2.71785e-05 0)
(7.80494e-05 3.6089e-05 0)
(-9.9589e-05 4.46926e-05 0)
(-0.000308133 5.31846e-05 0)
(-0.000547481 6.17306e-05 0)
(-0.000817854 7.04583e-05 0)
(-0.00111968 7.9452e-05 0)
(-0.00145346 8.87506e-05 0)
(-0.00181965 9.83477e-05 0)
(-0.00221851 0.000108195 0)
(-0.00265 0.000118203 0)
(-0.00311363 0.000128247 0)
(-0.00360842 0.000138167 0)
(-0.00413271 0.00014777 0)
(-0.00468417 0.000156833 0)
(-0.00525966 0.000165109 0)
(-0.00585522 0.000172325 0)
(-0.006466 0.000178192 0)
(-0.00708626 0.000182407 0)
(-0.00770939 0.000184661 0)
(-0.0083279 0.000184651 0)
(-0.00893354 0.000182084 0)
(-0.00951732 0.000176695 0)
(-0.0100697 0.000168251 0)
(-0.0105808 0.000156571 0)
(-0.0110403 0.000141536 0)
(-0.0114382 0.000123101 0)
(-0.0117644 0.000101308 0)
(-0.0120096 7.62938e-05 0)
(-0.0121651 4.829e-05 0)
(-0.0122236 1.76522e-05 0)
(-0.0121789 -1.49929e-05 0)
(-0.0120263 -4.92653e-05 0)
(-0.0117635 -8.44612e-05 0)
(-0.0113902 -0.000119795 0)
(-0.0109083 -0.000154431 0)
(-0.0103222 -0.000187498 0)
(-0.00963879 -0.000218109 0)
(-0.00886733 -0.000245398 0)
(-0.00801948 -0.000268554 0)
(-0.00710892 -0.000286859 0)
(-0.00615115 -0.000299725 0)
(-0.005163 -0.00030672 0)
(-0.00416226 -0.000307601 0)
(-0.00316709 -0.000302325 0)
(-0.00219552 -0.00029106 0)
(-0.00126482 -0.000274174 0)
(-0.000390837 -0.000252271 0)
(0.000411964 -0.000226241 0)
(0.00113129 -0.000196446 0)
(0.00175783 -0.000164331 0)
(0.00228473 -0.000130717 0)
(0.00270779 -9.65648e-05 0)
(0.00302564 -6.28016e-05 0)
(0.00323954 -3.02503e-05 0)
(0.00335306 3.98075e-07 0)
(0.0033718 2.85985e-05 0)
(0.003303 5.3957e-05 0)
(0.00315518 7.62175e-05 0)
(0.00293785 9.52267e-05 0)
(0.00266128 0.000110881 0)
(0.00233645 0.000123041 0)
(0.00197526 0.000131416 0)
(0.00159099 0.000135398 0)
(0.0011992 0.000133841 0)
(0.000819083 0.000124838 0)
(0.000474861 0.000105614 0)
(0.000196361 7.26634e-05 0)
(1.83832e-05 2.44043e-05 0)
(-2.04243e-05 -2.05449e-05 0)
(3.7377e-05 -6.94917e-05 0)
(0.000168843 -0.000166989 0)
(0.00036862 -0.000199801 0)
(0.000562632 -0.000183528 0)
(0.000706659 -0.00013749 0)
(0.000776446 -7.5547e-05 0)
(0.000758242 -6.60997e-06 0)
(0.000645619 6.40144e-05 0)
(0.000436865 0.000133544 0)
(0.000132829 0.000200804 0)
(-0.000264602 0.000265679 0)
(-0.000753465 0.000328599 0)
(-0.00133222 0.000390246 0)
(-0.00199996 0.000451351 0)
(-0.00275639 0.000512548 0)
(-0.00360168 0.000574296 0)
(-0.00453622 0.000636828 0)
(-0.00556031 0.00070013 0)
(-0.00667386 0.000763938 0)
(-0.00787606 0.000827743 0)
(-0.00916507 0.000890806 0)
(-0.0105377 0.000952173 0)
(-0.0119894 0.0010107 0)
(-0.0135135 0.00106507 0)
(-0.0151016 0.00111381 0)
(-0.0167432 0.00115536 0)
(-0.0184255 0.00118806 0)
(-0.0201336 0.0012102 0)
(-0.0218504 0.00122008 0)
(-0.0235568 0.00121604 0)
(-0.0252315 0.00119654 0)
(-0.026852 0.00116018 0)
(-0.0283941 0.00110581 0)
(-0.0298328 0.00103255 0)
(-0.0311428 0.000939863 0)
(-0.0322985 0.000827619 0)
(-0.0332752 0.000696146 0)
(-0.0340493 0.000546268 0)
(-0.0345992 0.000379331 0)
(-0.0349057 0.000197208 0)
(-0.0349529 2.34235e-06 0)
(-0.0347284 -0.000202013 0)
(-0.0342244 -0.00041265 0)
(-0.0334376 -0.000625641 0)
(-0.0323703 -0.000836691 0)
(-0.0310299 -0.00104128 0)
(-0.0294295 -0.00123475 0)
(-0.027588 -0.0014125 0)
(-0.0255293 -0.00157007 0)
(-0.0232828 -0.00170335 0)
(-0.020882 -0.00180873 0)
(-0.0183647 -0.00188326 0)
(-0.0157713 -0.0019248 0)
(-0.0131445 -0.00193211 0)
(-0.0105277 -0.00190497 0)
(-0.00796401 -0.00184417 0)
(-0.00549531 -0.00175154 0)
(-0.00316054 -0.00162991 0)
(-0.000994853 -0.00148317 0)
(0.000970413 -0.00131529 0)
(0.00271013 -0.00113122 0)
(0.00420573 -0.000936277 0)
(0.00544408 -0.000735661 0)
(0.00641874 -0.00053445 0)
(0.00712961 -0.000337373 0)
(0.00758241 -0.000148641 0)
(0.00778821 2.81543e-05 0)
(0.00776269 0.000190088 0)
(0.00752547 0.00033485 0)
(0.00709953 0.000460606 0)
(0.00651071 0.00056576 0)
(0.00578767 0.000648602 0)
(0.00496205 0.000706839 0)
(0.00406925 0.000737034 0)
(0.00314965 0.000733998 0)
(0.00225004 0.000690418 0)
(0.00142415 0.000597279 0)
(0.000730685 0.000445798 0)
(0.000237311 0.000236046 0)
(2.49973e-05 1.85704e-05 0)
(4.87454e-05 -0.000178335 0)
(0.000202738 -0.000367815 0)
(0.000414315 -0.000413908 0)
(0.000593636 -0.000355833 0)
(0.000687909 -0.000230274 0)
(0.000667143 -6.53582e-05 0)
(0.000512995 0.000119413 0)
(0.000215713 0.000311527 0)
(-0.0002286 0.000503854 0)
(-0.000820405 0.000692987 0)
(-0.00155853 0.000877954 0)
(-0.0024414 0.00105922 0)
(-0.00346766 0.00123795 0)
(-0.00463643 0.00141548 0)
(-0.00594728 0.00159296 0)
(-0.00740007 0.00177113 0)
(-0.00899452 0.00195016 0)
(-0.0107299 0.00212962 0)
(-0.0126044 0.0023084 0)
(-0.014615 0.00248479 0)
(-0.0167567 0.00265646 0)
(-0.0190222 0.00282055 0)
(-0.0214018 0.00297372 0)
(-0.023883 0.00311221 0)
(-0.0264499 0.00323194 0)
(-0.0290838 0.00332862 0)
(-0.0317627 0.00339781 0)
(-0.0344614 0.00343509 0)
(-0.0371516 0.00343616 0)
(-0.0398025 0.00339698 0)
(-0.042381 0.00331393 0)
(-0.0448518 0.00318393 0)
(-0.0471786 0.00300463 0)
(-0.0493243 0.00277452 0)
(-0.0512519 0.00249308 0)
(-0.0529252 0.0021609 0)
(-0.0543099 0.00177975 0)
(-0.0553738 0.00135267 0)
(-0.0560884 0.000884001 0)
(-0.0564293 0.000379378 0)
(-0.0563767 -0.00015431 0)
(-0.0559168 -0.000708819 0)
(-0.0550421 -0.00127502 0)
(-0.0537514 -0.00184286 0)
(-0.052051 -0.00240154 0)
(-0.0499545 -0.00293985 0)
(-0.0474829 -0.00344638 0)
(-0.0446645 -0.00390994 0)
(-0.0415346 -0.00431983 0)
(-0.0381351 -0.00466622 0)
(-0.0345137 -0.00494052 0)
(-0.030723 -0.00513574 0)
(-0.0268196 -0.00524675 0)
(-0.0228628 -0.00527057 0)
(-0.018913 -0.00520655 0)
(-0.0150308 -0.00505646 0)
(-0.0112747 -0.00482448 0)
(-0.00770042 -0.00451715 0)
(-0.00435888 -0.00414313 0)
(-0.00129542 -0.00371299 0)
(0.00145176 -0.0032379 0)
(0.00385265 -0.00273081 0)
(0.00588546 -0.00220479 0)
(0.00753714 -0.00167268 0)
(0.0088035 -0.00114675 0)
(0.0096888 -0.00063825 0)
(0.0102053 -0.000157174 0)
(0.0103724 0.000287922 0)
(0.0102162 0.000689836 0)
(0.00976827 0.00104245 0)
(0.00906544 0.00134025 0)
(0.00814942 0.0015776 0)
(0.00706682 0.00174785 0)
(0.00586972 0.00184231 0)
(0.00461648 0.00184949 0)
(0.00337276 0.00175486 0)
(0.00221066 0.00154254 0)
(0.00120573 0.00119997 0)
(0.000450243 0.000730754 0)
(7.4188e-05 0.000198506 0)
(4.73215e-05 -0.000292545 0)
(0.00018228 -0.00055955 0)
(0.000340142 -0.000590579 0)
(0.000427789 -0.00045566 0)
(0.000390744 -0.000211217 0)
(0.000197706 9.93992e-05 0)
(-0.000170984 0.000445395 0)
(-0.000726422 0.000806545 0)
(-0.00147372 0.00117083 0)
(-0.00241454 0.00153215 0)
(-0.00354872 0.00188835 0)
(-0.00487551 0.00223965 0)
(-0.00639409 0.00258743 0)
(-0.00810383 0.0029334 0)
(-0.0100042 0.0032789 0)
(-0.0120944 0.00362456 0)
(-0.0143731 0.00397 0)
(-0.0168378 0.00431375 0)
(-0.0194841 0.00465316 0)
(-0.0223056 0.00498447 0)
(-0.0252931 0.00530288 0)
(-0.0284341 0.00560263 0)
(-0.0317128 0.00587714 0)
(-0.0351095 0.00611921 0)
(-0.0386005 0.00632114 0)
(-0.0421583 0.00647497 0)
(-0.0457513 0.00657269 0)
(-0.0493443 0.00660647 0)
(-0.0528988 0.00656888 0)
(-0.0563735 0.00645322 0)
(-0.0597247 0.0062537 0)
(-0.0629074 0.00596575 0)
(-0.0658755 0.00558624 0)
(-0.0685832 0.00511369 0)
(-0.0709856 0.00454847 0)
(-0.0730399 0.00389298 0)
(-0.0747061 0.00315172 0)
(-0.075948 0.00233136 0)
(-0.076734 0.00144078 0)
(-0.0770381 0.000490939 0)
(-0.0768406 -0.000505206 0)
(-0.0761284 -0.00153274 0)
(-0.0748963 -0.00257515 0)
(-0.0731466 -0.00361465 0)
(-0.07089 -0.0046325 0)
(-0.0681453 -0.00560936 0)
(-0.0649397 -0.00652582 0)
(-0.0613085 -0.00736291 0)
(-0.0572947 -0.00810258 0)
(-0.0529486 -0.00872831 0)
(-0.048327 -0.00922567 0)
(-0.0434921 -0.00958283 0)
(-0.0385109 -0.00979104 0)
(-0.0334532 -0.00984509 0)
(-0.0283911 -0.00974356 0)
(-0.0233964 -0.00948907 0)
(-0.0185399 -0.00908824 0)
(-0.0138893 -0.00855164 0)
(-0.00950744 -0.00789342 0)
(-0.00545124 -0.00713093 0)
(-0.00176989 -0.00628379 0)
(0.00149617 -0.0053736 0)
(0.0043161 -0.00442296 0)
(0.00666932 -0.00345456 0)
(0.00854565 -0.00249041 0)
(0.00994533 -0.00155115 0)
(0.0108787 -0.000655598 0)
(0.0113654 0.000179604 0)
(0.0114341 0.000939947 0)
(0.0111211 0.00161274 0)
(0.0104702 0.00218638 0)
(0.00953192 0.00264937 0)
(0.00836346 0.00298906 0)
(0.00702864 0.0031903 0)
(0.00559849 0.00323454 0)
(0.00415174 0.00309981 0)
(0.00277341 0.00276309 0)
(0.00155228 0.00220607 0)
(0.000604017 0.0014281 0)
(0.000107866 0.000480939 0)
(3.78085e-05 -0.000384546 0)
(0.000122149 -0.000687264 0)
(0.000172005 -0.000660375 0)
(0.000103215 -0.000406125 0)
(-0.000134456 -1.33843e-06 0)
(-0.000570356 0.000495785 0)
(-0.00122273 0.00104376 0)
(-0.00210209 0.00161523 0)
(-0.00321376 0.00219365 0)
(-0.00456005 0.00277036 0)
(-0.00614169 0.00334196 0)
(-0.00795878 0.00390826 0)
(-0.0100111 0.00447057 0)
(-0.0122984 0.00503052 0)
(-0.0148197 0.00558915 0)
(-0.0175736 0.00614634 0)
(-0.0205568 0.00670048 0)
(-0.0237645 0.00724826 0)
(-0.0271891 0.00778464 0)
(-0.0308199 0.00830295 0)
(-0.0346425 0.00879494 0)
(-0.0386384 0.00925104 0)
(-0.0427849 0.0096606 0)
(-0.0470546 0.0100121 0)
(-0.0514154 0.0102935 0)
(-0.055831 0.0104927 0)
(-0.0602606 0.0105977 0)
(-0.0646599 0.0105969 0)
(-0.0689812 0.01048 0)
(-0.0731743 0.0102377 0)
(-0.0771874 0.00986257 0)
(-0.0809677 0.00934923 0)
(-0.0844626 0.00869463 0)
(-0.0876208 0.00789833 0)
(-0.0903928 0.00696277 0)
(-0.0927325 0.00589333 0)
(-0.0945975 0.00469847 0)
(-0.0959507 0.00338974 0)
(-0.0967602 0.00198171 0)
(-0.0970012 0.000491779 0)
(-0.096655 -0.00106017 0)
(-0.095711 -0.00265148 0)
(-0.0941667 -0.0042576 0)
(-0.0920274 -0.00585241 0)
(-0.0893073 -0.00740865 0)
(-0.086029 -0.00889843 0)
(-0.0822235 -0.0102939 0)
(-0.0779303 -0.011568 0)
(-0.0731968 -0.0126949 0)
(-0.0680781 -0.013651 0)
(-0.0626361 -0.0144156 0)
(-0.0569386 -0.0149716 0)
(-0.0510587 -0.0153062 0)
(-0.0450731 -0.0154112 0)
(-0.0390611 -0.0152841 0)
(-0.0331029 -0.0149277 0)
(-0.0272778 -0.0143508 0)
(-0.0216629 -0.0135674 0)
(-0.0163307 -0.0125973 0)
(-0.0113482 -0.0114646 0)
(-0.00677448 -0.0101974 0)
(-0.00265985 -0.00882676 0)
(0.000955616 -0.00738564 0)
(0.00404289 -0.0059077 0)
(0.00658453 -0.00442612 0)
(0.0085749 -0.00297263 0)
(0.0100201 -0.00157683 0)
(0.0109376 -0.000265427 0)
(0.0113554 0.000937652 0)
(0.0113118 0.00201105 0)
(0.0108541 0.00293516 0)
(0.0100382 0.00369091 0)
(0.00892821 0.00425829 0)
(0.0075961 0.0046148 0)
(0.0061218 0.00473428 0)
(0.00459363 0.0045869 0)
(0.00310687 0.00414128 0)
(0.00176222 0.00336972 0)
(0.000696084 0.0022584 0)
(0.000126904 0.000829815 0)
(2.305e-05 -0.00043672 0)
(3.26907e-05 -0.000711297 0)
(-7.0018e-05 -0.000570786 0)
(-0.000349851 -0.000147336 0)
(-0.000847384 0.000462884 0)
(-0.00158705 0.00118813 0)
(-0.00258338 0.00197765 0)
(-0.00384463 0.00279809 0)
(-0.00537519 0.00362928 0)
(-0.00717739 0.00446055 0)
(-0.00925249 0.00528752 0)
(-0.0116013 0.0061095 0)
(-0.014224 0.00692744 0)
(-0.0171206 0.00774241 0)
(-0.0202895 0.00855449 0)
(-0.023728 0.00936207 0)
(-0.0274309 0.0101614 0)
(-0.0313901 0.0109466 0)
(-0.0355941 0.0117091 0)
(-0.0400272 0.0124384 0)
(-0.0446692 0.0131221 0)
(-0.0494951 0.0137458 0)
(-0.0544746 0.0142941 0)
(-0.0595726 0.0147506 0)
(-0.0647487 0.0150986 0)
(-0.0699582 0.0153213 0)
(-0.0751521 0.0154029 0)
(-0.0802779 0.0153284 0)
(-0.0852805 0.0150848 0)
(-0.090103 0.0146611 0)
(-0.0946874 0.0140489 0)
(-0.0989762 0.0132431 0)
(-0.102913 0.0122417 0)
(-0.106444 0.0110464 0)
(-0.109517 0.00966294 0)
(-0.112086 0.0081007 0)
(-0.114109 0.00637312 0)
(-0.115549 0.00449746 0)
(-0.116376 0.00249475 0)
(-0.116567 0.000389371 0)
(-0.116106 -0.0017917 0)
(-0.114982 -0.00401749 0)
(-0.113197 -0.00625534 0)
(-0.110757 -0.00847078 0)
(-0.107678 -0.010628 0)
(-0.103985 -0.0126906 0)
(-0.099709 -0.0146224 0)
(-0.0948917 -0.0163879 0)
(-0.0895818 -0.0179535 0)
(-0.0838362 -0.0192883 0)
(-0.0777187 -0.0203649 0)
(-0.0712999 -0.0211603 0)
(-0.0646561 -0.0216569 0)
(-0.0578683 -0.0218432 0)
(-0.0510207 -0.0217145 0)
(-0.0441994 -0.0212732 0)
(-0.0374909 -0.0205291 0)
(-0.0309799 -0.0194994 0)
(-0.0247479 -0.0182087 0)
(-0.0188708 -0.0166875 0)
(-0.0134177 -0.0149723 0)
(-0.00844844 -0.0131037 0)
(-0.0040129 -0.0111256 0)
(-0.000149235 -0.00908326 0)
(0.0031168 -0.00702218 0)
(0.00577228 -0.00498645 0)
(0.00781743 -0.00301809 0)
(0.00926548 -0.00115566 0)
(0.010142 0.00056566 0)
(0.0104845 0.00211392 0)
(0.0103415 0.00345972 0)
(0.00977155 0.00457484 0)
(0.00884318 0.00543059 0)
(0.00763374 0.00599607 0)
(0.00622965 0.00623671 0)
(0.00472664 0.00611383 0)
(0.00322861 0.00558589 0)
(0.00184694 0.00461215 0)
(0.000734284 0.00315935 0)
(0.000134475 0.00121289 0)
(4.58892e-06 -0.000435934 0)
(-7.94042e-05 -0.000599392 0)
(-0.000371306 -0.000277305 0)
(-0.000908033 0.000372388 0)
(-0.00171583 0.00123663 0)
(-0.00281142 0.00223245 0)
(-0.00420356 0.00330199 0)
(-0.00589667 0.00440764 0)
(-0.00789324 0.00552696 0)
(-0.0101949 0.00664814 0)
(-0.012803 0.00776626 0)
(-0.0157188 0.00888019 0)
(-0.0189427 0.00999021 0)
(-0.0224744 0.0110963 0)
(-0.0263116 0.0121969 0)
(-0.0304498 0.013288 0)
(-0.0348811 0.0143628 0)
(-0.039594 0.0154117 0)
(-0.0445722 0.016422 0)
(-0.0497947 0.0173783 0)
(-0.055235 0.018263 0)
(-0.060861 0.0190567 0)
(-0.0666353 0.0197383 0)
(-0.072515 0.0202864 0)
(-0.0784521 0.0206795 0)
(-0.0843944 0.0208965 0)
(-0.0902858 0.0209178 0)
(-0.0960676 0.0207259 0)
(-0.101679 0.0203057 0)
(-0.107059 0.0196454 0)
(-0.112145 0.0187369 0)
(-0.116879 0.0175761 0)
(-0.121201 0.0161636 0)
(-0.125058 0.0145041 0)
(-0.128399 0.0126074 0)
(-0.131177 0.0104878 0)
(-0.133353 0.00816425 0)
(-0.134892 0.0056601 0)
(-0.135765 0.00300304 0)
(-0.135952 0.000224488 0)
(-0.135436 -0.00264174 0)
(-0.134209 -0.00555643 0)
(-0.132273 -0.00847922 0)
(-0.129633 -0.0113676 0)
(-0.126307 -0.0141777 0)
(-0.122316 -0.0168648 0)
(-0.117693 -0.0193842 0)
(-0.112476 -0.0216926 0)
(-0.106714 -0.0237482 0)
(-0.100464 -0.0255123 0)
(-0.0937874 -0.0269504 0)
(-0.0867566 -0.0280329 0)
(-0.0794489 -0.0287368 0)
(-0.0719478 -0.0290459 0)
(-0.0643411 -0.0289524 0)
(-0.0567199 -0.028457 0)
(-0.0491766 -0.0275698 0)
(-0.0418035 -0.0263099 0)
(-0.0346902 -0.0247058 0)
(-0.0279222 -0.0227941 0)
(-0.0215783 -0.020619 0)
(-0.0157289 -0.0182307 0)
(-0.0104339 -0.015684 0)
(-0.00574154 -0.0130365 0)
(-0.00168693 -0.0103468 0)
(0.0017085 -0.00767267 0)
(0.00443779 -0.00506961 0)
(0.0065086 -0.00258978 0)
(0.00794235 -0.000281369 0)
(0.00877409 0.00181142 0)
(0.00905161 0.00364767 0)
(0.0088346 0.00518846 0)
(0.00819379 0.00639511 0)
(0.00721027 0.00722714 0)
(0.00597525 0.00764048 0)
(0.00459041 0.00758637 0)
(0.0031669 0.00701138 0)
(0.00182504 0.00585924 0)
(0.000728599 0.00407415 0)
(0.000133502 0.00160342 0)
(-1.68309e-05 -0.000371821 0)
(-0.000209857 -0.000324901 0)
(-0.000721167 0.000257791 0)
(-0.00155319 0.00119715 0)
(-0.00271377 0.00236708 0)
(-0.00420931 0.00367664 0)
(-0.00604089 0.00506361 0)
(-0.00820785 0.00648848 0)
(-0.0107098 0.00792822 0)
(-0.013547 0.00937105 0)
(-0.0167206 0.0108121 0)
(-0.0202316 0.0122498 0)
(-0.0240805 0.0136837 0)
(-0.0282664 0.015112 0)
(-0.0327857 0.0165306 0)
(-0.0376318 0.0179323 0)
(-0.0427935 0.0193064 0)
(-0.0482553 0.0206384 0)
(-0.053996 0.0219106 0)
(-0.0599886 0.023102 0)
(-0.0662003 0.0241892 0)
(-0.0725923 0.025147 0)
(-0.0791199 0.0259489 0)
(-0.0857334 0.0265682 0)
(-0.0923781 0.0269789 0)
(-0.0989957 0.027156 0)
(-0.105525 0.0270772 0)
(-0.111902 0.0267229 0)
(-0.118064 0.0260772 0)
(-0.123945 0.0251287 0)
(-0.129485 0.0238704 0)
(-0.134622 0.0223007 0)
(-0.139299 0.020423 0)
(-0.143464 0.0182464 0)
(-0.147067 0.015785 0)
(-0.150064 0.0130585 0)
(-0.152418 0.0100913 0)
(-0.154094 0.00691276 0)
(-0.155066 0.00355668 0)
(-0.155314 6.10746e-05 0)
(-0.154823 -0.00353166 0)
(-0.153583 -0.0071773 0)
(-0.151594 -0.010828 0)
(-0.148861 -0.0144337 0)
(-0.145397 -0.0179427 0)
(-0.141223 -0.0213023 0)
(-0.136366 -0.0244601 0)
(-0.130864 -0.027364 0)
(-0.124759 -0.0299644 0)
(-0.118107 -0.0322142 0)
(-0.110968 -0.0340711 0)
(-0.103412 -0.0354982 0)
(-0.0955159 -0.0364654 0)
(-0.0873655 -0.036951 0)
(-0.0790508 -0.0369425 0)
(-0.0706672 -0.0364378 0)
(-0.0623129 -0.0354455 0)
(-0.0540875 -0.0339858 0)
(-0.0460893 -0.0320897 0)
(-0.0384136 -0.029799 0)
(-0.0311496 -0.0271651 0)
(-0.024379 -0.0242474 0)
(-0.0181732 -0.021112 0)
(-0.0125912 -0.0178291 0)
(-0.00767887 -0.014471 0)
(-0.00346704 -0.0111103 0)
(2.89629e-05 -0.00781735 0)
(0.00280972 -0.00465939 0)
(0.00489138 -0.00169918 0)
(0.00630531 0.0010051 0)
(0.00709734 0.00339941 0)
(0.00732676 0.0054326 0)
(0.00706544 0.00705455 0)
(0.00639694 0.00821399 0)
(0.00541613 0.00885619 0)
(0.00422951 0.00892109 0)
(0.00295413 0.00834216 0)
(0.00171733 0.00704637 0)
(0.000689051 0.0049551 0)
(0.000126461 0.00198073 0)
(-4.07161e-05 -0.000235882 0)
(-0.000355547 0.000134254 0)
(-0.00111154 0.00106579 0)
(-0.00227091 0.00236373 0)
(-0.00381942 0.00389359 0)
(-0.00575111 0.00556048 0)
(-0.00805778 0.00730128 0)
(-0.0107325 0.00907725 0)
(-0.0137711 0.0108669 0)
(-0.0171721 0.0126597 0)
(-0.0209358 0.0144516 0)
(-0.0250629 0.0162409 0)
(-0.0295533 0.0180258 0)
(-0.034405 0.0198023 0)
(-0.0396129 0.021563 0)
(-0.0451675 0.0232965 0)
(-0.0510544 0.0249871 0)
(-0.0572532 0.0266149 0)
(-0.0637377 0.0281559 0)
(-0.070475 0.0295833 0)
(-0.0774261 0.0308674 0)
(-0.0845457 0.0319769 0)
(-0.0917828 0.0328801 0)
(-0.0990818 0.0335453 0)
(-0.106383 0.0339425 0)
(-0.113623 0.0340439 0)
(-0.120737 0.033825 0)
(-0.127659 0.0332656 0)
(-0.134325 0.0323499 0)
(-0.140669 0.0310679 0)
(-0.146631 0.029415 0)
(-0.15215 0.0273924 0)
(-0.157173 0.0250076 0)
(-0.161648 0.0222738 0)
(-0.165529 0.0192101 0)
(-0.168774 0.015841 0)
(-0.171346 0.0121966 0)
(-0.173215 0.00831138 0)
(-0.174352 0.00422465 0)
(-0.174738 -1.97628e-05 0)
(-0.174356 -0.00437146 0)
(-0.173196 -0.00878242 0)
(-0.171255 -0.013198 0)
(-0.168532 -0.017561 0)
(-0.165038 -0.0218127 0)
(-0.160787 -0.025893 0)
(-0.155803 -0.0297413 0)
(-0.150117 -0.0332974 0)
(-0.143768 -0.036503 0)
(-0.136806 -0.0393025 0)
(-0.129287 -0.0416445 0)
(-0.121279 -0.0434837 0)
(-0.112858 -0.044782 0)
(-0.10411 -0.0455103 0)
(-0.0951249 -0.04565 0)
(-0.0860035 -0.0451942 0)
(-0.076849 -0.0441487 0)
(-0.0677685 -0.0425327 0)
(-0.0588693 -0.0403788 0)
(-0.0502571 -0.0377327 0)
(-0.0420329 -0.0346522 0)
(-0.0342906 -0.0312058 0)
(-0.0271142 -0.0274703 0)
(-0.0205754 -0.0235291 0)
(-0.0147318 -0.0194693 0)
(-0.00962512 -0.015379 0)
(-0.00528049 -0.0113449 0)
(-0.0017055 -0.00745089 0)
(0.00110954 -0.00377588 0)
(0.00319128 -0.000393713 0)
(0.00458257 0.00262676 0)
(0.00534143 0.00522058 0)
(0.00553998 0.00732479 0)
(0.00526347 0.00887599 0)
(0.00460965 0.00980764 0)
(0.00368885 0.0100475 0)
(0.00262282 0.00951509 0)
(0.00154409 0.00812085 0)
(0.000624771 0.00576473 0)
(0.000115368 0.00232962 0)
(-6.67719e-05 -2.08641e-05 0)
(-0.000514257 0.000796409 0)
(-0.00153584 0.00217245 0)
(-0.00304865 0.00390228 0)
(-0.00501344 0.00584817 0)
(-0.00740998 0.007916 0)
(-0.0102195 0.0100457 0)
(-0.0134277 0.0122025 0)
(-0.0170262 0.0143687 0)
(-0.0210113 0.0165366 0)
(-0.0253819 0.0187036 0)
(-0.0301378 0.020868 0)
(-0.0352783 0.0230266 0)
(-0.0407997 0.0251723 0)
(-0.0466948 0.0272938 0)
(-0.052951 0.0293744 0)
(-0.0595501 0.0313927 0)
(-0.0664669 0.0333223 0)
(-0.07367 0.0351329 0)
(-0.0811208 0.0367908 0)
(-0.0887744 0.0382602 0)
(-0.0965799 0.039504 0)
(-0.104481 0.0404853 0)
(-0.112417 0.0411684 0)
(-0.120326 0.04152 0)
(-0.12814 0.0415104 0)
(-0.135793 0.0411142 0)
(-0.14322 0.0403115 0)
(-0.150354 0.0390879 0)
(-0.157134 0.0374354 0)
(-0.1635 0.0353526 0)
(-0.169395 0.0328444 0)
(-0.174767 0.0299223 0)
(-0.179568 0.0266038 0)
(-0.183753 0.0229125 0)
(-0.187284 0.0188777 0)
(-0.190124 0.014534 0)
(-0.192243 0.0099209 0)
(-0.193615 0.0050825 0)
(-0.194214 6.75566e-05 0)
(-0.194024 -0.00507061 0)
(-0.193034 -0.0102764 0)
(-0.191233 -0.0154897 0)
(-0.188617 -0.0206478 0)
(-0.185191 -0.0256852 0)
(-0.180963 -0.0305348 0)
(-0.175949 -0.0351282 0)
(-0.170176 -0.0393971 0)
(-0.163674 -0.0432739 0)
(-0.156488 -0.0466939 0)
(-0.14867 -0.049596 0)
(-0.140282 -0.051925 0)
(-0.131397 -0.0536334 0)
(-0.1221 -0.054683 0)
(-0.112482 -0.0550472 0)
(-0.102647 -0.0547122 0)
(-0.0927019 -0.053679 0)
(-0.0827618 -0.051964 0)
(-0.0729432 -0.0495994 0)
(-0.0633631 -0.0466335 0)
(-0.0541351 -0.0431295 0)
(-0.0453669 -0.039164 0)
(-0.0371565 -0.0348251 0)
(-0.0295901 -0.0302093 0)
(-0.0227389 -0.025419 0)
(-0.0166575 -0.0205594 0)
(-0.0113821 -0.0157349 0)
(-0.00693006 -0.0110476 0)
(-0.00329935 -0.00659443 0)
(-0.000469126 -0.00246672 0)
(0.00159961 0.00125013 0)
(0.00296285 0.00447567 0)
(0.0036924 0.00713259 0)
(0.0038746 0.00914406 0)
(0.00360951 0.0104307 0)
(0.00301058 0.0109072 0)
(0.00220326 0.0104793 0)
(0.00132381 0.00904159 0)
(0.000543724 0.0064752 0)
(0.000101853 0.00263961 0)
(-9.47682e-05 0.000279495 0)
(-0.000683975 0.00167686 0)
(-0.00198804 0.00359889 0)
(-0.00387488 0.00583688 0)
(-0.00627768 0.0082558 0)
(-0.00916046 0.0107676 0)
(-0.0124927 0.0133196 0)
(-0.0162522 0.0158847 0)
(-0.0204258 0.0184512 0)
(-0.025007 0.0210161 0)
(-0.029993 0.0235788 0)
(-0.0353826 0.026138 0)
(-0.0411736 0.0286884 0)
(-0.0473606 0.0312195 0)
(-0.0539337 0.033715 0)
(-0.0608769 0.0361524 0)
(-0.0681678 0.0385035 0)
(-0.0757768 0.0407352 0)
(-0.083667 0.0428102 0)
(-0.0917946 0.0446879 0)
(-0.10011 0.0463266 0)
(-0.108557 0.0476836 0)
(-0.117075 0.0487177 0)
(-0.125601 0.0493898 0)
(-0.13407 0.0496645 0)
(-0.142414 0.0495113 0)
(-0.150566 0.048905 0)
(-0.158462 0.0478269 0)
(-0.166038 0.0462649 0)
(-0.173235 0.044214 0)
(-0.179994 0.0416761 0)
(-0.186264 0.0386599 0)
(-0.191993 0.0351809 0)
(-0.197138 0.0312608 0)
(-0.201656 0.0269272 0)
(-0.205509 0.0222132 0)
(-0.208663 0.0171574 0)
(-0.211086 0.0118031 0)
(-0.212751 0.00619851 0)
(-0.213631 0.000396157 0)
(-0.213708 -0.00554839 0)
(-0.212963 -0.011573 0)
(-0.211384 -0.0176134 0)
(-0.208962 -0.0236014 0)
(-0.205693 -0.0294659 0)
(-0.201578 -0.035133 0)
(-0.196629 -0.040527 0)
(-0.19086 -0.0455711 0)
(-0.184298 -0.0501889 0)
(-0.176978 -0.0543056 0)
(-0.168944 -0.0578496 0)
(-0.160254 -0.0607548 0)
(-0.150975 -0.0629625 0)
(-0.141188 -0.0644236 0)
(-0.130986 -0.0651013 0)
(-0.120471 -0.0649729 0)
(-0.109755 -0.0640318 0)
(-0.0989601 -0.0622893 0)
(-0.0882118 -0.0597753 0)
(-0.0776384 -0.0565384 0)
(-0.0673675 -0.0526459 0)
(-0.0575216 -0.0481817 0)
(-0.0482152 -0.0432442 0)
(-0.0395506 -0.0379439 0)
(-0.0316151 -0.0323991 0)
(-0.0244782 -0.0267331 0)
(-0.0181895 -0.0210698 0)
(-0.0127778 -0.0155314 0)
(-0.0082506 -0.0102348 0)
(-0.00459399 -0.00529106 0)
(-0.00177385 -0.000804006 0)
(0.000263084 0.00312858 0)
(0.00158771 0.0064134 0)
(0.00228707 0.00895886 0)
(0.00246313 0.0106717 0)
(0.00223199 0.0114532 0)
(0.00172206 0.0111954 0)
(0.00107248 0.00977821 0)
(0.000452617 0.00706713 0)
(8.72252e-05 0.00290412 0)
(-0.000124451 0.00067047 0)
(-0.00086268 0.00278794 0)
(-0.00246223 0.00536152 0)
(-0.00473827 0.00818567 0)
(-0.00759436 0.0111346 0)
(-0.0109775 0.0141321 0)
(-0.0148448 0.017138 0)
(-0.0191655 0.0201362 0)
(-0.0239212 0.023124 0)
(-0.0291023 0.0261044 0)
(-0.0347042 0.0290799 0)
(-0.0407242 0.0320493 0)
(-0.0471582 0.0350052 0)
(-0.0539987 0.037933 0)
(-0.0612327 0.0408106 0)
(-0.0688408 0.043609 0)
(-0.0767962 0.0462929 0)
(-0.0850646 0.0488216 0)
(-0.0936045 0.0511508 0)
(-0.102368 0.0532335 0)
(-0.111299 0.055022 0)
(-0.120341 0.056469 0)
(-0.129428 0.0575297 0)
(-0.138497 0.0581628 0)
(-0.147481 0.0583318 0)
(-0.156312 0.0580062 0)
(-0.164926 0.0571623 0)
(-0.17326 0.0557833 0)
(-0.181253 0.0538601 0)
(-0.188848 0.0513908 0)
(-0.195991 0.0483811 0)
(-0.202633 0.0448435 0)
(-0.208726 0.0407969 0)
(-0.214227 0.0362666 0)
(-0.219098 0.0312837 0)
(-0.2233 0.0258845 0)
(-0.226799 0.0201106 0)
(-0.229565 0.0140083 0)
(-0.231567 0.00762857 0)
(-0.23278 0.00102686 0)
(-0.233178 -0.00573756 0)
(-0.232743 -0.0125998 0)
(-0.231454 -0.0194914 0)
(-0.229299 -0.0263399 0)
(-0.226266 -0.0330689 0)
(-0.222351 -0.0395986 0)
(-0.217555 -0.0458463 0)
(-0.211885 -0.0517273 0)
(-0.205359 -0.0571561 0)
(-0.198 -0.0620478 0)
(-0.189847 -0.0663195 0)
(-0.180946 -0.0698933 0)
(-0.17136 -0.0726977 0)
(-0.161163 -0.074671 0)
(-0.150443 -0.0757637 0)
(-0.139303 -0.0759414 0)
(-0.127858 -0.0751875 0)
(-0.116232 -0.073505 0)
(-0.104561 -0.0709186 0)
(-0.0929842 -0.0674751 0)
(-0.0816435 -0.0632434 0)
(-0.070678 -0.0583132 0)
(-0.0602201 -0.0527928 0)
(-0.050391 -0.0468061 0)
(-0.0412966 -0.0404882 0)
(-0.0330242 -0.0339819 0)
(-0.0256395 -0.0274323 0)
(-0.0191855 -0.0209838 0)
(-0.013681 -0.0147759 0)
(-0.00912092 -0.0089415 0)
(-0.00547737 -0.00360541 0)
(-0.00270074 0.0011152 0)
(-0.000721633 0.00510922 0)
(0.000547303 0.00826886 0)
(0.00120966 0.010486 0)
(0.00138391 0.011648 0)
(0.0012012 0.0116336 0)
(0.000803214 0.0103095 0)
(0.000356848 0.00752838 0)
(7.25064e-05 0.00311984 0)
(-0.000155498 0.00115629 0)
(-0.00104817 0.00413899 0)
(-0.00295224 0.00747209 0)
(-0.00562723 0.0109608 0)
(-0.00894544 0.0144958 0)
(-0.0128361 0.018019 0)
(-0.0172431 0.021508 0)
(-0.022127 0.0249615 0)
(-0.0274639 0.0283885 0)
(-0.0332409 0.0317997 0)
(-0.0394514 0.0352013 0)
(-0.0460904 0.0385925 0)
(-0.053152 0.0419633 0)
(-0.0606261 0.0452944 0)
(-0.0684965 0.0485574 0)
(-0.0767399 0.051716 0)
(-0.0853255 0.0547274 0)
(-0.0942146 0.0575435 0)
(-0.103361 0.0601128 0)
(-0.112714 0.0623823 0)
(-0.122214 0.064299 0)
(-0.1318 0.0658119 0)
(-0.141407 0.0668734 0)
(-0.15097 0.0674411 0)
(-0.160423 0.0674784 0)
(-0.169699 0.0669559 0)
(-0.178737 0.065852 0)
(-0.187476 0.0641526 0)
(-0.195858 0.0618517 0)
(-0.20383 0.058951 0)
(-0.21134 0.0554595 0)
(-0.218343 0.0513933 0)
(-0.224793 0.0467745 0)
(-0.230651 0.0416315 0)
(-0.235877 0.0359981 0)
(-0.240437 0.0299132 0)
(-0.244296 0.0234207 0)
(-0.247422 0.0165691 0)
(-0.249787 0.00941143 0)
(-0.251361 0.00200532 0)
(-0.252119 -0.00558727 0)
(-0.252037 -0.0132993 0)
(-0.251092 -0.0210595 0)
(-0.249265 -0.0287918 0)
(-0.246539 -0.0364157 0)
(-0.242903 -0.0438462 0)
(-0.238348 -0.0509947 0)
(-0.232873 -0.0577692 0)
(-0.226485 -0.0640754 0)
(-0.219197 -0.0698185 0)
(-0.211035 -0.0749042 0)
(-0.202036 -0.0792418 0)
(-0.192252 -0.0827459 0)
(-0.181749 -0.0853403 0)
(-0.170608 -0.0869605 0)
(-0.158927 -0.0875577 0)
(-0.146821 -0.0871017 0)
(-0.134417 -0.0855841 0)
(-0.121857 -0.0830207 0)
(-0.109291 -0.0794531 0)
(-0.0968742 -0.0749491 0)
(-0.0847642 -0.0696017 0)
(-0.0731126 -0.0635277 0)
(-0.0620619 -0.0568638 0)
(-0.05174 -0.0497624 0)
(-0.0422552 -0.0423867 0)
(-0.033693 -0.0349052 0)
(-0.0261135 -0.0274869 0)
(-0.01955 -0.0202967 0)
(-0.0140088 -0.0134924 0)
(-0.00946975 -0.00722235 0)
(-0.00588842 -0.00162579 0)
(-0.00319769 0.00316623 0)
(-0.0013104 0.00702802 0)
(-0.000121526 0.00983547 0)
(0.000489746 0.0114616 0)
(0.000657381 0.011772 0)
(0.000525919 0.0106216 0)
(0.000260458 0.00785249 0)
(5.84442e-05 0.00328594 0)
(-0.000187527 0.00174003 0)
(-0.00123802 0.00573616 0)
(-0.00345147 0.00993758 0)
(-0.00652964 0.0141686 0)
(-0.0103124 0.018344 0)
(-0.0147105 0.0224307 0)
(-0.0196546 0.0264291 0)
(-0.0250962 0.0303572 0)
(-0.0310058 0.0342383 0)
(-0.037367 0.0380922 0)
(-0.0441707 0.0419298 0)
(-0.0514098 0.0457504 0)
(-0.059076 0.0495412 0)
(-0.0671563 0.0532776 0)
(-0.0756312 0.0569245 0)
(-0.0844736 0.060438 0)
(-0.0936487 0.0637674 0)
(-0.103114 0.0668572 0)
(-0.11282 0.0696493 0)
(-0.122711 0.072085 0)
(-0.132727 0.074107 0)
(-0.142805 0.0756613 0)
(-0.15288 0.0766988 0)
(-0.162886 0.0771767 0)
(-0.172759 0.0770593 0)
(-0.182435 0.0763192 0)
(-0.191855 0.0749371 0)
(-0.200959 0.0729022 0)
(-0.209695 0.0702118 0)
(-0.218012 0.0668709 0)
(-0.225861 0.062892 0)
(-0.233199 0.0582941 0)
(-0.239984 0.0531024 0)
(-0.246178 0.0473478 0)
(-0.251743 0.0410665 0)
(-0.256646 0.0342995 0)
(-0.260855 0.0270925 0)
(-0.264338 0.0194956 0)
(-0.267066 0.0115634 0)
(-0.26901 0.0033549 0)
(-0.270144 -0.00506625 0)
(-0.270441 -0.0136316 0)
(-0.269877 -0.022268 0)
(-0.268426 -0.0308971 0)
(-0.266069 -0.0394354 0)
(-0.262784 -0.0477942 0)
(-0.258557 -0.0558801 0)
(-0.253376 -0.0635948 0)
(-0.247235 -0.0708366 0)
(-0.240138 -0.077501 0)
(-0.232095 -0.0834829 0)
(-0.223132 -0.0886781 0)
(-0.213286 -0.0929869 0)
(-0.20261 -0.0963167 0)
(-0.191176 -0.0985861 0)
(-0.179074 -0.0997286 0)
(-0.166412 -0.0996971 0)
(-0.153319 -0.0984678 0)
(-0.139938 -0.0960432 0)
(-0.126429 -0.0924554 0)
(-0.11296 -0.0877671 0)
(-0.0997057 -0.0820717 0)
(-0.0868385 -0.0754916 0)
(-0.074525 -0.068175 0)
(-0.0629178 -0.0602913 0)
(-0.0521505 -0.0520252 0)
(-0.0423325 -0.0435704 0)
(-0.0335452 -0.0351234 0)
(-0.0258402 -0.0268777 0)
(-0.0192382 -0.0190192 0)
(-0.0137299 -0.0117237 0)
(-0.00927776 -0.00515527 0)
(-0.00581819 0.0005323 0)
(-0.00326489 0.00519334 0)
(-0.00151166 0.00868633 0)
(-0.000435218 0.0108692 0)
(0.000101661 0.0115945 0)
(0.000247187 0.0107061 0)
(0.000166111 0.0080371 0)
(4.55193e-05 0.00340335 0)
(-0.000220089 0.00242345 0)
(-0.00142955 0.00758222 0)
(-0.00395287 0.0127601 0)
(-0.0074328 0.0178093 0)
(-0.0116761 0.022677 0)
(-0.0165748 0.0273621 0)
(-0.0220462 0.0318935 0)
(-0.0280327 0.0363126 0)
(-0.034499 0.0406595 0)
(-0.0414253 0.0449647 0)
(-0.0487995 0.0492443 0)
(-0.0566125 0.0534981 0)
(-0.064853 0.0577099 0)
(-0.0735051 0.0618495 0)