/*--------------------------------*- C++ -*----------------------------------*\
  =========                 |
  \\      /  F ield         | OpenFOAM: The Open Source CFD Toolbox
   \\    /   O peration     | Website:  https://openfoam.org
    \\  /    A nd           | Version:  7
     \\/     M anipulation  |
\*---------------------------------------------------------------------------*/
FoamFile
{
    version     2.0;
    format      ascii;
    class       volScalarField;
    location    "1.125";
    object      p;
}
// * * * * * * * * * * * * * * * * * * * * * * * * * * * * * * * * * * * * * //

dimensions      [0 2 -2 0 0 0 0];

internalField   nonuniform List<scalar> 
6400
(
2.6426e-06
1.0012e-06
-0.000111613
-0.000331447
-0.000632103
-0.000989713
-0.00138315
-0.00179408
-0.00220711
-0.00260961
-0.00299125
-0.0033437
-0.00366026
-0.00393565
-0.00416574
-0.00434736
-0.00447817
-0.00455651
-0.00458126
-0.0045518
-0.0044679
-0.00432966
-0.00413748
-0.00389203
-0.00359419
-0.00324506
-0.00284595
-0.00239837
-0.00190403
-0.00136482
-0.000782881
-0.000160545
0.000499618
0.0011948
0.00192195
0.00267777
0.0034587
0.00426093
0.00508039
0.00591279
0.00675358
0.00759801
0.00844115
0.0092779
0.010103
0.0109112
0.0116971
0.0124554
0.0131807
0.013868
0.0145121
0.0151084
0.0156524
0.01614
0.0165676
0.016932
0.0172308
0.0174619
0.0176241
0.0177169
0.0177404
0.0176959
0.0175851
0.017411
0.0171773
0.0168886
0.0165508
0.0161705
0.0157554
0.0153145
0.0148578
0.0143967
0.0139437
0.0135131
0.0131203
0.0127824
0.0125169
0.012341
0.0122703
0.0122939
7.89506e-06
4.81528e-06
-9.51261e-05
-0.000281804
-0.00053366
-0.000833605
-0.00116558
-0.00151477
-0.00186815
-0.00221457
-0.00254467
-0.00285066
-0.00312615
-0.00336595
-0.00356594
-0.00372287
-0.00383423
-0.00389821
-0.00391349
-0.00387926
-0.0037951
-0.00366091
-0.00347692
-0.00324362
-0.00296173
-0.0026322
-0.00225619
-0.00183507
-0.00137041
-0.000863986
-0.000317776
0.00026602
0.000884985
0.00153647
0.00221761
0.00292528
0.00365614
0.00440661
0.00517288
0.0059509
0.00673644
0.00752507
0.00831219
0.00909306
0.00986283
0.0106166
0.0113494
0.0120563
0.0127325
0.0133732
0.0139738
0.0145301
0.0150379
0.0154937
0.0158942
0.0162365
0.0165185
0.0167385
0.0168954
0.0169889
0.0170194
0.0169881
0.0168968
0.0167484
0.0165465
0.0162955
0.0160009
0.0156689
0.0153069
0.014923
0.0145264
0.0141273
0.0137369
0.0133673
0.0130317
0.0127434
0.0125155
0.0123604
0.0122934
0.0123174
0.000121313
0.000104961
4.57559e-06
-0.000167721
-0.000393802
-0.000660122
-0.000953821
-0.00126264
-0.0015755
-0.00188268
-0.00217583
-0.00244785
-0.0026928
-0.00290578
-0.0030828
-0.00322069
-0.00331695
-0.00336971
-0.00337758
-0.00333965
-0.00325537
-0.00312455
-0.00294729
-0.00272395
-0.00245512
-0.00214165
-0.00178457
-0.00138512
-0.000944755
-0.000465127
5.19096e-05
0.000604289
0.00118973
0.00180575
0.00244961
0.00311838
0.00380889
0.00451776
0.00524138
0.00597595
0.00671746
0.00746175
0.00820448
0.0089412
0.00966736
0.0103783
0.0110695
0.0117363
0.0123741
0.0129786
0.0135454
0.0140707
0.0145506
0.0149818
0.0153613
0.0156865
0.0159555
0.0161667
0.0163193
0.0164131
0.0164486
0.0164268
0.0163498
0.0162202
0.0160415
0.015818
0.0155548
0.0152578
0.0149337
0.0145902
0.0142357
0.0138793
0.0135311
0.0132015
0.0129019
0.0126435
0.0124369
0.0122923
0.0122259
0.0122472
0.00034228
0.000292318
0.000176076
2.60609e-06
-0.000214933
-0.000465231
-0.000737523
-0.00102156
-0.00130796
-0.00158832
-0.00185531
-0.00210259
-0.00232479
-0.00251742
-0.00267678
-0.00279986
-0.00288428
-0.00292821
-0.00293029
-0.00288958
-0.00280548
-0.00267774
-0.00250638
-0.00229167
-0.00203412
-0.00173447
-0.00139364
-0.00101279
-0.000593231
-0.000136514
0.000355631
0.000881265
0.00143824
0.00202421
0.0026366
0.00327263
0.00392929
0.00460338
0.00529148
0.00598998
0.00669508
0.00740283
0.00810911
0.00880971
0.00950031
0.0101765
0.010834
0.0114684
0.0120753
0.0126507
0.0131906
0.013691
0.0141486
0.0145602
0.014923
0.0152345
0.0154931
0.0156972
0.0158461
0.0159398
0.0159785
0.0159637
0.015897
0.0157812
0.0156194
0.0154159
0.0151754
0.0149034
0.0146063
0.014291
0.0139653
0.0136375
0.0133164
0.0130115
0.0127324
0.0124891
0.0122907
0.0121464
0.0120706
0.0120732
0.000646533
0.000546538
0.000402224
0.000217034
-2.49154e-06
-0.000247025
-0.000507554
-0.000775674
-0.00104357
-0.00130413
-0.00155104
-0.00177879
-0.00198264
-0.00215857
-0.00230324
-0.00241391
-0.00248837
-0.00252491
-0.00252224
-0.00247943
-0.00239589
-0.00227133
-0.00210573
-0.0018993
-0.00165247
-0.00136588
-0.00104037
-0.000676972
-0.00027692
0.000158373
0.000627296
0.00112804
0.00165859
0.00221674
0.00280008
0.00340596
0.00403155
0.00467382
0.00532953
0.00599525
0.00666737
0.00734214
0.00801564
0.00868385
0.00934268
0.00998796
0.0106155
0.0112212
0.0118009
0.0123507
0.0128668
0.0133456
0.0137837
0.0141781
0.0145262
0.0148258
0.0150751
0.0152728
0.0154183
0.0155114
0.0155526
0.0155431
0.0154846
0.0153796
0.0152313
0.0150436
0.0148209
0.0145684
0.014292
0.013998
0.0136936
0.0133861
0.0130837
0.0127944
0.0125269
0.0122896
0.0120906
0.011938
0.0118423
0.0118103
0.00101192
0.000851691
0.000670357
0.000465036
0.000234947
-1.23244e-05
-0.000269255
-0.000529107
-0.000785518
-0.00103259
-0.00126503
-0.00147813
-0.00166782
-0.0018306
-0.00196355
-0.00206423
-0.00213068
-0.00216134
-0.00215502
-0.00211089
-0.00202837
-0.00190719
-0.00174727
-0.0015488
-0.00131214
-0.00103787
-0.000726723
-0.000379647
2.24075e-06
0.000417639
0.000865057
0.00134282
0.00184905
0.00238167
0.00293842
0.00351682
0.0041142
0.00472767
0.00535417
0.00599043
0.00663304
0.0072784
0.00792278
0.00856236
0.00919319
0.00981131
0.0104127
0.0109934
0.0115495
0.0120772
0.0125728
0.0130328
0.0134542
0.0138339
0.0141695
0.0144588
0.0147001
0.0148922
0.0150345
0.0151267
0.0151695
0.0151639
0.0151115
0.0150148
0.0148766
0.0147007
0.0144913
0.0142531
0.0139916
0.0137126
0.0134225
0.0131282
0.0128366
0.0125552
0.0122911
0.0120518
0.0118444
0.011676
0.011552
0.0114745
0.00141893
0.0011928
0.000968369
0.000736429
0.000488851
0.000231767
-2.85306e-05
-0.000286787
-0.000537962
-0.000777285
-0.0010004
-0.00120343
-0.00138296
-0.00153605
-0.0016602
-0.00175332
-0.00181373
-0.00184007
-0.00183131
-0.00178669
-0.00170572
-0.00158812
-0.00143385
-0.00124305
-0.00101604
-0.000753318
-0.000455564
-0.00012362
0.000241496
0.000638595
0.00106631
0.00152308
0.00200718
0.00251667
0.00304942
0.00360311
0.00417521
0.004763
0.00536356
0.0059738
0.00659045
0.00721007
0.00782909
0.00844384
0.00905053
0.00964533
0.0102244
0.0107839
0.0113199
0.011829
0.0123074
0.0127518
0.0131592
0.0135268
0.0138519
0.0141327
0.0143673
0.0145546
0.014694
0.0147853
0.014829
0.0148259
0.0147778
0.0146868
0.0145557
0.014388
0.0141875
0.0139587
0.0137067
0.0134367
0.0131547
0.0128667
0.0125791
0.0122983
0.0120306
0.0117824
0.0115599
0.0113694
0.0112106
0.0110809
0.00185054
0.00155585
0.0012845
0.00102128
0.000750984
0.000478575
0.000209336
-5.27843e-05
-0.000303934
-0.000540369
-0.000758635
-0.000955617
-0.00112856
-0.00127507
-0.0013931
-0.00148094
-0.00153718
-0.00156071
-0.00155066
-0.0015064
-0.00142752
-0.0013138
-0.00116519
-0.000981836
-0.000764015
-0.000512177
-0.000226926
9.09789e-05
0.00044062
0.000820914
0.00123061
0.00166828
0.00213233
0.00262094
0.00313213
0.00366373
0.00421335
0.00477841
0.00535614
0.0059436
0.00653765
0.00713499
0.00773221
0.00832573
0.00891192
0.00948705
0.0100474
0.0105892
0.0111087
0.0116024
0.0120668
0.0124986
0.0128947
0.0132525
0.0135693
0.0138432
0.0140725
0.014256
0.0143929
0.0144832
0.0145271
0.0145256
0.0144801
0.0143927
0.014266
0.0141032
0.0139079
0.0136842
0.0134369
0.0131709
0.0128914
0.0126039
0.0123142
0.0120278
0.0117505
0.0114875
0.0112445
0.0110269
0.0108291
0.0106433
0.00229221
0.00192827
0.00160784
0.00131015
0.00101334
0.000721418
0.000438868
0.000168496
-8.6905e-05
-0.000324523
-0.000541732
-0.000736145
-0.000905636
-0.00104835
-0.00116269
-0.00124732
-0.00130114
-0.00132328
-0.00131306
-0.00127
-0.00119378
-0.00108424
-0.000941364
-0.000765285
-0.000556269
-0.000314715
-4.11629e-05
0.000263709
0.000599076
0.000963961
0.00135723
0.00177757
0.00222351
0.00269338
0.00318533
0.00369732
0.0042271
0.00477222
0.00533007
0.00589781
0.00647245
0.00705081
0.00762958
0.0082053
0.00877444
0.00933336
0.0098784
0.0104059
0.0109122
0.0113938
0.0118471
0.0122691
0.0126566
0.0130069
0.0133175
0.0135862
0.0138116
0.0139922
0.0141273
0.0142166
0.0142605
0.0142596
0.0142155
0.0141298
0.0140052
0.0138445
0.0136511
0.0134289
0.0131822
0.0129155
0.0126337
0.0123418
0.0120448
0.0117478
0.0114557
0.0111731
0.0109052
0.0106569
0.010417
0.0101733
0.00273165
0.00229895
0.00192845
0.00159427
0.00126825
0.000953692
0.000654453
0.000372342
0.000109211
-0.000132967
-0.000352324
-0.000547153
-0.000715924
-0.000857297
-0.000970121
-0.00105343
-0.00110644
-0.00112852
-0.00111921
-0.00107815
-0.00100514
-0.000900102
-0.000763052
-0.00059413
-0.000393583
-0.000161774
0.000100818
0.00039359
0.000715808
0.0010666
0.00144493
0.00184962
0.00227931
0.00273247
0.00320738
0.00370212
0.00421458
0.00474245
0.00528322
0.00583418
0.00639246
0.00695497
0.00751852
0.00807973
0.00863513
0.00918117
0.00971423
0.0102307
0.0107269
0.0111995
0.0116448
0.0120597
0.0124412
0.0127864
0.0130927
0.0133582
0.013581
0.0137598
0.0138937
0.0139825
0.0140261
0.0140254
0.0139815
0.0138962
0.0137717
0.0136107
0.0134164
0.0131925
0.0129428
0.0126716
0.0123833
0.0120825
0.0117739
0.0114619
0.0111508
0.0108447
0.0105485
0.0102665
0.00998268
0.00968053
0.00315834
0.00265806
0.00223733
0.00186546
0.00150842
0.00116899
0.000850506
0.00055393
0.000280282
3.07804e-05
-0.000193397
-0.000391172
-0.000561574
-0.000703754
-0.000816988
-0.000900675
-0.000954331
-0.000977581
-0.000970151
-0.00093186
-0.000862614
-0.000762401
-0.00063129
-0.000469432
-0.000277064
-5.45132e-05
0.000197798
0.000479338
0.000789458
0.00112738
0.00149219
0.00188282
0.00229803
0.00273642
0.00319638
0.00367613
0.00417368
0.00468684
0.00521322
0.00575021
0.00629505
0.00684475
0.00739617
0.00794602
0.00849089
0.00902727
0.00955157
0.0100602
0.0105495
0.011016
0.0114562
0.0118669
0.0122449
0.0125873
0.0128916
0.0131556
0.0133774
0.0135556
0.0136893
0.0137779
0.0138215
0.0138206
0.0137762
0.01369
0.0135641
0.0134008
0.0132033
0.0129748
0.012719
0.01244
0.0121417
0.0118284
0.0115043
0.0111736
0.01084
0.0105072
0.0101798
0.00986215
0.0095333
0.00917281
0.00356317
0.00299689
0.00252629
0.00211618
0.00172701
0.00136113
0.00102153
0.000708408
0.000422048
0.000162997
-6.81983e-05
-0.000271036
-0.000445068
-0.000589906
-0.000705233
-0.000790796
-0.000846407
-0.000871936
-0.000867309
-0.000832497
-0.000767524
-0.000672456
-0.000547408
-0.000392548
-0.000208104
5.6302e-06
0.000248283
0.000519394
0.000818399
0.00114462
0.00149724
0.00187531
0.00227771
0.00270314
0.00315015
0.00361706
0.004102
0.0046029
0.00511746
0.0056432
0.0061774
0.00671719
0.00725947
0.00780103
0.00833848
0.00886832
0.00938699
0.00989088
0.0103764
0.0108398
0.0112778
0.011687
0.0120641
0.0124062
0.0127106
0.0129751
0.0131976
0.0133766
0.013511
0.0136002
0.013644
0.0136429
0.0135977
0.0135098
0.0133811
0.013214
0.0130113
0.012776
0.0125116
0.0122218
0.0119104
0.0115814
0.0112387
0.0108861
0.0105272
0.0101649
0.00980427
0.00944929
0.00907472
0.0086564
0.00393817
0.00330765
0.0027879
0.00233946
0.00191753
0.0015242
0.00116215
0.000830935
0.000530173
0.000259808
1.98164e-05
-0.000189831
-0.00036917
-0.000518244
-0.000637117
-0.00072587
-0.000784596
-0.000813403
-0.000812406
-0.000781731
-0.00072151
-0.000631891
-0.000513034
-0.000365125
-0.000188381
1.69341e-05
0.0002505
0.000511925
0.000800729
0.00111632
0.00145801
0.00182493
0.0022161
0.00263033
0.00306628
0.0035224
0.00399693
0.0044879
0.00499312
0.00551018
0.00603647
0.00656915
0.00710521
0.00764144
0.00817448
0.00870086
0.00921699
0.00971922
0.0102039
0.0106673
0.011106
0.0115164
0.0118953
0.0122396
0.0125465
0.0128135
0.0130385
0.0132199
0.0133563
0.0134469
0.0134916
0.0134905
0.0134442
0.0133542
0.0132219
0.0130498
0.0128402
0.0125962
0.0123209
0.012018
0.011691
0.0113436
0.0109796
0.0106025
0.0102156
0.0098218
0.00942604
0.00903251
0.00861181
0.00813625
0.00427623
0.00358331
0.00301535
0.0025288
0.00207391
0.00165253
0.00126715
0.000916719
0.000600285
0.000317238
6.70332e-05
-0.000150845
-0.000336879
-0.000491516
-0.000615179
-0.000708259
-0.000771118
-0.000804088
-0.000807467
-0.000781524
-0.000726501
-0.000642617
-0.000530079
-0.000389087
-0.000219849
-2.25946e-05
0.000202406
0.00045483
0.000734279
0.00104026
0.00137218
0.00172929
0.00211071
0.00251539
0.00294209
0.00338937
0.00385558
0.00433886
0.00483711
0.005348
0.00586898
0.00639729
0.00692993
0.00746373
0.00799535
0.00852127
0.00903789
0.00954152
0.0100284
0.0104948
0.0109371
0.0113517
0.0117351
0.0120842
0.0123959
0.0126677
0.0128972
0.0130826
0.0132225
0.0133158
0.0133621
0.0133615
0.0133144
0.013222
0.0130857
0.0129075
0.0126899
0.0124357
0.0121478
0.0118298
0.0114849
0.0111169
0.0107292
0.0103253
0.00990838
0.00948117
0.0090488
0.00861571
0.00814853
0.00761628
0.00457095
0.00381748
0.00320236
0.00267816
0.00219037
0.00174069
0.00133143
0.000961037
0.00062801
0.000331246
6.97242e-05
-0.000157521
-0.000351384
-0.000512689
-0.00064219
-0.000740572
-0.000808447
-0.000846359
-0.000854777
-0.000834105
-0.000784686
-0.000706808
-0.000600715
-0.00046662
-0.000304719
-0.000115207
0.0001017
0.000345749
0.000616624
0.00091393
0.00123717
0.00158571
0.00195879
0.00235547
0.00277462
0.00321492
0.00367482
0.00415255
0.0046461
0.00515323
0.00567144
0.00619801
0.00672999
0.0072642
0.0077973
0.00832576
0.0088459
0.00935397
0.00984615
0.0103186
0.0107675
0.0111891
0.0115799
0.0119364
0.0122556
0.0125345
0.0127708
0.0129622
0.0131072
0.0132046
0.0132537
0.0132543
0.0132069
0.0131122
0.0129716
0.0127869
0.0125605
0.0122948
0.011993
0.0116582
0.0112937
0.010903
0.0104897
0.0100571
0.00960829
0.00914602
0.00867573
0.00820213
0.00768812
0.0070995
0.00481645
0.00400423
0.00334311
0.00278186
0.00226147
0.00178347
0.00135008
0.000959249
0.000608996
0.00029776
2.40811e-05
-0.000213421
-0.000416024
-0.000584902
-0.000721118
-0.000825629
-0.000899283
-0.000942817
-0.000956861
-0.000941945
-0.000898502
-0.000826881
-0.000727359
-0.000600155
-0.000445449
-0.0002634
-5.41643e-05
0.000182075
0.000445089
0.000734579
0.00105015
0.00139129
0.00175734
0.00214747
0.00256068
0.00299575
0.00345124
0.00392547
0.00441652
0.00492221
0.0054401
0.00596751
0.00650151
0.00703893
0.00757639
0.00811033
0.00863702
0.0091526
0.00965315
0.0101347
0.0105933
0.011025
0.0114261
0.011793
0.0121223
0.0124109
0.0126563
0.0128559
0.013008
0.0131112
0.0131644
0.0131675
0.0131204
0.0130239
0.0128791
0.0126877
0.0124519
0.0121741
0.0118572
0.0115042
0.0111186
0.0107038
0.0102631
0.0098001
0.00931778
0.00881899
0.00830953
0.00779452
0.00723321
0.00658829
0.0050073
0.00413809
0.00343212
0.00283456
0.002282
0.00177588
0.00131831
0.000906802
0.000538925
0.000212695
-7.37578e-05
-0.000322198
-0.000534261
-0.000711442
-0.000855097
-0.000966435
-0.00104652
-0.00109627
-0.00111646
-0.00110773
-0.0010706
-0.00100548
-0.000912653
-0.000792352
-0.00064473
-0.000469903
-0.00026797
-3.90359e-05
0.000216759
0.000499216
0.000808046
0.00114285
0.00150308
0.00188804
0.00229682
0.00272832
0.00318121
0.00365389
0.00414453
0.00465101
0.00517096
0.00570172
0.00624037
0.00678374
0.00732842
0.0078708
0.00840705
0.00893324
0.00944529
0.0099391
0.0104105
0.0108555
0.01127
0.0116502
0.0119926
0.0122938
0.0125508
0.0127611
0.0129226
0.0130334
0.0130925
0.0130994
0.0130537
0.0129562
0.0128077
0.0126098
0.0123644
0.0120739
0.0117411
0.0113691
0.0109612
0.0105207
0.0100513
0.00955637
0.00903908
0.0085024
0.00795259
0.00739521
0.00678595
0.00608444
0.00513839
0.00421387
0.00346425
0.00283118
0.00224701
0.0017131
0.00123148
0.000799235
0.000413528
7.19706e-05
-0.000227686
-0.000487569
-0.000709646
-0.000895715
-0.0010474
-0.00116615
-0.00125321
-0.00130969
-0.00133648
-0.00133434
-0.00130384
-0.00124544
-0.00115945
-0.00104608
-0.000905464
-0.000737666
-0.000542721
-0.000320653
-7.1509e-05
0.000204614
0.00050754
0.000836983
0.00119252
0.00157356
0.00197932
0.00240882
0.0028608
0.0033338
0.00382603
0.00433547
0.00485977
0.00539632
0.0059422
0.00649424
0.00704897
0.00760272
0.00815159
0.0086915
0.00921827
0.00972759
0.0102151
0.0106766
0.0111078
0.0115046
0.0118632
0.0121799
0.0124515
0.0126752
0.0128484
0.0129692
0.0130362
0.0130486
0.0130059
0.0129084
0.012757
0.0125529
0.0122981
0.0119948
0.0116457
0.0112539
0.0108227
0.0103556
0.00985608
0.0093279
0.00877428
0.0081984
0.00760701
0.00700621
0.00634816
0.0055894
0.00520491
0.0042267
0.00343461
0.00276687
0.00215173
0.00159048
0.00108506
0.000632178
0.000228586
-0.000128474
-0.000441612
-0.000713294
-0.000945802
-0.00114122
-0.00130141
-0.00142805
-0.00152257
-0.00158623
-0.00162003
-0.00162483
-0.00160126
-0.0015498
-0.00147079
-0.00136441
-0.00123075
-0.00106984
-0.00088163
-0.000666059
-0.000423078
-0.000152674
0.000145091
0.00047005
0.000821904
0.00120019
0.00160423
0.00203317
0.00248586
0.00296092
0.00345666
0.00397112
0.004502
0.00504672
0.00560236
0.00616573
0.00673333
0.0073014
0.00786596
0.00842279
0.00896753
0.00949571
0.0100028
0.0104842
0.0109355
0.0113523
0.0117304
0.0120659
0.0123553
0.0125953
0.0127831
0.0129165
0.0129938
0.0130137
0.0129757
0.0128798
0.0127265
0.0125172
0.0122534
0.0119374
0.0115719
0.0111598
0.0107046
0.0102098
0.00967923
0.00911658
0.00852536
0.00790897
0.00727473
0.00662933
0.00592137
0.0051043
0.00520222
0.0041719
0.00333851
0.00263699
0.00199159
0.00140353
0.000874665
0.000401348
-2.00585e-05
-0.000392672
-0.000719443
-0.00100316
-0.0012464
-0.00145151
-0.0016206
-0.00175553
-0.00185792
-0.00192914
-0.00197033
-0.0019824
-0.00196604
-0.00192176
-0.00184988
-0.00175057
-0.00162388
-0.00146977
-0.0012881
-0.00107873
-0.000841511
-0.000576306
-0.000283059
3.81891e-05
0.000387267
0.000763834
0.00116736
0.00159707
0.00205196
0.00253073
0.0030318
0.00355325
0.00409285
0.00464805
0.00521593
0.00579328
0.00637655
0.0069619
0.00754523
0.0081222
0.00868828
0.00923877
0.0097689
0.0102739
0.0107489
0.0111893
0.0115906
0.0119484
0.012259
0.0125186
0.0127242
0.0128731
0.0129633
0.0129933
0.0129621
0.0128696
0.012716
0.0125025
0.0122306
0.0119024
0.0115205
0.011088
0.0106084
0.0100852
0.00952252
0.00892428
0.00829421
0.00763599
0.00695756
0.00626622
0.00550698
0.00463012
0.00512589
0.00404498
0.00317147
0.00243706
0.00176215
0.00114787
0.000596007
0.000102552
-0.000336504
-0.00072462
-0.00106507
-0.00136097
-0.00161515
-0.00183022
-0.00200851
-0.00215207
-0.00226267
-0.00234181
-0.00239072
-0.00241037
-0.00240151
-0.00236464
-0.00230008
-0.00220797
-0.00208829
-0.00194094
-0.00176571
-0.00156233
-0.00133056
-0.00107013
-0.000780864
-0.000462668
-0.000115579
0.0002602
0.000664263
0.00109598
0.00155444
0.00203846
0.00254655
0.00307688
0.00362726
0.00419517
0.00477771
0.00537164
0.00597336
0.00657895
0.0071842
0.0077846
0.00837544
0.00895182
0.00950869
0.010041
0.0105436
0.0110114
0.0114397
0.0118238
0.0121593
0.0124422
0.012669
0.0128368
0.012943
0.0129858
0.012964
0.0128771
0.0127251
0.012509
0.0122301
0.0118904
0.0114926
0.0110398
0.0105354
0.00998336
0.00938778
0.00875292
0.00808278
0.00738135
0.00665727
0.00591848
0.00510629
0.00416776
0.00497163
0.00384161
0.00292915
0.00216277
0.00145912
0.000819263
0.000244907
-0.000268319
-0.000724781
-0.00112827
-0.00148238
-0.0017905
-0.00205576
-0.00228099
-0.00246872
-0.00262119
-0.0027403
-0.00282768
-0.00288463
-0.00291218
-0.0029111
-0.0028819
-0.00282487
-0.00274011
-0.00262756
-0.00248701
-0.00231817
-0.00212067
-0.00189413
-0.00163816
-0.00135246
-0.00103677
-0.000691009
-0.000315224
9.03177e-05
0.000525116
0.000988397
0.00147909
0.0019958
0.00253677
0.00309989
0.00368267
0.00428222
0.00489529
0.00551822
0.00614703
0.00677734
0.00740453
0.00802366
0.00862961
0.00921705
0.0097806
0.0103148
0.0108143
0.0112737
0.0116881
0.0120526
0.0123629
0.0126149
0.0128052
0.0129309
0.0129898
0.0129804
0.0129017
0.0127536
0.0125367
0.0122523
0.0119023
0.0114893
0.0110164
0.0104874
0.00990605
0.00927689
0.00860445
0.00789303
0.00714699
0.00637567
0.00558773
0.00472066
0.00371812
0.00473528
0.00355761
0.00260734
0.00180993
0.00107836
0.000413595
-0.000182711
-0.00071529
-0.00118886
-0.00160752
-0.00197519
-0.00229554
-0.00257195
-0.00280747
-0.00300485
-0.00316647
-0.00329437
-0.00339028
-0.00345557
-0.00349133
-0.00349833
-0.00347707
-0.00342783
-0.00335064
-0.00324538
-0.00311174
-0.00294934
-0.00275768
-0.00253626
-0.00228456
-0.00200212
-0.00168854
-0.00134357
-0.000967124
-0.000559306
-0.000120474
0.000348735
0.000847376
0.00137416
0.00192743
0.00250515
0.00310487
0.00372372
0.00435843
0.00500531
0.00566028
0.00631885
0.00697623
0.00762727
0.00826659
0.0088886
0.00948757
0.0100577
0.0105931
0.0110882
0.0115374
0.0119354
0.0122774
0.0125588
0.0127758
0.012925
0.0130037
0.01301
0.0129426
0.012801
0.0125857
0.0122977
0.0119389
0.0115118
0.0110195
0.0104659
0.00985518
0.00919189
0.00848097
0.00772707
0.00693493
0.00611467
0.00527569
0.00435149
0.0032822
0.00441277
0.00318891
0.00220198
0.00137447
0.000615802
-7.31528e-05
-0.00069083
-0.0012423
-0.00173262
-0.00216623
-0.00254732
-0.00287983
-0.00316742
-0.00341334
-0.00362051
-0.00379149
-0.00392843
-0.00403315
-0.0041071
-0.00415137
-0.00416676
-0.00415376
-0.0041126
-0.00404325
-0.0039455
-0.00381897
-0.00366314
-0.00347741
-0.00326112
-0.00301361
-0.00273425
-0.00242251
-0.00207796
-0.00170033
-0.00128959
-0.000845934
-0.000369838
0.000137884
0.000676069
0.00124317
0.00183722
0.00245583
0.00309618
0.00375498
0.0044285
0.00511257
0.00580261
0.00649362
0.00718027
0.00785691
0.00851764
0.00915637
0.00976689
0.010343
0.0108784
0.0113672
0.0118036
0.0121821
0.0124978
0.0127461
0.0129231
0.0130258
0.0130517
0.0129991
0.0128673
0.0126563
0.0123671
0.0120012
0.0115614
0.0110507
0.010473
0.00983281
0.00913497
0.00838475
0.00758716
0.00674739
0.00587635
0.00498423
0.00400036
0.00286115
0.00400016
0.00273155
0.00170912
0.000852463
6.7532e-05
-0.000644891
-0.00128333
-0.0018532
-0.00235989
-0.00280816
-0.00320248
-0.00354708
-0.00384583
-0.00410221
-0.00431931
-0.00449984
-0.00464606
-0.00475987
-0.00484276
-0.00489588
-0.00492001
-0.00491561
-0.00488286
-0.00482168
-0.00473176
-0.0046126
-0.00446358
-0.00428396
-0.00407292
-0.00382965
-0.00355335
-0.00324332
-0.00289895
-0.00251981
-0.00210566
-0.00165654
-0.00117276
-0.000654984
-0.00010423
0.000478072
0.00109006
0.00172942
0.00239336
0.00307861
0.0037814
0.0044975
0.0052222
0.00595034
0.00667638
0.00739438
0.00809813
0.00878117
0.00943687
0.0100585
0.0106395
0.0111731
0.0116531
0.0120734
0.0124284
0.012713
0.0129229
0.0130542
0.0131041
0.0130705
0.0129521
0.0127486
0.0124609
0.0120904
0.0116395
0.0111116
0.0105106
0.0098412
0.00910854
0.00831826
0.00747581
0.00658679
0.00566301
0.00471548
0.00366908
0.00245636
0.0034936
0.00218169
0.00112492
0.000240066
-0.000570275
-0.00130542
-0.001964
-0.00255175
-0.00307441
-0.00353703
-0.00394438
-0.00430094
-0.00461081
-0.00487769
-0.00510483
-0.00529507
-0.00545079
-0.00557396
-0.00566612
-0.00572843
-0.00576166
-0.00576624
-0.0057423
-0.00568967
-0.00560796
-0.00549654
-0.00535467
-0.00518144
-0.0049759
-0.00473706
-0.00446394
-0.00415566
-0.0038114
-0.00343055
-0.00301269
-0.00255766
-0.00206558
-0.00153695
-0.000972629
-0.000373907
0.000257472
0.000919283
0.00160879
0.00232276
0.00305739
0.00380839
0.00457094
0.00533973
0.00610898
0.0068725
0.00762373
0.00835582
0.00906171
0.00973418
0.010366
0.01095
0.0114793
0.0119471
0.0123472
0.0126738
0.0129219
0.0130871
0.013166
0.0131558
0.0130551
0.012863
0.01258
0.0122075
0.0117479
0.0112044
0.010581
0.00988284
0.00911525
0.00828427
0.00739578
0.00645588
0.00547726
0.00447183
0.00335978
0.00206953
0.00288935
0.00153559
0.000445653
-0.000466443
-0.00130134
-0.00205846
-0.00273653
-0.00334163
-0.00387983
-0.00435647
-0.00477661
-0.00514499
-0.00546593
-0.00574332
-0.00598059
-0.0061807
-0.00634614
-0.00647894
-0.00658069
-0.00665254
-0.00669527
-0.00670925
-0.00669456
-0.00665094
-0.00657789
-0.00647467
-0.00634037
-0.00617396
-0.0059743
-0.00574021
-0.00547055
-0.0051642
-0.00482017
-0.00443762
-0.00401592
-0.0035547
-0.0030539
-0.00251381
-0.00193511
-0.00131893
-0.000666879
1.89321e-05
0.000735852
0.00148067
0.00224962
0.00303834
0.0038419
0.00465486
0.00547121
0.00628448
0.00708778
0.00787386
0.00863516
0.00936396
0.0100524
0.0106928
0.0112774
0.0117989
0.0122503
0.0126251
0.0129174
0.0131224
0.0132358
0.0132544
0.013176
0.0129996
0.0127253
0.012354
0.0118882
0.011331
0.0106868
0.00996051
0.00915806
0.00828585
0.0073502
0.00635771
0.00532205
0.00425606
0.00307494
0.00170272
0.00218377
0.000789636
-0.000332309
-0.00127068
-0.00212926
-0.0029076
-0.00360452
-0.00422642
-0.00477971
-0.00527003
-0.00570271
-0.00608273
-0.00641466
-0.00670257
-0.00695004
-0.00716017
-0.00733554
-0.00747824
-0.0075899
-0.00767167
-0.00772432
-0.00774817
-0.00774322
-0.00770912
-0.00764526
-0.00755078
-0.0074246
-0.00726554
-0.00707226
-0.00684341
-0.00657762
-0.00627357
-0.00593005
-0.00554599
-0.00512053
-0.00465307
-0.00414332
-0.00359137
-0.00299768
-0.00236321
-0.00168939
-0.000978208
-0.000232204
0.00054548
0.00135109
0.00218024
0.00302794
0.00388856
0.00475592
0.00562326
0.00648334
0.00732849
0.00815068
0.00894162
0.00969286
0.0103959
0.0110425
0.0116243
0.0121337
0.0125634
0.0129067
0.0131579
0.013312
0.0133652
0.0133147
0.0131589
0.0128975
0.0125314
0.0120625
0.0114941
0.0108306
0.0100773
0.00924031
0.00832646
0.00734257
0.00629578
0.00520078
0.00407139
0.00281748
0.00135845
0.00137334
-5.96933e-05
-0.00121247
-0.00217614
-0.00305755
-0.00385634
-0.00457145
-0.0052096
-0.00577753
-0.00628116
-0.0067261
-0.00711759
-0.0074604
-0.0077588
-0.00801654
-0.00823681
-0.00842231
-0.00857518
-0.00869708
-0.00878917
-0.00885218
-0.00888639
-0.00889172
-0.00886772
-0.00881366
-0.00872854
-0.00861113
-0.00846005
-0.0082738
-0.00805081
-0.00778948
-0.00748828
-0.00714573
-0.00676054
-0.0063316
-0.00585805
-0.00533936
-0.00477536
-0.00416631
-0.00351292
-0.00281646
-0.00207874
-0.00130216
-0.000489778
0.000354701
0.00122689
0.00212174
0.0030335
0.00395577
0.00488153
0.00580321
0.00671269
0.00760144
0.00846058
0.00928102
0.0100536
0.010769
0.0114184
0.0119932
0.0124851
0.0128866
0.0131911
0.0133929
0.0134873
0.0134708
0.0133413
0.0130979
0.0127412
0.0122729
0.0116963
0.0110157
0.0102367
0.00936569
0.00840999
0.00737688
0.00627407
0.00511733
0.00392152
0.00259085
0.00103974
0.000454665
-0.00101579
-0.00219821
-0.00318623
-0.00408959
-0.00490807
-0.00564071
-0.00629456
-0.00687665
-0.00739321
-0.00785012
-0.00825287
-0.00860644
-0.00891529
-0.00918332
-0.00941385
-0.00960966
-0.00977296
-0.00990542
-0.0100082
-0.0100821
-0.0101271
-0.0101433
-0.0101301
-0.0100865
-0.0100114
-0.00990352
-0.0097612
-0.00958274
-0.00936637
-0.00911026
-0.00881261
-0.0084717
-0.00808598
-0.00765404
-0.00717477
-0.00664737
-0.00607138
-0.00544682
-0.00477415
-0.00405441
-0.00328919
-0.00248076
-0.00163204
-0.000746662
0.00017103
0.00111593
0.0020822
0.00306326
0.00405183
0.00503998
0.00601917
0.00698034
0.00791402
0.00881042
0.00965955
0.0104514
0.0111761
0.0118241
0.0123862
0.0128539
0.0132197
0.0134767
0.0136196
0.0136441
0.0135472
0.0133276
0.0129853
0.012522
0.0119406
0.0112455
0.0104425
0.00953838
0.00854081
0.00745761
0.00629708
0.00507615
0.00381076
0.00239907
0.000750245
-0.000575524
-0.00208191
-0.00329282
-0.00430422
-0.00522868
-0.00606609
-0.0068156
-0.00748456
-0.00808034
-0.00860944
-0.00907801
-0.00949178
-0.00985595
-0.0101752
-0.0104535
-0.0106944
-0.0109006
-0.0110746
-0.0112179
-0.0113318
-0.0114169
-0.0114734
-0.0115011
-0.0114992
-0.0114668
-0.0114026
-0.0113051
-0.0111724
-0.0110026
-0.0107938
-0.0105438
-0.0102506
-0.00991216
-0.00952669
-0.00909248
-0.0086081
-0.00807245
-0.00748479
-0.00684483
-0.00615275
-0.00540934
-0.00461595
-0.00377464
-0.00288817
-0.00196005
-0.000994582
3.13366e-06
0.00102718
0.00207083
0.00312656
0.00418609
0.00524047
0.00628011
0.0072949
0.00827431
0.00920756
0.0100837
0.010892
0.0116217
0.0122626
0.0128052
0.0132408
0.0135616
0.0137611
0.0138342
0.0137771
0.0135878
0.0132658
0.0128124
0.0122302
0.0115239
0.0106991
0.00976305
0.00872386
0.00758986
0.00636996
0.00508232
0.00374406
0.00224685
0.000494249
-0.00172035
-0.0032612
-0.00449943
-0.00553328
-0.00647799
-0.00733358
-0.00809929
-0.00878279
-0.00939176
-0.00993297
-0.0104129
-0.0108374
-0.011212
-0.0115414
-0.01183
-0.0120812
-0.0122981
-0.0124829
-0.0126374
-0.0127628
-0.0128596
-0.0129281
-0.0129678
-0.012978
-0.0129576
-0.0129051
-0.0128188
-0.0126967
-0.0125366
-0.0123363
-0.0120935
-0.0118058
-0.0114709
-0.0110867
-0.0106512
-0.0101625
-0.00961936
-0.00902059
-0.0083656
-0.00765427
-0.00688708
-0.00606512
-0.00519015
-0.00426477
-0.00329233
-0.00227703
-0.00122392
-0.000138982
0.000970946
0.00209812
0.00323396
0.00436907
0.00549333
0.00659598
0.00766575
0.008691
0.00965984
0.0105604
0.0113809
0.01211
0.0127369
0.0132517
0.0136456
0.0139107
0.014041
0.0140317
0.0138801
0.013585
0.0131471
0.0125691
0.0118552
0.0110113
0.010045
0.00896468
0.00777935
0.00649854
0.00514167
0.00372712
0.00213964
0.000276819
-0.0029828
-0.00455666
-0.00582109
-0.00687646
-0.00784059
-0.0087136
-0.00949486
-0.0101923
-0.010814
-0.0113668
-0.0118577
-0.0122926
-0.0126773
-0.0130169
-0.0133156
-0.0135772
-0.0138046
-0.0140005
-0.0141664
-0.0143035
-0.0144125
-0.0144934
-0.0145458
-0.0145688
-0.0145612
-0.0145213
-0.0144472
-0.0143367
-0.0141874
-0.0139969
-0.0137624
-0.0134815
-0.0131513
-0.0127696
-0.0123339
-0.0118421
-0.0112923
-0.0106833
-0.010014
-0.00928382
-0.00849302
-0.00764232
-0.00673327
-0.00576813
-0.00475006
-0.00368312
-0.00257228
-0.00142353
-0.000243779
0.000959034
0.00217603
0.00339741
0.00461253
0.00580997
0.0069777
0.00810315
0.00917345
0.0101756
0.0110966
0.0119238
0.0126452
0.0132495
0.0137265
0.0140672
0.0142642
0.0143118
0.0142061
0.0139454
0.0135297
0.0129612
0.0122442
0.0113846
0.01039
0.00926951
0.00803258
0.00668941
0.00526081
0.00376646
0.00208373
0.000103865
-0.00436568
-0.00597116
-0.00726069
-0.00833669
-0.00931944
-0.0102092
-0.0110053
-0.0117161
-0.0123499
-0.0129139
-0.0134152
-0.0138602
-0.0142548
-0.0146042