/*--------------------------------*- C++ -*----------------------------------*\
  =========                 |
  \\      /  F ield         | OpenFOAM: The Open Source CFD Toolbox
   \\    /   O peration     | Website:  https://openfoam.org
    \\  /    A nd           | Version:  7
     \\/     M anipulation  |
\*---------------------------------------------------------------------------*/
FoamFile
{
    version     2.0;
    format      ascii;
    class       volVectorField;
    location    "1.95";
    object      U;
}
// * * * * * * * * * * * * * * * * * * * * * * * * * * * * * * * * * * * * * //

dimensions      [0 1 -1 0 0 0 0];

internalField   nonuniform List<vector> 
6400
(
(8.50855e-06 -8.93187e-06 0)
(3.38727e-05 -1.62007e-05 0)
(6.48536e-05 -1.48213e-05 0)
(8.40789e-05 -9.02241e-06 0)
(8.3102e-05 -1.47652e-06 0)
(5.91902e-05 6.4757e-06 0)
(1.19607e-05 1.41623e-05 0)
(-5.77374e-05 2.12778e-05 0)
(-0.000148364 2.76921e-05 0)
(-0.000258024 3.33668e-05 0)
(-0.000384681 3.83125e-05 0)
(-0.000526279 4.25648e-05 0)
(-0.000680814 4.61714e-05 0)
(-0.000846377 4.91845e-05 0)
(-0.00102117 5.16568e-05 0)
(-0.00120353 5.36383e-05 0)
(-0.00139191 5.51749e-05 0)
(-0.00158487 5.63073e-05 0)
(-0.00178108 5.70702e-05 0)
(-0.00197931 5.74926e-05 0)
(-0.0021784 5.7597e-05 0)
(-0.00237722 5.74005e-05 0)
(-0.00257474 5.69148e-05 0)
(-0.00276991 5.61469e-05 0)
(-0.00296173 5.50999e-05 0)
(-0.0031492 5.37734e-05 0)
(-0.00333131 5.21645e-05 0)
(-0.00350706 5.02684e-05 0)
(-0.00367544 4.80793e-05 0)
(-0.00383543 4.55916e-05 0)
(-0.00398598 4.28e-05 0)
(-0.00412607 3.97007e-05 0)
(-0.00425465 3.6292e-05 0)
(-0.00437071 3.2575e-05 0)
(-0.00447323 2.85542e-05 0)
(-0.00456124 2.4238e-05 0)
(-0.00463381 1.96392e-05 0)
(-0.00469006 1.47754e-05 0)
(-0.00472919 9.66955e-06 0)
(-0.0047505 4.34957e-06 0)
(-0.00475339 -1.15106e-06 0)
(-0.00473737 -6.79355e-06 0)
(-0.00470212 -1.25338e-05 0)
(-0.00464744 -1.83229e-05 0)
(-0.00457332 -2.41074e-05 0)
(-0.00447993 -2.98297e-05 0)
(-0.00436763 -3.54293e-05 0)
(-0.00423698 -4.08429e-05 0)
(-0.00408874 -4.60058e-05 0)
(-0.00392389 -5.08529e-05 0)
(-0.00374359 -5.53197e-05 0)
(-0.00354924 -5.93433e-05 0)
(-0.0033424 -6.2864e-05 0)
(-0.00312483 -6.58261e-05 0)
(-0.00289844 -6.81792e-05 0)
(-0.00266532 -6.98798e-05 0)
(-0.00242764 -7.08917e-05 0)
(-0.00218769 -7.11873e-05 0)
(-0.00194785 -7.0748e-05 0)
(-0.00171049 -6.95645e-05 0)
(-0.00147805 -6.76382e-05 0)
(-0.00125289 -6.49808e-05 0)
(-0.00103734 -6.16147e-05 0)
(-0.00083364 -5.7572e-05 0)
(-0.000643888 -5.28945e-05 0)
(-0.000470034 -4.76336e-05 0)
(-0.000313831 -4.18501e-05 0)
(-0.000176806 -3.5615e-05 0)
(-6.02244e-05 -2.90095e-05 0)
(3.49444e-05 -2.21266e-05 0)
(0.000108078 -1.50707e-05 0)
(0.000158959 -7.97075e-06 0)
(0.000187854 -9.88884e-07 0)
(0.000195628 5.65604e-06 0)
(0.000183942 1.16493e-05 0)
(0.000155539 1.65074e-05 0)
(0.000114626 1.94747e-05 0)
(6.76183e-05 1.93185e-05 0)
(2.53406e-05 1.41929e-05 0)
(3.55904e-06 3.57716e-06 0)
(1.6061e-05 -3.45857e-05 0)
(5.49261e-05 -5.5171e-05 0)
(8.98477e-05 -4.22231e-05 0)
(9.23086e-05 -1.05034e-05 0)
(4.627e-05 3.03308e-05 0)
(-5.52708e-05 7.44791e-05 0)
(-0.000214538 0.000118527 0)
(-0.000430679 0.000160516 0)
(-0.000700881 0.00019937 0)
(-0.00102113 0.00023455 0)
(-0.00138676 0.000265845 0)
(-0.00179281 0.000293245 0)
(-0.00223427 0.000316861 0)
(-0.00270623 0.000336873 0)
(-0.00320394 0.000353498 0)
(-0.0037229 0.000366962 0)
(-0.00425887 0.000377486 0)
(-0.00480783 0.000385277 0)
(-0.00536603 0.00039052 0)
(-0.0059299 0.000393373 0)
(-0.00649608 0.000393965 0)
(-0.00706135 0.000392397 0)
(-0.0076226 0.000388746 0)
(-0.0081768 0.000383059 0)
(-0.00872101 0.000375368 0)
(-0.00925229 0.000365683 0)
(-0.00976773 0.000354003 0)
(-0.0102644 0.000340316 0)
(-0.0107395 0.000324608 0)
(-0.01119 0.000306865 0)
(-0.011613 0.000287076 0)
(-0.0120057 0.000265243 0)
(-0.0123651 0.000241379 0)
(-0.0126884 0.000215516 0)
(-0.0129729 0.000187707 0)
(-0.013216 0.000158029 0)
(-0.0134151 0.000126586 0)
(-0.0135679 9.35123e-05 0)
(-0.0136723 5.89721e-05 0)
(-0.0137266 2.31617e-05 0)
(-0.0137291 -1.36908e-05 0)
(-0.0136787 -5.13256e-05 0)
(-0.0135746 -8.94525e-05 0)
(-0.0134164 -0.000127753 0)
(-0.0132043 -0.000165884 0)
(-0.0129388 -0.000203478 0)
(-0.0126211 -0.000240152 0)
(-0.0122527 -0.000275509 0)
(-0.0118359 -0.000309148 0)
(-0.0113734 -0.000340662 0)
(-0.0108685 -0.000369654 0)
(-0.010325 -0.000395739 0)
(-0.00974734 -0.000418551 0)
(-0.0091402 -0.000437752 0)
(-0.00850887 -0.000453038 0)
(-0.00785896 -0.000464145 0)
(-0.00719641 -0.000470859 0)
(-0.00652742 -0.000473015 0)
(-0.00585836 -0.000470507 0)
(-0.0051957 -0.000463288 0)
(-0.00454593 -0.000451378 0)
(-0.00391545 -0.000434858 0)
(-0.00331049 -0.000413879 0)
(-0.00273705 -0.000388657 0)
(-0.00220075 -0.000359474 0)
(-0.00170676 -0.000326679 0)
(-0.00125973 -0.000290687 0)
(-0.000863653 -0.00025198 0)
(-0.00052179 -0.00021112 0)
(-0.000236539 -0.000168751 0)
(-9.31149e-06 -0.000125616 0)
(0.000159628 -8.26023e-05 0)
(0.000271372 -4.07853e-05 0)
(0.000328646 -1.5261e-06 0)
(0.00033619 3.33907e-05 0)
(0.000301265 6.15469e-05 0)
(0.000234128 7.96232e-05 0)
(0.000148722 8.30356e-05 0)
(6.57952e-05 6.59344e-05 0)
(1.40676e-05 2.5261e-05 0)
(1.50277e-05 -6.55874e-05 0)
(4.27088e-05 -9.02146e-05 0)
(4.70721e-05 -4.66635e-05 0)
(-2.58794e-06 3.71588e-05 0)
(-0.00012457 0.000142665 0)
(-0.000327881 0.000257392 0)
(-0.000615869 0.000373236 0)
(-0.000987859 0.000485076 0)
(-0.00144038 0.000589809 0)
(-0.00196812 0.000685663 0)
(-0.00256465 0.000771751 0)
(-0.00322295 0.000847764 0)
(-0.00393574 0.000913768 0)
(-0.00469574 0.000970061 0)
(-0.00549581 0.00101708 0)
(-0.00632908 0.00105532 0)
(-0.00718898 0.0010853 0)
(-0.00806924 0.00110751 0)
(-0.0089639 0.00112241 0)
(-0.00986731 0.00113039 0)
(-0.010774 0.00113179 0)
(-0.0116789 0.00112687 0)
(-0.0125768 0.00111585 0)
(-0.0134629 0.00109886 0)
(-0.0143324 0.001076 0)
(-0.0151805 0.00104732 0)
(-0.0160025 0.00101283 0)
(-0.0167938 0.000972539 0)
(-0.0175496 0.000926424 0)
(-0.0182654 0.000874481 0)
(-0.0189365 0.000816717 0)
(-0.0195583 0.000753168 0)
(-0.0201263 0.000683907 0)
(-0.0206361 0.000609058 0)
(-0.0210835 0.000528802 0)
(-0.0214643 0.000443387 0)
(-0.0217748 0.000353134 0)
(-0.0220115 0.000258444 0)
(-0.0221711 0.0001598 0)
(-0.0222511 5.777e-05 0)
(-0.022249 -4.69916e-05 0)
(-0.0221633 -0.000153748 0)
(-0.0219928 -0.000261683 0)
(-0.0217372 -0.000369904 0)
(-0.0213967 -0.000477456 0)
(-0.0209725 -0.000583324 0)
(-0.0204663 -0.000686451 0)
(-0.0198809 -0.000785747 0)
(-0.0192197 -0.000880108 0)
(-0.0184872 -0.000968431 0)
(-0.0176884 -0.00104963 0)
(-0.0168294 -0.00112266 0)
(-0.0159169 -0.00118653 0)
(-0.0149583 -0.00124033 0)
(-0.0139619 -0.00128324 0)
(-0.0129362 -0.00131454 0)
(-0.0118904 -0.00133367 0)
(-0.0108341 -0.00134018 0)
(-0.00977703 -0.0013338 0)
(-0.00872918 -0.00131442 0)
(-0.00770046 -0.00128209 0)
(-0.00670072 -0.00123706 0)
(-0.00573951 -0.00117975 0)
(-0.00482598 -0.00111079 0)
(-0.00396872 -0.00103096 0)
(-0.00317564 -0.000941266 0)
(-0.00245378 -0.000842882 0)
(-0.00180918 -0.00073719 0)
(-0.00124671 -0.000625787 0)
(-0.000769915 -0.000510515 0)
(-0.000380768 -0.000393505 0)
(-7.94897e-05 -0.000277252 0)
(0.000135751 -0.000164733 0)
(0.000269176 -5.95751e-05 0)
(0.000327833 3.36961e-05 0)
(0.000322097 0.000109341 0)
(0.000266013 0.000160069 0)
(0.000177723 0.00017677 0)
(8.31993e-05 0.000148843 0)
(1.91637e-05 6.73131e-05 0)
(9.46817e-06 -8.53237e-05 0)
(1.12301e-05 -9.2891e-05 0)
(-3.73479e-05 3.06551e-06 0)
(-0.000163198 0.000161837 0)
(-0.00038353 0.000355964 0)
(-0.000707567 0.000566063 0)
(-0.00113872 0.000778788 0)
(-0.00167604 0.000985268 0)
(-0.00231543 0.00117981 0)
(-0.00305059 0.00135893 0)
(-0.00387378 0.00152072 0)
(-0.0047764 0.00166432 0)
(-0.00574943 0.00178958 0)
(-0.0067837 0.00189683 0)
(-0.00787015 0.0019867 0)
(-0.00899991 0.00205996 0)
(-0.0101644 0.00211744 0)
(-0.0113555 0.00215998 0)
(-0.0125651 0.00218836 0)
(-0.0137859 0.00220326 0)
(-0.0150104 0.00220529 0)
(-0.0162316 0.00219492 0)
(-0.0174428 0.00217253 0)
(-0.0186373 0.0021384 0)
(-0.0198085 0.00209271 0)
(-0.02095 0.00203558 0)
(-0.0220554 0.00196708 0)
(-0.0231184 0.00188722 0)
(-0.0241328 0.00179603 0)
(-0.0250922 0.00169353 0)
(-0.0259905 0.00157979 0)
(-0.0268216 0.00145491 0)
(-0.0275795 0.00131909 0)
(-0.0282585 0.00117261 0)
(-0.028853 0.00101585 0)
(-0.0293576 0.000849343 0)
(-0.0297675 0.000673733 0)
(-0.030078 0.000489824 0)
(-0.0302852 0.000298569 0)
(-0.0303857 0.000101078 0)
(-0.0303766 -0.00010138 0)
(-0.0302559 -0.000307386 0)
(-0.0300223 -0.000515374 0)
(-0.0296755 -0.000723646 0)
(-0.029216 -0.000930381 0)
(-0.0286454 -0.00113366 0)
(-0.0279663 -0.00133149 0)
(-0.0271822 -0.00152182 0)
(-0.0262979 -0.00170256 0)
(-0.0253192 -0.00187167 0)
(-0.024253 -0.00202709 0)
(-0.0231071 -0.00216689 0)
(-0.0218903 -0.00228921 0)
(-0.0206125 -0.00239235 0)
(-0.0192843 -0.00247479 0)
(-0.0179169 -0.00253522 0)
(-0.0165224 -0.00257256 0)
(-0.0151131 -0.00258601 0)
(-0.0137017 -0.00257506 0)
(-0.0123012 -0.00253951 0)
(-0.0109245 -0.0024795 0)
(-0.00958432 -0.00239551 0)
(-0.00829311 -0.00228835 0)
(-0.0070627 -0.00215921 0)
(-0.00590424 -0.00200961 0)
(-0.00482794 -0.00184146 0)
(-0.00384291 -0.00165703 0)
(-0.00295693 -0.00145898 0)
(-0.00217626 -0.00125036 0)
(-0.0015054 -0.00103472 0)
(-0.000946871 -0.000816099 0)
(-0.000500926 -0.00059921 0)
(-0.000165259 -0.000389565 0)
(6.53468e-05 -0.000193713 0)
(0.000199417 -1.95529e-05 0)
(0.000249234 0.000123301 0)
(0.000231071 0.000223135 0)
(0.000165508 0.00026592 0)
(8.14025e-05 0.000235521 0)
(1.95331e-05 0.000114466 0)
(1.96745e-06 -8.49286e-05 0)
(-3.04971e-05 -4.60804e-05 0)
(-0.000146574 0.000127109 0)
(-0.000365222 0.000383384 0)
(-0.00070015 0.000687418 0)
(-0.00115939 0.00101345 0)
(-0.00174543 0.00134308 0)
(-0.00245646 0.00166363 0)
(-0.00328753 0.00196661 0)
(-0.00423133 0.00224663 0)
(-0.00527902 0.0025005 0)
(-0.00642069 0.00272662 0)
(-0.00764591 0.00292452 0)
(-0.00894396 0.00309443 0)
(-0.0103042 0.00323709 0)
(-0.011716 0.00335353 0)
(-0.0131693 0.00344488 0)
(-0.014654 0.00351232 0)
(-0.0161605 0.00355696 0)
(-0.0176797 0.00357981 0)
(-0.0192024 0.00358174 0)
(-0.0207202 0.00356349 0)
(-0.0222244 0.00352564 0)
(-0.0237068 0.0034686 0)
(-0.0251594 0.0033927 0)
(-0.026574 0.00329814 0)
(-0.0279428 0.00318506 0)
(-0.029258 0.00305353 0)
(-0.0305117 0.00290364 0)
(-0.0316963 0.00273548 0)
(-0.0328042 0.00254922 0)
(-0.0338279 0.0023451 0)
(-0.0347603 0.00212348 0)
(-0.0355942 0.00188486 0)
(-0.0363229 0.00162995 0)
(-0.0369401 0.00135962 0)
(-0.0374399 0.00107496 0)
(-0.0378168 0.000777306 0)
(-0.0380662 0.000468211 0)
(-0.038184 0.00014948 0)
(-0.0381669 -0.00017684 0)
(-0.0380128 -0.000508471 0)
(-0.0377201 -0.000842913 0)
(-0.0372887 -0.00117746 0)
(-0.0367193 -0.00150923 0)
(-0.036014 -0.00183518 0)
(-0.035176 -0.00215217 0)
(-0.0342099 -0.00245695 0)
(-0.0331214 -0.00274629 0)
(-0.0319176 -0.00301692 0)
(-0.0306068 -0.00326567 0)
(-0.0291986 -0.00348949 0)
(-0.0277037 -0.00368548 0)
(-0.0261339 -0.00385099 0)
(-0.0245018 -0.00398364 0)
(-0.0228212 -0.00408139 0)
(-0.0211064 -0.00414257 0)
(-0.0193722 -0.00416593 0)
(-0.0176339 -0.0041507 0)
(-0.0159071 -0.00409657 0)
(-0.0142072 -0.00400378 0)
(-0.0125495 -0.00387308 0)
(-0.0109488 -0.0037058 0)
(-0.00941948 -0.00350381 0)
(-0.00797478 -0.00326956 0)
(-0.00662698 -0.00300608 0)
(-0.00538699 -0.00271699 0)
(-0.00426414 -0.00240652 0)
(-0.00326595 -0.00207955 0)
(-0.00239786 -0.00174167 0)
(-0.00166295 -0.00139926 0)
(-0.00106168 -0.00105967 0)
(-0.000591606 -0.00073134 0)
(-0.000247 -0.000424137 0)
(-1.85489e-05 -0.00014964 0)
(0.000107034 7.84413e-05 0)
(0.000147183 0.000243844 0)
(0.000123789 0.000327469 0)
(6.67507e-05 0.000307238 0)
(1.71299e-05 0.00015675 0)
(-6.2316e-06 -6.08721e-05 0)
(-7.72618e-05 5.91792e-05 0)
(-0.000269674 0.000337525 0)
(-0.000592013 0.000715125 0)
(-0.00105281 0.00115019 0)
(-0.00165782 0.00161146 0)
(-0.00240773 0.00207599 0)
(-0.00329928 0.00252752 0)
(-0.0043263 0.00295484 0)
(-0.00548038 0.0033506 0)
(-0.00675152 0.00371025 0)
(-0.00812866 0.00403136 0)
(-0.0096001 0.00431299 0)
(-0.0111538 0.00455525 0)
(-0.0127778 0.0047589 0)
(-0.0144601 0.00492518 0)
(-0.016189 0.00505549 0)
(-0.0179531 0.00515133 0)
(-0.0197412 0.00521415 0)
(-0.0215427 0.00524528 0)
(-0.0233471 0.00524588 0)
(-0.0251442 0.00521695 0)
(-0.0269241 0.00515928 0)
(-0.028677 0.00507347 0)
(-0.0303934 0.00495998 0)
(-0.0320638 0.00481912 0)
(-0.0336789 0.00465112 0)
(-0.0352295 0.00445617 0)
(-0.0367064 0.00423444 0)
(-0.0381007 0.00398613 0)
(-0.0394036 0.00371155 0)
(-0.0406062 0.00341112 0)
(-0.0417003 0.00308545 0)
(-0.0426777 0.00273535 0)
(-0.0435306 0.00236189 0)
(-0.0442518 0.0019664 0)
(-0.0448345 0.00155053 0)
(-0.0452726 0.00111624 0)
(-0.0455608 0.000665831 0)
(-0.0456945 0.000201931 0)
(-0.0456701 -0.000272489 0)
(-0.0454852 -0.000754132 0)
(-0.0451382 -0.0012394 0)
(-0.0446291 -0.0017244 0)
(-0.0439589 -0.00220502 0)
(-0.04313 -0.00267691 0)
(-0.0421464 -0.00313558 0)
(-0.0410133 -0.00357645 0)
(-0.0397375 -0.00399487 0)
(-0.0383271 -0.00438625 0)
(-0.0367917 -0.00474609 0)
(-0.0351425 -0.00507005 0)
(-0.0333916 -0.00535405 0)
(-0.0315525 -0.00559433 0)
(-0.02964 -0.00578754 0)
(-0.0276696 -0.00593079 0)
(-0.0256578 -0.00602172 0)
(-0.0236215 -0.00605859 0)
(-0.0215784 -0.00604028 0)
(-0.0195461 -0.00596639 0)
(-0.0175424 -0.00583727 0)
(-0.0155848 -0.005654 0)
(-0.0136904 -0.00541847 0)
(-0.0118755 -0.00513337 0)
(-0.0101554 -0.00480222 0)
(-0.00854423 -0.00442935 0)
(-0.00705454 -0.00401995 0)
(-0.00569711 -0.00358007 0)
(-0.00448067 -0.00311669 0)
(-0.00341162 -0.00263775 0)
(-0.00249372 -0.00215227 0)
(-0.00172786 -0.00167052 0)
(-0.00111175 -0.00120419 0)
(-0.00063961 -0.000766682 0)
(-0.000301899 -0.000373438 0)
(-8.50151e-05 -4.23679e-05 0)
(2.88629e-05 0.000205692 0)
(6.20673e-05 0.000346596 0)
(4.40302e-05 0.000352427 0)
(1.32345e-05 0.000188795 0)
(-1.4541e-05 -1.17367e-05 0)
(-0.000126112 0.000227753 0)
(-0.000399743 0.000641676 0)
(-0.000832385 0.00116574 0)
(-0.00142639 0.00175323 0)
(-0.00218438 0.00236843 0)
(-0.00310459 0.00298455 0)
(-0.00418175 0.0035822 0)
(-0.0054081 0.00414769 0)
(-0.00677388 0.0046718 0)
(-0.00826787 0.0051487 0)
(-0.00987783 0.0055751 0)
(-0.0115909 0.00594956 0)
(-0.0133939 0.006272 0)
(-0.0152736 0.00654319 0)
(-0.0172168 0.00676451 0)
(-0.0192104 0.00693763 0)
(-0.021242 0.00706434 0)
(-0.0232989 0.00714641 0)
(-0.0253692 0.00718548 0)
(-0.0274411 0.00718301 0)
(-0.029503 0.00714024 0)
(-0.0315437 0.0070582 0)
(-0.0335522 0.00693767 0)
(-0.0355175 0.00677926 0)
(-0.037429 0.00658343 0)
(-0.0392759 0.00635053 0)
(-0.0410479 0.00608086 0)
(-0.0427347 0.00577471 0)
(-0.0443259 0.00543245 0)
(-0.0458117 0.00505457 0)
(-0.0471822 0.00464174 0)
(-0.0484281 0.00419486 0)
(-0.0495401 0.00371511 0)
(-0.0505097 0.00320403 0)
(-0.0513287 0.00266348 0)
(-0.0519897 0.00209577 0)
(-0.0524859 0.00150359 0)
(-0.0528114 0.000890094 0)
(-0.0529612 0.000258868 0)
(-0.0529316 -0.000386062 0)
(-0.0527197 -0.00104025 0)
(-0.052324 -0.00169885 0)
(-0.0517446 -0.00235664 0)
(-0.0509827 -0.00300811 0)
(-0.0500411 -0.00364745 0)
(-0.0489242 -0.00426868 0)
(-0.047638 -0.00486569 0)
(-0.04619 -0.0054323 0)
(-0.0445894 -0.00596241 0)
(-0.042847 -0.00645003 0)
(-0.0409748 -0.00688942 0)
(-0.0389868 -0.00727516 0)
(-0.0368978 -0.00760226 0)
(-0.0347241 -0.00786627 0)
(-0.0324832 -0.00806335 0)
(-0.0301932 -0.00819039 0)
(-0.0278731 -0.00824505 0)
(-0.0255424 -0.00822587 0)
(-0.0232208 -0.00813231 0)
(-0.0209281 -0.00796482 0)
(-0.0186839 -0.00772484 0)
(-0.0165071 -0.00741491 0)
(-0.0144161 -0.00703861 0)
(-0.0124279 -0.00660063 0)
(-0.0105584 -0.00610677 0)
(-0.00882169 -0.00556395 0)
(-0.00723005 -0.00498024 0)
(-0.00579339 -0.00436491 0)
(-0.00451914 -0.00372851 0)
(-0.00341193 -0.00308292 0)
(-0.00247326 -0.00244155 0)
(-0.00170132 -0.00181952 0)
(-0.00109066 -0.00123393 0)
(-0.000631969 -0.000704152 0)
(-0.000311881 -0.000252323 0)
(-0.000112787 9.62272e-05 0)
(-1.2607e-05 0.000312507 0)
(1.65027e-05 0.000363238 0)
(8.59945e-06 0.000207478 0)
(-2.27055e-05 6.28615e-05 0)
(-0.000175408 0.000461943 0)
(-0.000532508 0.00104364 0)
(-0.001079 0.00174045 0)
(-0.00181052 0.00250219 0)
(-0.002726 0.00328978 0)
(-0.00382067 0.00407342 0)
(-0.00508683 0.0048311 0)
(-0.00651475 0.00554706 0)
(-0.00809311 0.00621046 0)
(-0.0098093 0.00681429 0)
(-0.0116499 0.00735449 0)
(-0.0136008 0.00782916 0)
(-0.0156478 0.00823801 0)
(-0.0177765 0.00858183 0)
(-0.0199726 0.00886211 0)
(-0.022222 0.00908076 0)
(-0.024511 0.00923985 0)
(-0.0268259 0.00934145 0)
(-0.0291534 0.00938749 0)
(-0.0314808 0.00937973 0)
(-0.0337952 0.00931966 0)
(-0.0360842 0.00920852 0)
(-0.0383356 0.00904731 0)
(-0.0405373 0.00883679 0)
(-0.0426774 0.00857758 0)
(-0.0447443 0.00827015 0)
(-0.0467261 0.00791496 0)
(-0.0486116 0.00751246 0)
(-0.0503895 0.00706321 0)
(-0.0520488 0.00656794 0)
(-0.0535786 0.00602759 0)
(-0.0549687 0.00544343 0)
(-0.056209 0.00481708 0)
(-0.05729 0.0041506 0)
(-0.058203 0.0034465 0)
(-0.0589397 0.00270778 0)
(-0.0594928 0.001938 0)
(-0.059856 0.00114125 0)
(-0.0600239 0.000322185 0)
(-0.0599923 -0.000514008 0)
(-0.0597583 -0.00136161 0)
(-0.0593204 -0.00221439 0)
(-0.0586785 -0.0030657 0)
(-0.0578342 -0.00390848 0)
(-0.0567904 -0.00473533 0)
(-0.0555521 -0.00553863 0)
(-0.0541258 -0.00631061 0)
(-0.0525196 -0.00704343 0)
(-0.0507435 -0.00772933 0)
(-0.0488092 -0.00836071 0)
(-0.0467301 -0.00893027 0)
(-0.0445209 -0.00943115 0)
(-0.0421981 -0.00985701 0)
(-0.0397793 -0.0102022 0)
(-0.0372834 -0.0104618 0)
(-0.0347303 -0.0106319 0)
(-0.0321406 -0.0107095 0)
(-0.0295357 -0.0106927 0)
(-0.026937 -0.0105807 0)
(-0.0243661 -0.0103743 0)
(-0.0218446 -0.0100751 0)
(-0.0193932 -0.00968639 0)
(-0.017032 -0.0092127 0)
(-0.0147799 -0.00865997 0)
(-0.0126545 -0.00803558 0)
(-0.0106713 -0.00734831 0)
(-0.00884414 -0.00660841 0)
(-0.00718417 -0.00582761 0)
(-0.0057 -0.00501921 0)
(-0.00439724 -0.00419814 0)
(-0.00327831 -0.0033811 0)
(-0.0023421 -0.00258676 0)
(-0.00158384 -0.00183598 0)
(-0.000994863 -0.00115213 0)
(-0.000562443 -0.000561499 0)
(-0.000269678 -9.37506e-05 0)
(-9.52629e-05 0.000217604 0)
(-1.36838e-05 0.000334562 0)
(3.66523e-06 0.000211053 0)
(-3.0622e-05 0.000162738 0)
(-0.000224258 0.000762416 0)
(-0.000665375 0.00154517 0)
(-0.00132711 0.00244188 0)
(-0.00219816 0.00340021 0)
(-0.00327345 0.00437872 0)
(-0.00454483 0.00534542 0)
(-0.00600179 0.00627633 0)
(-0.00763238 0.00715405 0)
(-0.00942346 0.00796644 0)
(-0.0113609 0.00870556 0)
(-0.0134299 0.00936669 0)
(-0.0156153 0.00994758 0)
(-0.0179018 0.0104478 0)
(-0.0202738 0.0108681 0)
(-0.0227161 0.0112101 0)
(-0.0252135 0.0114761 0)
(-0.0277513 0.0116682 0)
(-0.0303149 0.0117889 0)
(-0.03289 0.0118405 0)
(-0.0354626 0.0118248 0)
(-0.0380191 0.0117437 0)
(-0.0405458 0.0115987 0)
(-0.0430295 0.0113908 0)
(-0.0454572 0.0111212 0)
(-0.0478158 0.0107904 0)
(-0.0500926 0.0103993 0)
(-0.052275 0.00994832 0)
(-0.0543505 0.00943819 0)
(-0.056307 0.00886966 0)
(-0.0581325 0.00824375 0)
(-0.0598153 0.00756173 0)
(-0.0613443 0.00682529 0)
(-0.0627085 0.00603654 0)
(-0.0638979 0.00519811 0)
(-0.0649029 0.00431322 0)
(-0.0657148 0.00338569 0)
(-0.0663256 0.00241998 0)
(-0.0667284 0.00142123 0)
(-0.0669177 0.000395223 0)
(-0.0668889 -0.000651569 0)
(-0.0666388 -0.00171206 0)
(-0.0661659 -0.00277855 0)
(-0.0654701 -0.00384281 0)
(-0.0645528 -0.00489614 0)
(-0.0634176 -0.00592944 0)
(-0.0620693 -0.00693333 0)
(-0.060515 -0.00789825 0)
(-0.0587635 -0.00881458 0)
(-0.0568253 -0.00967277 0)
(-0.0547129 -0.0104635 0)
(-0.0524405 -0.0111778 0)
(-0.050024 -0.0118072 0)
(-0.0474809 -0.0123439 0)
(-0.0448302 -0.012781 0)
(-0.0420919 -0.0131124 0)
(-0.0392876 -0.0133333 0)
(-0.0364393 -0.0134398 0)
(-0.03357 -0.0134297 0)
(-0.0307029 -0.013302 0)
(-0.0278614 -0.0130573 0)
(-0.0250686 -0.0126979 0)
(-0.0223471 -0.0122276 0)
(-0.0197189 -0.011652 0)
(-0.0172045 -0.0109782 0)
(-0.0148232 -0.0102154 0)
(-0.0125921 -0.00937433 0)
(-0.0105265 -0.00846743 0)
(-0.00863909 -0.00750908 0)
(-0.00693969 -0.00651543 0)
(-0.00543513 -0.00550459 0)
(-0.00412891 -0.00449666 0)
(-0.00302096 -0.00351394 0)
(-0.00210743 -0.0025811 0)
(-0.00138062 -0.00172549 0)
(-0.00082882 -0.000977447 0)
(-0.000436177 -0.000370788 0)
(-0.000182545 5.6828e-05 0)
(-4.51691e-05 0.000263318 0)
(-1.32319e-06 0.000198675 0)
(-3.82571e-05 0.000287415 0)
(-0.000272185 0.00112882 0)
(-0.00079678 0.00214646 0)
(-0.00157366 0.00327084 0)
(-0.00258457 0.00444849 0)
(-0.00382027 0.00563661 0)
(-0.00526898 0.00680178 0)
(-0.00691717 0.00791868 0)
(-0.00875041 0.00896879 0)
(-0.0107535 0.00993904 0)
(-0.0129108 0.0108208 0)
(-0.015206 0.011609 0)
(-0.0176226 0.0123011 0)
(-0.0201443 0.0128965 0)
(-0.0227545 0.0133962 0)
(-0.025437 0.0138019 0)
(-0.0281758 0.0141161 0)
(-0.0309551 0.0143413 0)
(-0.0337595 0.0144802 0)
(-0.0365738 0.0145353 0)
(-0.0393831 0.0145088 0)
(-0.0421727 0.0144028 0)
(-0.0449282 0.014219 0)
(-0.0476354 0.0139587 0)
(-0.0502804 0.0136231 0)
(-0.0528491 0.013213 0)
(-0.055328 0.0127294 0)
(-0.0577035 0.0121729 0)
(-0.0599623 0.0115446 0)
(-0.0620914 0.0108452 0)
(-0.0640779 0.0100763 0)
(-0.0659094 0.00923944 0)
(-0.067574 0.00833673 0)
(-0.06906 0.00737085 0)
(-0.0703566 0.00634509 0)
(-0.0714537 0.0052634 0)
(-0.0723419 0.00413048 0)
(-0.0730127 0.00295176 0)
(-0.0734589 0.00173349 0)
(-0.0736744 0.000482698 0)
(-0.0736542 -0.000792816 0)
(-0.0733952 -0.0020845 0)
(-0.0728953 -0.0033831 0)
(-0.0721545 -0.00467872 0)
(-0.0711744 -0.00596093 0)
(-0.0699582 -0.00721881 0)
(-0.0685114 -0.00844112 0)
(-0.066841 -0.00961641 0)
(-0.0649563 -0.0107331 0)
(-0.0628683 -0.0117799 0)
(-0.0605902 -0.0127455 0)
(-0.0581368 -0.0136192 0)
(-0.0555249 -0.0143908 0)
(-0.052773 -0.0150509 0)
(-0.0499011 -0.0155913 0)
(-0.0469306 -0.0160045 0)
(-0.0438842 -0.0162846 0)
(-0.0407855 -0.0164271 0)
(-0.037659 -0.0164291 0)
(-0.0345293 -0.0162895 0)
(-0.0314216 -0.0160087 0)
(-0.0283608 -0.0155894 0)
(-0.0253713 -0.0150361 0)
(-0.0224766 -0.0143554 0)
(-0.0196991 -0.0135558 0)
(-0.0170598 -0.0126481 0)
(-0.0145776 -0.011645 0)
(-0.0122694 -0.0105614 0)
(-0.0101493 -0.00941445 0)
(-0.00822873 -0.00822315 0)
(-0.00651589 -0.00700888 0)
(-0.00501557 -0.00579523 0)
(-0.00372895 -0.00460818 0)
(-0.00265343 -0.00347625 0)
(-0.00178248 -0.0024307 0)
(-0.00110571 -0.00150588 0)
(-0.000608575 -0.000739519 0)
(-0.000272324 -0.0001731 0)
(-7.71444e-05 0.000147766 0)
(-6.23898e-06 0.000170029 0)
(-4.56095e-05 0.000436273 0)
(-0.000318943 0.00156018 0)
(-0.000925787 0.00284669 0)
(-0.00181666 0.00422678 0)
(-0.00296653 0.00564677 0)
(-0.0043619 0.00706333 0)
(-0.00598728 0.00844233 0)
(-0.00782591 0.00975777 0)
(-0.00986075 0.0109905 0)
(-0.0120745 0.0121269 0)
(-0.0144495 0.013158 0)
(-0.0169682 0.0140785 0)
(-0.0196127 0.0148859 0)
(-0.0223656 0.0155797 0)
(-0.0252093 0.0161609 0)
(-0.0281267 0.0166315 0)
(-0.0311009 0.0169943 0)
(-0.0341153 0.017252 0)
(-0.0371536 0.0174076 0)
(-0.0401999 0.017464 0)
(-0.0432384 0.0174237 0)
(-0.0462537 0.0172889 0)
(-0.0492305 0.0170615 0)
(-0.052154 0.016743 0)
(-0.0550091 0.0163349 0)
(-0.0577813 0.0158381 0)
(-0.060456 0.0152537 0)
(-0.063019 0.0145827 0)
(-0.0654561 0.0138261 0)
(-0.0677535 0.0129853 0)
(-0.0698977 0.0120619 0)
(-0.0718755 0.0110579 0)
(-0.0736742 0.00997593 0)
(-0.0752815 0.00881928 0)
(-0.076686 0.0075919 0)
(-0.0778769 0.00629853 0)
(-0.0788442 0.00494477 0)
(-0.0795791 0.00353712 0)
(-0.0800737 0.00208297 0)
(-0.0803215 0.000590634 0)
(-0.0803172 -0.000930675 0)
(-0.0800573 -0.00247088 0)
(-0.0795395 -0.00401909 0)
(-0.0787635 -0.00556369 0)
(-0.0777308 -0.00709239 0)
(-0.0764447 -0.00859241 0)
(-0.0749106 -0.0100505 0)
(-0.0731357 -0.0114533 0)
(-0.0711294 -0.0127872 0)
(-0.0689033 -0.0140389 0)
(-0.0664709 -0.015195 0)
(-0.0638475 -0.0162431 0)
(-0.0610508 -0.017171 0)
(-0.0581 -0.0179678 0)
(-0.055016 -0.0186235 0)
(-0.0518213 -0.0191294 0)
(-0.0485399 -0.0194784 0)
(-0.0451967 -0.0196651 0)
(-0.0418175 -0.019686 0)
(-0.0384288 -0.0195393 0)
(-0.0350571 -0.0192259 0)
(-0.0317291 -0.0187483 0)
(-0.028471 -0.0181119 0)
(-0.0253082 -0.0173242 0)
(-0.0222648 -0.016395 0)
(-0.0193637 -0.015337 0)
(-0.0166256 -0.0141648 0)
(-0.0140691 -0.0128958 0)
(-0.0117102 -0.0115497 0)
(-0.00956184 -0.0101488 0)
(-0.00763384 -0.00871772 0)
(-0.00593254 -0.00728355 0)
(-0.0044606 -0.00587603 0)
(-0.00321685 -0.00452751 0)
(-0.00219624 -0.00327318 0)
(-0.00138984 -0.00215128 0)
(-0.00078463 -0.00120332 0)
(-0.000363359 -0.000474317 0)
(-0.000109171 -1.3015e-05 0)
(-1.10259e-05 0.000125095 0)
(-5.26896e-05 0.000608632 0)
(-0.000364411 0.00205517 0)
(-0.00105184 0.00364431 0)
(-0.00205486 0.0053082 0)
(-0.00334185 0.00699368 0)
(-0.00489514 0.00865759 0)
(-0.00669544 0.0102658 0)
(-0.00872271 0.0117921 0)
(-0.0109572 0.0132174 0)
(-0.0133792 0.0145278 0)
(-0.0159694 0.0157145 0)
(-0.0187085 0.0167722 0)
(-0.0215774 0.0176985 0)
(-0.0245574 0.0184931 0)
(-0.0276301 0.0191573 0)
(-0.0307773 0.0196935 0)
(-0.0339815 0.0201047 0)
(-0.0372251 0.020394 0)
(-0.0404913 0.0205648 0)
(-0.0437632 0.0206201 0)
(-0.0470246 0.0205627 0)
(-0.0502593 0.020395 0)
(-0.0534513 0.0201193 0)
(-0.0565849 0.0197373 0)
(-0.0596445 0.0192504 0)
(-0.0626149 0.01866 0)
(-0.0654807 0.0179671 0)
(-0.068227 0.0171731 0)
(-0.0708391 0.0162792 0)
(-0.0733022 0.0152869 0)
(-0.0756024 0.0141984 0)
(-0.0777256 0.0130159 0)
(-0.0796585 0.0117428 0)
(-0.0813884 0.0103828 0)
(-0.082903 0.00894056 0)
(-0.084191 0.0074217 0)
(-0.0852419 0.00583277 0)
(-0.0860462 0.00418132 0)
(-0.0865956 0.00247595 0)
(-0.0868831 0.000726299 0)
(-0.0869031 -0.00105696 0)
(-0.0866513 -0.00286218 0)
(-0.0861254 -0.00467677 0)
(-0.0853248 -0.00648732 0)
(-0.0842505 -0.00827965 0)
(-0.0829058 -0.010039 0)
(-0.0812959 -0.0117501 0)
(-0.079428 -0.0133975 0)
(-0.0773118 -0.0149654 0)
(-0.0749588 -0.0164385 0)
(-0.0723827 -0.0178013 0)
(-0.0695997 -0.0190392 0)
(-0.0666276 -0.0201384 0)
(-0.0634863 -0.0210858 0)
(-0.0601979 -0.0218699 0)
(-0.0567856 -0.0224806 0)
(-0.0532745 -0.0229093 0)
(-0.0496908 -0.0231496 0)
(-0.0460618 -0.0231971 0)
(-0.0424154 -0.0230499 0)
(-0.0387798 -0.0227084 0)
(-0.0351835 -0.0221756 0)
(-0.0316545 -0.0214571 0)
(-0.0282199 -0.0205616 0)
(-0.0249061 -0.0195003 0)
(-0.0217377 -0.0182873 0)
(-0.0187374 -0.0169396 0)
(-0.0159259 -0.0154769 0)
(-0.0133208 -0.0139218 0)
(-0.0109372 -0.0122995 0)
(-0.00878663 -0.0106382 0)
(-0.00687717 -0.00896843 0)
(-0.0052132 -0.00732381 0)
(-0.00379519 -0.00574054 0)
(-0.00261972 -0.00425771 0)
(-0.00167953 -0.0029174 0)
(-0.000963216 -0.0017648 0)
(-0.000455056 -0.0008483 0)
(-0.000141065 -0.000219499 0)
(-1.56708e-05 6.39872e-05 0)
(-5.95109e-05 0.000803783 0)
(-0.000408529 0.00261223 0)
(-0.00117458 0.00453735 0)
(-0.0022874 0.00651294 0)
(-0.00370903 0.008487 0)
(-0.00541766 0.0104172 0)
(-0.00739027 0.0122699 0)
(-0.0096035 0.0140195 0)
(-0.0120348 0.015647 0)
(-0.0146622 0.0171392 0)
(-0.0174644 0.0184873 0)
(-0.0204203 0.0196866 0)
(-0.0235098 0.0207349 0)
(-0.0267127 0.0216324 0)
(-0.0300098 0.0223808 0)
(-0.033382 0.0229829 0)
(-0.036811 0.0234421 0)
(-0.0402785 0.0237618 0)
(-0.043767 0.0239458 0)
(-0.0472592 0.0239974 0)
(-0.0507379 0.0239198 0)
(-0.0541864 0.0237155 0)
(-0.0575882 0.0233871 0)
(-0.060927 0.0229363 0)
(-0.0641867 0.0223649 0)
(-0.0673511 0.0216743 0)
(-0.0704046 0.0208659 0)
(-0.0733315 0.0199411 0)
(-0.0761163 0.0189014 0)
(-0.0787441 0.0177487 0)
(-0.0811998 0.0164853 0)
(-0.083469 0.0151141 0)
(-0.0855379 0.0136388 0)
(-0.0873929 0.0120638 0)
(-0.0890213 0.0103946 0)
(-0.0904111 0.0086375 0)
(-0.0915513 0.00680007 0)
(-0.0924318 0.00489096 0)
(-0.0930438 0.00291999 0)
(-0.0933796 0.000898147 0)
(-0.0934331 -0.00116241 0)
(-0.0931998 -0.00324841 0)
(-0.0926766 -0.00534555 0)
(-0.0918624 -0.00743855 0)
(-0.0907582 -0.0095113 0)
(-0.0893667 -0.011547 0)
(-0.0876929 -0.0135282 0)
(-0.0857439 -0.0154374 0)
(-0.0835291 -0.0172565 0)
(-0.0810602 -0.0189679 0)
(-0.0783511 -0.0205541 0)
(-0.075418 -0.0219982 0)
(-0.0722793 -0.0232843 0)
(-0.0689555 -0.0243975 0)
(-0.0654691 -0.0253243 0)
(-0.0618446 -0.0260528 0)
(-0.0581078 -0.0265732 0)
(-0.0542864 -0.0268779 0)
(-0.0504088 -0.0269615 0)
(-0.0465045 -0.0268214 0)
(-0.0426036 -0.0264578 0)
(-0.0387361 -0.0258738 0)
(-0.034932 -0.0250756 0)
(-0.0312205 -0.0240726 0)
(-0.0276301 -0.0228773 0)
(-0.0241873 -0.0215057 0)
(-0.0209173 -0.0199766 0)
(-0.0178425 -0.0183124 0)
(-0.0149831 -0.0165384 0)
(-0.0123559 -0.014683 0)
(-0.00997464 -0.0127777 0)
(-0.00784936 -0.0108569 0)
(-0.00598633 -0.00895795 0)
(-0.00438787 -0.00712091 0)
(-0.00305237 -0.00538886 0)
(-0.00197433 -0.0038077 0)
(-0.00114404 -0.00242627 0)
(-0.000547292 -0.00129624 0)
(-0.000172817 -0.000471991 0)
(-2.01874e-05 -1.31482e-05 0)
(-6.60856e-05 0.00102101 0)
(-0.000451269 0.00322968 0)
(-0.00129381 0.00552348 0)
(-0.00251372 0.00783834 0)
(-0.00406695 0.0101239 0)
(-0.00592773 0.0123391 0)
(-0.00806932 0.0144516 0)
(-0.0104651 0.0164366 0)
(-0.0130897 0.0182761 0)
(-0.0159188 0.0199574 0)
(-0.0189291 0.0214727 0)
(-0.022098 0.0228176 0)
(-0.0254037 0.0239909 0)
(-0.0288252 0.0249931 0)
(-0.032342 0.0258266 0)
(-0.0359345 0.0264947 0)
(-0.0395832 0.0270012 0)
(-0.0432697 0.0273501 0)
(-0.0469754 0.0275454 0)
(-0.0506826 0.0275909 0)
(-0.0543737 0.0274899 0)
(-0.0580314 0.0272454 0)
(-0.0616386 0.02686 0)
(-0.0651785 0.0263358 0)
(-0.0686345 0.0256745 0)
(-0.07199 0.024878 0)
(-0.0752287 0.0239475 0)
(-0.0783344 0.0228849 0)
(-0.0812912 0.0216918 0)
(-0.0840834 0.0203704 0)
(-0.0866956 0.0189234 0)
(-0.0891128 0.0173541 0)
(-0.0913204 0.0156667 0)
(-0.0933044 0.0138662 0)
(-0.0950515 0.0119589 0)
(-0.0965491 0.00995181 0)
(-0.0977856 0.00785358 0)
(-0.0987503 0.0056739 0)
(-0.0994337 0.00342384 0)
(-0.0998275 0.00111575 0)
(-0.0999251 -0.00123671 0)
(-0.0997213 -0.00361865 0)
(-0.0992124 -0.006014 0)
(-0.0983969 -0.00840559 0)
(-0.0972751 -0.0107753 0)
(-0.0958492 -0.0131042 0)
(-0.0941239 -0.0153729 0)
(-0.0921058 -0.0175612 0)
(-0.0898043 -0.0196491 0)
(-0.0872306 -0.0216164 0)
(-0.0843989 -0.0234435 0)
(-0.0813252 -0.025111 0)
(-0.0780284 -0.0266009 0)
(-0.0745293 -0.027896 0)
(-0.070851 -0.0289809 0)
(-0.0670188 -0.0298419 0)