/*--------------------------------*- C++ -*----------------------------------*\
  =========                 |
  \\      /  F ield         | OpenFOAM: The Open Source CFD Toolbox
   \\    /   O peration     | Website:  https://openfoam.org
    \\  /    A nd           | Version:  7
     \\/     M anipulation  |
\*---------------------------------------------------------------------------*/
FoamFile
{
    version     2.0;
    format      ascii;
    class       volScalarField;
    location    "2.35";
    object      p;
}
// * * * * * * * * * * * * * * * * * * * * * * * * * * * * * * * * * * * * * //

dimensions      [0 2 -2 0 0 0 0];

internalField   nonuniform List<scalar> 
6400
(
1.68252e-06
-4.00952e-07
-6.44245e-05
-0.000186947
-0.000352877
-0.000548818
-0.000763098
-0.000985844
-0.00120897
-0.00142601
-0.00163191
-0.0018227
-0.00199539
-0.0021477
-0.00227794
-0.00238489
-0.00246765
-0.00252562
-0.00255838
-0.00256563
-0.00254719
-0.00250295
-0.00243284
-0.00233685
-0.00221501
-0.00206739
-0.00189413
-0.00169545
-0.00147166
-0.00122319
-0.000950605
-0.000654634
-0.000336189
3.61779e-06
0.000363452
0.000741743
0.00113667
0.00154617
0.00196791
0.00239931
0.00283754
0.00327956
0.00372211
0.00416176
0.00459492
0.00501793
0.00542704
0.00581851
0.00618865
0.00653388
0.00685078
0.00713615
0.00738711
0.00760111
0.00777601
0.00791013
0.0080023
0.0080519
0.00805888
0.00802381
0.00794784
0.0078328
0.00768108
0.00749573
0.00728036
0.00703915
0.00677684
0.00649867
0.00621035
0.00591804
0.00562836
0.00534828
0.00508514
0.0048466
0.00464052
0.0044746
0.00435578
0.00428918
0.00427674
0.00430565
5.84711e-06
2.85618e-06
-5.378e-05
-0.00015764
-0.000296585
-0.000461127
-0.000642301
-0.000832206
-0.00102399
-0.00121195
-0.00139143
-0.00155871
-0.00171083
-0.00184549
-0.00196091
-0.00205575
-0.00212898
-0.00217987
-0.00220785
-0.00221252
-0.00219361
-0.00215091
-0.00208431
-0.00199374
-0.00187918
-0.0017407
-0.00157842
-0.00139256
-0.00118341
-0.000951408
-0.000697103
-0.000421207
-0.000124597
0.000191659
0.000526292
0.000877816
0.00124452
0.00162446
0.00201546
0.00241513
0.00282084
0.00322977
0.00363892
0.00404512
0.00444511
0.0048355
0.00521288
0.00557385
0.00591503
0.00623319
0.00652522
0.00678825
0.00701969
0.00721725
0.00737906
0.00750363
0.00758996
0.00763757
0.00764648
0.00761729
0.00755114
0.00744976
0.00731543
0.00715099
0.00695981
0.00674576
0.0065132
0.00626693
0.00601217
0.00575447
0.00549976
0.00525419
0.00502412
0.00481601
0.00463625
0.00449087
0.00438476
0.00432142
0.00430539
0.00433449
7.05143e-05
5.94793e-05
2.35225e-06
-9.37031e-05
-0.000218674
-0.000365052
-0.00052577
-0.000694264
-0.000864741
-0.00103225
-0.00119266
-0.00134255
-0.00147917
-0.00160031
-0.00170423
-0.00178957
-0.00185529
-0.00190058
-0.00192483
-0.00192759
-0.0019085
-0.00186733
-0.0018039
-0.00171811
-0.00160991
-0.00147935
-0.00132652
-0.0011516
-0.000954892
-0.000736785
-0.000497809
-0.000238634
3.99046e-05
0.000336798
0.000650845
0.000980643
0.00132458
0.00168083
0.00204734
0.00242187
0.00280196
0.00318497
0.00356808
0.00394836
0.00432272
0.00468804
0.00504113
0.00537881
0.00569797
0.00599558
0.00626878
0.00651492
0.0067316
0.00691673
0.00706859
0.00718583
0.00726758
0.00731343
0.00732345
0.00729824
0.00723894
0.0071472
0.00702518
0.00687559
0.00670159
0.00650682
0.00629534
0.00607159
0.0058404
0.00560685
0.00537629
0.00515427
0.00494639
0.00475829
0.00459544
0.00446293
0.00436484
0.00430443
0.00428895
0.00432256
0.000194402
0.000163822
9.74081e-05
3.60019e-07
-0.000120209
-0.000258065
-0.000407357
-0.000562651
-0.000719083
-0.000872429
-0.00101909
-0.00115607
-0.00128089
-0.00139154
-0.0014864
-0.00156419
-0.00162391
-0.00166477
-0.00168614
-0.00168756
-0.00166865
-0.00162914
-0.00156882
-0.00148757
-0.00138531
-0.00126204
-0.00111783
-0.000952831
-0.000767293
-0.000561576
-0.00033616
-9.16659e-05
0.000171131
0.000451287
0.000747679
0.00105899
0.0013837
0.00172009
0.00206624
0.00242002
0.0027791
0.00314101
0.00350308
0.00386252
0.00421643
0.00456184
0.00489574
0.00521513
0.00551705
0.00579865
0.00605722
0.00629025
0.00649548
0.00667095
0.00681504
0.0069265
0.00700451
0.00704871
0.00705921
0.0070366
0.00698198
0.00689695
0.00678359
0.00664447
0.0064826
0.00630141
0.00610473
0.00589673
0.00568188
0.00546491
0.0052507
0.0050443
0.00485078
0.00467515
0.00452231
0.00439682
0.00430246
0.00424261
0.00422561
0.00425771
0.000363867
0.000304503
0.000221948
0.000118008
-3.98233e-06
-0.000138913
-0.000281946
-0.000428699
-0.000575201
-0.000717939
-0.000853889
-0.000980491
-0.00109561
-0.00119749
-0.0012847
-0.00135609
-0.00141073
-0.00144789
-0.00146699
-0.00146754
-0.00144919
-0.00141165
-0.00135468
-0.00127813
-0.0011819
-0.00106594
-0.000930291
-0.000775056
-0.000600439
-0.000406746
-0.000194401
3.60398e-05
0.000283871
0.000548227
0.000828068
0.00112217
0.00142911
0.00174727
0.00207486
0.00240985
0.00275005
0.00309312
0.00343651
0.00377758
0.00411357
0.00444165
0.00475893
0.00506256
0.0053497
0.00561762
0.00586374
0.00608564
0.00628117
0.00644845
0.00658592
0.0066924
0.00676712
0.00680973
0.00682035
0.00679956
0.00674842
0.00666847
0.00656171
0.0064306
0.00627801
0.0061072
0.00592179
0.00572569
0.00552308
0.00531835
0.00511602
0.00492068
0.00473694
0.00456934
0.00442227
0.00429987
0.00420568
0.00414305
0.00411986
0.0041421
0.00056649
0.000472571
0.000368811
0.00025329
0.000125159
-1.14667e-05
-0.00015261
-0.000294854
-0.000435065
-0.000570425
-0.000698479
-0.000817133
-0.000924622
-0.00101948
-0.0011005
-0.0011667
-0.00121728
-0.00125159
-0.00126909
-0.00126935
-0.00125202
-0.0012168
-0.00116346
-0.0010918
-0.00100171
-0.000893085
-0.000765925
-0.000620288
-0.000456316
-0.000274253
-7.44542e-05
0.000142597
0.000376277
0.000625803
0.000890226
0.00116842
0.00145906
0.00176064
0.00207146
0.00238963
0.00271306
0.00303952
0.00336658
0.00369172
0.00401228
0.00432554
0.00462873
0.00491908
0.00519385
0.0054504
0.00568622
0.00589896
0.00608653
0.0062471
0.00637914
0.00648151
0.00655345
0.00659461
0.00660511
0.00658549
0.00653679
0.00646048
0.00635848
0.00623315
0.00608724
0.00592386
0.00574644
0.00555869
0.00536454
0.00516807
0.00497348
0.00478501
0.00460687
0.00444318
0.00429792
0.00417485
0.00407728
0.00400841
0.00397459
0.00398038
0.000791251
0.00065942
0.000531031
0.000400332
0.000262277
0.000120142
-2.28211e-05
-0.000164063
-0.000301225
-0.000432148
-0.000554936
-0.000667959
-0.000769841
-0.000859427
-0.000935761
-0.000998053
-0.00104565
-0.00107802
-0.00109469
-0.0010953
-0.00107951
-0.00104704
-0.000997634
-0.000931099
-0.000847265
-0.000746011
-0.000627273
-0.000491053
-0.000337429
-0.000166573
2.12364e-05
0.000225599
0.000445977
0.000681682
0.00093186
0.00119548
0.00147133
0.001758
0.00205389
0.00235721
0.00266599
0.00297808
0.00329117
0.0036028
0.00391043
0.0042114
0.00450302
0.00478258
0.00504741
0.00529491
0.0055226
0.00572819
0.00590958
0.00606498
0.00619286
0.00629208
0.00636186
0.00640184
0.00641211
0.00639319
0.00634605
0.0062721
0.00617321
0.00605164
0.00591003
0.00575135
0.0055789
0.00539619
0.00520694
0.00501501
0.00482432
0.0046388
0.00446234
0.00429871
0.00415155
0.00402426
0.00391995
0.0038416
0.0037935
0.0037782
0.00102843
0.000857035
0.000701792
0.000553328
0.000402512
0.000251919
0.000104191
-3.89057e-05
-0.000175725
-0.000304722
-0.000424536
-0.000533998
-0.000632118
-0.000718064
-0.000791145
-0.00085078
-0.000896487
-0.000927851
-0.000944512
-0.000946151
-0.000932477
-0.000903223
-0.000858142
-0.000797008
-0.000719625
-0.000625829
-0.0005155
-0.000388575
-0.000245064
-8.50574e-05
9.12501e-05
0.000283549
0.000491395
0.000714198
0.000951204
0.00120148
0.00146392
0.00173722
0.00201987
0.00231019
0.00260629
0.0029061
0.0032074
0.00350781
0.00380484
0.00409589
0.00437832
0.00464945
0.00490664
0.0051473
0.00536897
0.00556934
0.00574633
0.0058981
0.00602312
0.00612021
0.00618856
0.00622777
0.00623789
0.00621937
0.00617315
0.00610058
0.00600344
0.00588391
0.00574455
0.00558822
0.00541808
0.00523751
0.00505005
0.00485936
0.00466914
0.00448309
0.00430481
0.00413782
0.00398543
0.00385074
0.00373668
0.00364602
0.00358077
0.00354123
0.00126958
0.00105804
0.000874656
0.000706665
0.000541037
0.00037977
0.000224988
7.77511e-05
-6.09437e-05
-0.000190125
-0.000308941
-0.000416664
-0.000512686
-0.000596499
-0.00066768
-0.00072587
-0.00077076
-0.000802073
-0.000819553
-0.00082295
-0.000812019
-0.000786514
-0.000746187
-0.000690798
-0.000620114
-0.000533926
-0.000432057
-0.000314374
-0.000180807
-3.13645e-05
0.000133853
0.00031463
0.000510626
0.00072135
0.000946155
0.00118421
0.00143452
0.00169586
0.00196684
0.00224584
0.00253108
0.00282057
0.00311213
0.00340345
0.00369207
0.00397545
0.00425094
0.00451589
0.00476765
0.00500363
0.00522133
0.00541841
0.00559276
0.00574248
0.005866
0.00596208
0.00602985
0.00606886
0.00607907
0.0060609
0.00601521
0.00594327
0.00584682
0.00572795
0.00558913
0.00543314
0.00526304
0.00508207
0.00489366
0.0047013
0.00450852
0.00431883
0.00413564
0.00396222
0.00380163
0.00365674
0.00353031
0.00342497
0.00334035
0.00327458
0.00150737
0.00125575
0.00104362
0.000854988
0.000673121
0.000499548
0.00033596
0.00018278
4.04067e-05
-9.07207e-05
-0.000210227
-0.000317809
-0.000413227
-0.000496291
-0.000566843
-0.000624749
-0.000669878
-0.000702094
-0.000721246
-0.00072716
-0.00071964
-0.00069846
-0.000663377
-0.00061413
-0.000550454
-0.000472088
-0.000378793
-0.000270363
-0.000146644
-7.55181e-06
0.000146909
0.000316628
0.000501367
0.000700745
0.000914222
0.00114108
0.0013804
0.0016311
0.00189184
0.00216112
0.00243721
0.00271818
0.00300193
0.00328618
0.0035685
0.00384634
0.00411708
0.00437803
0.00462653
0.00485993
0.0050757
0.00527144
0.00544495
0.00559427
0.00571775
0.00581406
0.00588225
0.00592179
0.00593256
0.0059149
0.00586958
0.00579783
0.00570128
0.00558197
0.0054423
0.00528497
0.00511294
0.00492939
0.00473762
0.00454103
0.00434301
0.00414693
0.00395604
0.00377345
0.00360204
0.00344445
0.0033034
0.00318137
0.00307575
0.00298248
0.00173534
0.00144413
0.0012031
0.000993198
0.000794161
0.000607132
0.000433434
0.000272912
0.000125416
-9.10963e-06
-0.000130737
-0.000239567
-0.000335713
-0.00041929
-0.000490402
-0.000549133
-0.000595528
-0.000629594
-0.000651284
-0.000660501
-0.000657095
-0.000640865
-0.000611566
-0.000568919
-0.00051262
-0.000442356
-0.000357819
-0.000258725
-0.000144832
-1.59571e-05
0.000127998
0.00028703
0.000461014
0.00064968
0.000852599
0.00106916
0.00129856
0.00153979
0.00179163
0.00205265
0.00232118
0.00259536
0.00287312
0.00315221
0.00343022
0.0037046
0.00397269
0.00423179
0.00447916
0.0047121
0.004928
0.00512438
0.00529892
0.00544959
0.0055746
0.00567253
0.00574231
0.00578332
0.00579532
0.00577856
0.00573373
0.00566196
0.00556483
0.00544428
0.00530266
0.00514261
0.00496702
0.004779
0.00458179
0.00437871
0.00417307
0.00396814
0.00376708
0.00357288
0.00338829
0.00321581
0.00305816
0.00291779
0.00278988
0.00266836
0.0019477
0.00161766
0.0013479
0.00111646
0.000899706
0.000698454
0.00051371
0.00034479
0.000191033
5.19259e-05
-7.30253e-05
-0.000184302
-0.000282356
-0.000367592
-0.000440369
-0.000500977
-0.000549637
-0.000586489
-0.000611592
-0.000624919
-0.000626367
-0.000615753
-0.000592832
-0.0005573
-0.000508813
-0.000446999
-0.00037148
-0.000281886
-0.00017788
-5.91777e-05
7.44286e-05
0.00022305
0.000386678
0.000565158
0.000758178
0.000965239
0.00118565
0.00141849
0.00166264
0.00191673
0.00217918
0.00244817
0.00272167
0.00299744
0.00327306
0.00354598
0.00381349
0.00407284
0.00432121
0.00455583
0.00477396
0.00497301
0.00515057
0.00530443
0.00543269
0.0055338
0.00560654
0.00565016
0.0056643
0.0056491
0.00560513
0.00553343
0.0054355
0.00531321
0.00516885
0.00500499
0.0048245
0.00463044
0.004426
0.00421446
0.0039991
0.00378314
0.00356968
0.00336168
0.0031618
0.00297247
0.00279649
0.00263635
0.00248514
0.00233484
0.00213919
0.00177123
0.00147315
0.00122017
0.000985457
0.000769521
0.000573095
0.000395001
0.000234106
8.94641e-05
-3.98143e-05
-0.00015457
-0.000255574
-0.000343511
-0.000418977
-0.000482464
-0.000534354
-0.000574918
-0.000604312
-0.000622577
-0.00062965
-0.000625365
-0.000609468
-0.000581629
-0.000541456
-0.000488517
-0.000422355
-0.00034251
-0.000248546
-0.000140069
-1.67565e-05
0.000121622
0.00027518
0.000443887
0.000627548
0.000825783
0.00103801
0.00126341
0.00150095
0.00174936
0.00200709
0.00227239
0.00254325
0.00281744
0.00309253
0.00336593
0.0036349
0.00389659
0.00414811
0.00438656
0.00460909
0.00481297
0.00499561
0.00515467
0.00528807
0.0053941
0.00547138
0.00551899
0.00553643
0.00552369
0.00548123
0.00540999
0.00531134
0.00518711
0.0050395
0.00487107
0.00468462
0.00448321
0.00427002
0.00404832
0.00382138
0.00359244
0.00336461
0.00314082
0.00292375
0.00271581
0.00251993
0.00233875
0.00216334
0.00198385
0.00230495
0.0019001
0.00157426
0.00129997
0.00104727
0.00081643
0.000607923
0.000420112
0.000251415
0.00010048
-3.39588e-05
-0.000153081
-0.000257958
-0.000349542
-0.000428651
-0.000495966
-0.000552024
-0.000597215
-0.000631785
-0.000655837
-0.00066934
-0.000672139
-0.000663969
-0.000644465
-0.000613184
-0.000569624
-0.000513246
-0.000443495
-0.000359827
-0.000261736
-0.000148775
-2.05884e-05
0.000123064
0.000282282
0.000456996
0.000646947
0.000851665
0.00107045
0.00130235
0.00154616
0.00180043
0.00206343
0.00233318
0.00260745
0.0028838
0.0031596
0.00343203
0.00369816
0.003955
0.0041995
0.00442867
0.00463961
0.00482955
0.00499597
0.0051366
0.0052495
0.00533314
0.00538637
0.00540854
0.00539947
0.00535947
0.00528935
0.00519038
0.00506429
0.00491325
0.00473974
0.00454657
0.00433678
0.00411358
0.00388026
0.00364014
0.00339649
0.00315248
0.0029111
0.0026751
0.00244692
0.00222971
0.0020263
0.00182585
0.00161673
0.00244045
0.00199981
0.0016469
0.00135166
0.00108114
0.000835372
0.000614579
0.000416693
0.000239706
8.18787e-05
-5.841e-05
-0.000182662
-0.000292235
-0.000388327
-0.00047197
-0.000544022
-0.00060516
-0.000655886
-0.000696525
-0.000727234
-0.000748009
-0.000758698
-0.000759015
-0.000748557
-0.000726822
-0.000693234
-0.000647164
-0.000587955
-0.00051495
-0.000427521
-0.000325094
-0.00020718
-7.34023e-05
7.64719e-05
0.000242508
0.000424574
0.000622321
0.000835158
0.00106224
0.00130244
0.00155436
0.00181634
0.00208641
0.00236235
0.00264169
0.00292174
0.00319963
0.00347231
0.00373666
0.0039895
0.00422765
0.00444802
0.00464765
0.00482377
0.00497391
0.00509589
0.00518794
0.00524872
0.00527735
0.00527345
0.00523716
0.00516915
0.00507056
0.00494304
0.00478865
0.00460988
0.0044095
0.00419059
0.00395637
0.00371021
0.0034555
0.0031956
0.00293379
0.00267318
0.00241661
0.00216666
0.00192673
0.00169994
0.00147358
0.00123429
0.00254141
0.00206615
0.00168696
0.00137126
0.00108323
0.000822638
0.000589507
0.000381336
0.000195712
3.05262e-05
-0.000116184
-0.000246228
-0.000361231
-0.000462627
-0.000551644
-0.000629303
-0.000696416
-0.000753581
-0.000801195
-0.000839459
-0.000868387
-0.000887822
-0.000897452
-0.000896825
-0.000885377
-0.000862448
-0.000827313
-0.000779207
-0.000717353
-0.000640993
-0.000549419
-0.000442
-0.000318218
-0.000177694
-2.02236e-05
0.000154199
0.000345352
0.000552765
0.000775693
0.00101311
0.00126368
0.00152579
0.00179751
0.00207661
0.0023606
0.00264674
0.00293205
0.00321341
0.00348752
0.00375106
0.00400064
0.00423295
0.0044448
0.00463319
0.00479535
0.00492887
0.00503169
0.00510223
0.00513935
0.00514246
0.00511148
0.00504691
0.00494974
0.00482152
0.00466423
0.0044803
0.00427253
0.00404399
0.003798
0.003538
0.00326749
0.00298999
0.00270891
0.00242753
0.00214887
0.00187567
0.00161168
0.00136032
0.00110709
0.000836906
0.00260378
0.00209512
0.00169051
0.00135494
0.00104979
0.000774626
0.000529223
0.000310679
0.000116185
-5.67235e-05
-0.000210334
-0.000346746
-0.000467845
-0.000575283
-0.000670473
-0.000754588
-0.000828557
-0.000893069
-0.000948582
-0.00099533
-0.00103334
-0.00106243
-0.00108227
-0.00109234
-0.00109201
-0.00108053
-0.00105707
-0.00102075
-0.000970673
-0.000905932
-0.00082568
-0.000729137
-0.000615632
-0.000484635
-0.00033579
-0.000168944
1.58197e-05
0.000218157
0.000437441
0.000672741
0.00092281
0.00118608
0.00146065
0.00174431
0.00203454
0.00232853
0.00262324
0.00291539
0.00320157
0.00347824
0.00374181
0.00398873
0.00421555
0.00441896
0.00459593
0.00474372
0.00485998
0.00494282
0.00499082
0.00500312
0.00497942
0.00491998
0.00482564
0.00469781
0.00453838
0.00434974
0.00413467
0.00389631
0.00363803
0.00336342
0.00307611
0.0027798
0.00247811
0.00217454
0.00187231
0.00157442
0.00128499
0.00100784
0.000726663
0.000424631
0.00262368
0.0020829
0.0016538
0.00129902
0.00097726
0.000687845
0.000430331
0.000201415
-2.09273e-06
-0.000183003
-0.000343916
-0.000487212
-0.000615018
-0.000729193
-0.000831326
-0.000922726
-0.00100443
-0.00107721
-0.00114157
-0.00119777
-0.00124583
-0.00128556
-0.00131657
-0.0013383
-0.00135002
-0.00135089
-0.00133998
-0.00131627
-0.00127872
-0.00122631
-0.00115801
-0.0010729
-0.000970132
-0.000849024
-0.000709053
-0.000549909
-0.000371525
-0.000174102
4.18586e-05
0.000275537
0.000525778
0.000791078
0.00106958
0.00135909
0.00165705
0.00196062
0.00226665
0.00257175
0.00287233
0.00316465
0.0034449
0.00370926
0.00395397
0.00417543
0.00437024
0.00453535
0.00466804
0.00476608
0.00482773
0.0048518
0.00483772
0.00478551
0.0046958
0.00456982
0.00440938
0.0042168
0.00399487
0.00374676
0.00347597
0.00318618
0.00288127
0.00256511
0.00224158
0.00191447
0.00158726
0.00126322
0.000946942
0.000642688
0.000332312
-2.76439e-06
0.00259742
0.00202585
0.00157325
0.00119999
0.000862184
0.000558919
0.000289528
5.03171e-05
-0.000162281
-0.000351409
-0.000519971
-0.000670614
-0.000805698
-0.000927279
-0.00103711
-0.00113661
-0.00122694
-0.00130892
-0.0013831
-0.00144976
-0.00150891
-0.00156033
-0.00160357
-0.001638
-0.00166281
-0.00167706
-0.00167968
-0.00166955
-0.00164547
-0.00160625
-0.00155072
-0.00147778
-0.00138642
-0.00127576
-0.00114512
-0.000994021
-0.000822217
-0.00062976
-0.000417009
-0.000184656
6.6248e-05
0.000334281
0.000617641
0.000914149
0.00122125
0.00153604
0.00185529
0.00217547
0.00249282
0.0028034
0.00310314
0.00338792
0.00365366
0.00389641
0.00411242
0.0042982
0.00445068
0.00456721
0.00464567
0.00468452
0.00468285
0.00464038
0.00455751
0.00443528
0.00427536
0.00408
0.00385197
0.00359452
0.00331122
0.00300597
0.00268282
0.00234593
0.00199946
0.00164753
0.00129393
0.000942289
0.000597688
0.000264897
-7.61019e-05
-0.000445707
0.00252146
0.00192048
0.00144543
0.00105449
0.000701256
0.000384602
0.000103626
-0.000145751
-0.000367462
-0.000564978
-0.000741493
-0.000899914
-0.00104282
-0.00117246
-0.00129072
-0.00139916
-0.00149901
-0.00159115
-0.00167617
-0.00175435
-0.00182568
-0.0018899
-0.00194651
-0.0019948
-0.00203386
-0.00206264
-0.00207995
-0.00208451
-0.00207498
-0.00205002
-0.00200827
-0.00194844
-0.00186936
-0.00176995
-0.00164933
-0.00150684
-0.00134206
-0.00115485
-0.000945425
-0.000714325
-0.000462479
-0.000191208
9.77546e-05
0.000402266
0.000719775
0.00104733
0.00138163
0.00171901
0.00205554
0.00238704
0.00270918
0.00301754
0.00330767
0.00357524
0.00381606
0.00402624
0.00420223
0.00434095
0.00443984
0.00449692
0.00451091
0.00448118
0.00440784
0.0042917
0.00413425
0.00393767
0.0037047
0.00343863
0.00314317
0.00282239
0.00248059
0.00212224
0.00175185
0.00137387
0.000992516
0.00061177
0.000237295
-0.000125589
-0.000498842
-0.000904759
0.00239239
0.00176349
0.0012671
0.000859293
0.000491315
0.000161782
-0.000130442
-0.000389815
-0.000620625
-0.000826663
-0.00101141
-0.00117801
-0.00132927
-0.00146761
-0.00159505
-0.00171326
-0.00182355
-0.00192685
-0.00202376
-0.00211457
-0.00219924
-0.00227747
-0.00234869
-0.0024121
-0.00246669
-0.00251129
-0.00254457
-0.00256512
-0.00257143
-0.00256197
-0.00253521
-0.00248968
-0.00242398
-0.00233685
-0.00222719
-0.00209414
-0.00193707
-0.00175566
-0.00154993
-0.00132026
-0.00106743
-0.000792647
-0.000497543
-0.000184207
0.000144825
0.000486581
0.000837673
0.00119433
0.00155242
0.00190757
0.00225514
0.00259037
0.00290846
0.00320462
0.00347421
0.00371286
0.0039165
0.00408155
0.00420493
0.00428421
0.00431762
0.00430415
0.00424353
0.00413632
0.00398379
0.003788
0.00355164
0.00327806
0.00297109
0.002635
0.00227438
0.00189402
0.00149882
0.00109366
0.000683174
0.00027179
-0.000134204
-0.000528879
-0.000936231
-0.00138056
0.002207
0.00155172
0.00103514
0.000611368
0.000229361
-0.000112506
-0.000415607
-0.000684771
-0.00092464
-0.00113931
-0.00133255
-0.00150773
-0.00166787
-0.00181554
-0.00195291
-0.00208175
-0.00220342
-0.00231891
-0.00242883
-0.00253344
-0.00263269
-0.00272622
-0.00281338
-0.00289328
-0.00296481
-0.00302666
-0.00307738
-0.00311538
-0.003139
-0.0031465
-0.00313618
-0.00310634
-0.00305538
-0.00298182
-0.00288433
-0.00276182
-0.00261345
-0.00243867
-0.0022373
-0.00200952
-0.00175594
-0.00147761
-0.00117607
-0.000853309
-0.000511827
-0.000154604
0.000214914
0.000592839
0.000974884
0.00135641
0.00173252
0.00209808
0.00244787
0.00277665
0.00307928
0.00335083
0.00358669
0.00378267
0.00393514
0.00404109
0.00409824
0.00410509
0.00406097
0.00396608
0.00382145
0.00362895
0.00339123
0.00311166
0.00279419
0.00244333
0.00206396
0.00166123
0.00124048
0.000807062
0.000366087
-7.75158e-05
-0.00051677
-0.00094508
-0.0013886
-0.00187375
0.00196224
0.00128219
0.000746652
0.000307837
-8.74425e-05
-0.000441065
-0.000754643
-0.00103337
-0.00128224
-0.00150565
-0.00170762
-0.00189178
-0.00206132
-0.00221898
-0.00236705
-0.00250739
-0.00264142
-0.00277017
-0.00289424
-0.0030139
-0.00312904
-0.00323924
-0.00334378
-0.00344167
-0.00353168
-0.00361239
-0.00368216
-0.00373927
-0.00378185
-0.003808
-0.00381578
-0.00380329
-0.0037687
-0.00371027
-0.00362645
-0.00351589
-0.0033775
-0.0032105
-0.00301445
-0.00278933
-0.00253554
-0.00225395
-0.00194595
-0.00161342
-0.00125879
-0.000885023
-0.000495605
-9.45209e-05
0.00031378
0.000724432
0.00113222
0.00153167
0.0019171
0.00228279
0.00262304
0.00293231
0.00320537
0.00343738
0.00362405
0.00376173
0.00384753
0.00387939
0.00385615
0.00377758
0.0036444
0.00345827
0.00322173
0.00293815
0.00261162
0.00224686
0.00184908
0.00142385
0.000976952
0.000514284
4.14892e-05
-0.000435953
-0.000910307
-0.00137425
-0.00185624
-0.00238495
0.00165524
0.000952112
0.000398898
-5.3987e-05
-0.00046175
-0.000826521
-0.00115016
-0.00143822
-0.00169601
-0.00192825
-0.00213921
-0.00233273
-0.00251221
-0.00268052
-0.00284007
-0.00299282
-0.00314022
-0.00328333
-0.00342278
-0.00355878
-0.00369119
-0.00381953
-0.003943
-0.0040605
-0.00417068
-0.00427196
-0.00436259
-0.00444064
-0.00450407
-0.00455076
-0.00457857
-0.00458535
-0.00456901
-0.00452759
-0.00445924
-0.00436236
-0.00423557
-0.00407782
-0.00388841
-0.00366707
-0.00341394
-0.0031297
-0.00281553
-0.00247318
-0.00210498
-0.00171384
-0.00130325
-0.000877279
-0.000440518
1.94381e-06
0.000444592
0.00088156
0.00130673
0.00171383
0.00209657
0.00244876
0.00276445
0.00303808
0.00326463
0.0034397
0.00355971
0.00362193
0.00362461
0.00356703
0.00344951
0.00327343
0.00304118
0.00275611
0.00242242
0.00204504
0.00162952
0.00118188
0.000708425
0.000215618
-0.000290297
-0.000803234
-0.00131462
-0.00181635
-0.00233933
-0.00291469
0.00128332
0.000558904
-1.0652e-05
-0.000476596
-0.000896021
-0.00127131
-0.00160457
-0.00190171
-0.00216836
-0.00240951
-0.0026297
-0.002833
-0.00302295
-0.00320259
-0.00337444
-0.00354051
-0.00370233
-0.00386097
-0.00401704
-0.00417075
-0.0043219
-0.00446994
-0.00461398
-0.00475282
-0.00488498
-0.00500875
-0.0051222
-0.00522321
-0.00530957
-0.00537894
-0.00542893
-0.00545716
-0.00546128
-0.00543902
-0.00538828
-0.00530714
-0.00519392
-0.00504727
-0.00486619
-0.0046501
-0.00439889
-0.00411297
-0.0037933
-0.00344143
-0.00305956
-0.0026505
-0.00221772
-0.00176534
-0.00129808
-0.000821216
-0.000340574
0.000137599
0.000606707
0.00105992
0.0014903
0.00189094
0.00225514
0.0025765
0.00284918
0.00306794
0.00322838
0.00332701
0.0033614
0.00333021
0.00323328
0.00307163
0.00284744
0.00256398
0.00222552
0.00183725
0.00140505
0.000935394
0.00043517
-8.85363e-05
-0.000628824
-0.00117893
-0.00172938
-0.00227119
-0.00283793
-0.00346333
0.000844022
0.000100188
-0.000484315
-0.000962271
-0.00139251
-0.00177767
-0.0021201
-0.00242605
-0.00270148
-0.00295165
-0.00318133
-0.00339479
-0.00359577
-0.00378743
-0.0039724
-0.00415275
-0.00433007
-0.00450543
-0.00467945
-0.00485229
-0.00502371
-0.0051931
-0.00535946
-0.00552148
-0.00567758
-0.00582587
-0.00596426
-0.00609047
-0.00620205
-0.00629645
-0.00637104
-0.00642318
-0.00645022
-0.00644962
-0.00641894
-0.00635595
-0.00625864
-0.00612532
-0.00595465
-0.00574572
-0.00549809
-0.00521187
-0.00488775
-0.00452705
-0.00413178
-0.00370461
-0.00324894
-0.00276891
-0.00226931
-0.00175562
-0.00123394
-0.000710901
-0.000193585
0.000310589
0.000794002
0.00124898
0.00166796
0.00204367
0.00236931
0.00263871
0.00284653
0.00298839
0.00306105
0.00306244
0.00299182
0.00284973
0.00263808
0.00235999
0.00201979
0.00162286
0.00117545
0.000684519
0.000157563
-0.000397643
-0.00097348
-0.00156245
-0.00215406
-0.00273839
-0.00335187
-0.00403105
0.000335129
-0.000426176
-0.00102418
-0.00151306
-0.00195324
-0.0023476
-0.00269875
-0.00301326
-0.00329738
-0.00355664
-0.00379607
-0.00402012
-0.00423269
-0.00443708
-0.004636
-0.00483162
-0.00502553
-0.00521884
-0.00541215
-0.0056056
-0.0057989
-0.00599135
-0.00618186
-0.00636904
-0.00655113
-0.00672612
-0.00689176
-0.00704555
-0.00718485
-0.00730687
-0.00740872
-0.00748749
-0.00754023
-0.00756407
-0.00755627
-0.00751421
-0.00743553
-0.00731817
-0.0071604
-0.00696094
-0.00671899
-0.00643431
-0.00610725
-0.00573886
-0.00533087
-0.0048858
-0.00440692
-0.00389831
-0.00336484
-0.00281213
-0.00224653
-0.00167505
-0.00110526
-0.000545178
-3.15197e-06
0.000512324
0.000992774
0.00142993
0.00181595
0.00214361
0.00240649
0.0025992
0.00271752
0.00275855
0.0027208
0.00260426
0.00241042
0.00214222
0.00180396
0.00140119
0.000940536
0.000429465
-0.000123886
-0.000710994
-0.00132345
-0.00195294
-0.00258788
-0.00321731
-0.00388075
-0.00461777
-0.00024533
-0.00102208
-0.00163209
-0.00213078
-0.00258
-0.00298289
-0.00334228
-0.00366507
-0.0039578
-0.00422626
-0.00447569
-0.00471074
-0.00493547
-0.00515329
-0.00536702
-0.00557888
-0.00579052
-0.00600304
-0.00621703
-0.00643261
-0.00664943
-0.00686672
-0.00708331
-0.00729767
-0.00750794
-0.00771196
-0.00790727
-0.00809121
-0.00826092
-0.00841335
-0.00854536
-0.00865374
-0.00873524
-0.00878665
-0.00880484
-0.00878686
-0.00872992
-0.00863155
-0.00848962
-0.00830241
-0.00806872
-0.00778787
-0.00745987
-0.00708538
-0.00666586
-0.00620356
-0.00570159
-0.0051639
-0.00459538
-0.00400176
-0.0033896
-0.00276626
-0.0021398
-0.00151885
-0.000912509
-0.000330135
0.000218807
0.000724974
0.00117936
0.00157356
0.00189994
0.00215193
0.00232421
0.00241284
0.00241546
0.00233136
0.0021615
0.00190851
0.00157663
0.00117153
0.000700167
0.000170548
-0.000408509
-0.00102768
-0.00167768
-0.00234932
-0.0030298
-0.00370701
-0.00442383
-0.00522307
-0.000899052
-0.00168916
-0.00230962
-0.00281698
-0.00327433
-0.00368505
-0.00405221
-0.00438299
-0.00468425
-0.00496199
-0.00522167
-0.00546814
-0.00570559
-0.00593756
-0.00616695
-0.00639604
-0.00662653
-0.00685952
-0.0070956
-0.00733486
-0.00757688
-0.00782085
-0.00806549
-0.00830917
-0.00854989
-0.00878534
-0.0090129
-0.00922971
-0.00943267
-0.0096185
-0.00978379
-0.00992501
-0.0100386
-0.010121
-0.0101687
-0.0101782
-0.0101465
-0.0100706
-0.0099479
-0.00977618
-0.00955379
-0.0092796
-0.00895315
-0.00857472
-0.00814537
-0.00766704
-0.00714258
-0.0065758
-0.0059715
-0.00533546
-0.00467443
-0.00399608
-0.00330892
-0.00262222
-0.00194581
-0.00128998
-0.000665239
-8.20993e-05
0.000449176
0.000918836
0.00131791
0.00163847
0.00187389
0.00201906
0.00207055
0.00202677
0.00188803
0.00165652
0.0013363
0.000933118
0.00045424
-9.1795e-05
-0.00069545
-0.00134653
-0.00203483
-0.00275016
-0.0034784
-0.00420619
-0.00498002
-0.00584619
-0.00162744
-0.00242875
-0.00305809
-0.00357295
-0.00403749
-0.00445533
-0.00482977
-0.00516827
-0.00547795
-0.00576505
-0.00603523
-0.00629351
-0.00654422
-0.00679103
-0.00703692
-0.00728423
-0.00753468
-0.00778941
-0.00804899
-0.00831348
-0.00858242
-0.00885491
-0.00912962
-0.00940479
-0.0096783
-0.00994769
-0.0102102
-0.0104627
-0.0107019
-0.0109243
-0.0111262
-0.0113037
-0.011453
-0.01157
-0.0116509
-0.0116919
-0.0116893
-0.0116397
-0.01154
-0.0113875
-0.01118
-0.0109158
-0.010594
-0.0102143
-0.00977738
-0.00928479
-0.00873903
-0.00814368
-0.00750339
-0.00682392
-0.00611214
-0.00537597
-0.00462437
-0.00386718
-0.00311502
-0.00237912
-0.00167107
-0.00100266
-0.000385515
0.000169149
0.000650838
0.0010501
0.00135881
0.00157046
0.00168036
0.00168587
0.00158643
0.00138367
0.00108134
0.000685178
0.000202718
-0.000356981
-0.000983632
-0.00166612
-0.00239322
-0.00315366
-0.00393188
-0.00471314
-0.00554778
-0.00648591
-0.0024316
-0.00324191
-0.00387851
-0.00439969
-0.00487047
-0.00529471
-0.00567593
-0.00602186
-0.00633984
-0.00663636
-0.00691726
-0.00718773
-0.00745224
-0.00771455
-0.00797774
-0.00824422
-0.00851573
-0.00879344
-0.0090779
-0.00936915
-0.0096667
-0.00996958
-0.0102764
-0.0105852
-0.0108939
-0.0111998
-0.0114999
-0.0117911
-0.0120697
-0.0123319
-0.0125739
-0.0127914
-0.0129801
-0.0131357
-0.013254
-0.0133306
-0.0133613
-0.0133423
-0.0132698
-0.0131407
-0.0129521
-0.0127017
-0.0123881
-0.0120105
-0.011569
-0.0110645
-0.0104993
-0.00987649
-0.00920061
-0.00847727
-0.00771338
-0.00691708
-0.00609766
-0.00526556
-0.00443214
-0.00360958
-0.00281065
-0.00204842
-0.00133603
-0.000686278
-0.000111359
0.000377554
0.000770637
0.00105975
0.00123872
0.0013036
0.00125279
0.00108716
0.000809995
0.000426912
-5.43563e-05
-0.000624251
-0.00127172
-0.00198468
-0.00275079
-0.00355761
-0.00438796
-0.00522562
-0.00612508
-0.00714048
-0.00331229
-0.00412936
-0.0047716
-0.00529789
-0.00577396
-0.00620387
-0.00659136
-0.0069444
-0.00727056
-0.00757654
-0.00786835
-0.00815134
-0.00843012
-0.00870856
-0.00898982
-0.00927636
-0.00956997
-0.00987183
-0.0101825
-0.010502
-0.0108298
-0.0111649
-0.0115058
-0.0118506
-0.0121968
-0.0125417
-0.0128823
-0.0132151
-0.0135362
-0.0138418
-0.0141274
-0.0143886
-0.0146208
-0.0148192
-0.0149791
-0.0150957
-0.0151643
-0.0151805
-0.0151399
-0.0150388
-0.0148736
-0.0146415
-0.0143404
-0.0139687
-0.013526
-0.0130127
-0.0124305
-0.0117822