/*--------------------------------*- C++ -*----------------------------------*\
  =========                 |
  \\      /  F ield         | OpenFOAM: The Open Source CFD Toolbox
   \\    /   O peration     | Website:  https://openfoam.org
    \\  /    A nd           | Version:  7
     \\/     M anipulation  |
\*---------------------------------------------------------------------------*/
FoamFile
{
    version     2.0;
    format      ascii;
    class       surfaceScalarField;
    location    "2.75";
    object      phi;
}
// * * * * * * * * * * * * * * * * * * * * * * * * * * * * * * * * * * * * * //

dimensions      [0 3 -1 0 0 0 0];

internalField   nonuniform List<scalar> 
12640
(
3.13778e-10
-3.24492e-10
9.54595e-10
-6.40855e-10
1.55785e-09
-6.03198e-10
1.91601e-09
-3.5816e-10
1.93296e-09
-1.69511e-11
1.5752e-09
3.57752e-10
8.44531e-10
7.30663e-10
-2.37533e-10
1.08206e-09
-1.64141e-09
1.40389e-09
-3.33493e-09
1.69352e-09
-5.28673e-09
1.9518e-09
-7.46832e-09
2.18159e-09
-9.85494e-09
2.38661e-09
-1.24257e-08
2.57073e-09
-1.51632e-08
2.7375e-09
-1.80531e-08
2.88988e-09
-2.10831e-08
3.03005e-09
-2.42425e-08
3.15936e-09
-2.75208e-08
3.27834e-09
-3.09075e-08
3.38671e-09
-3.4391e-08
3.48347e-09
-3.79581e-08
3.56704e-09
-4.15934e-08
3.6353e-09
-4.52791e-08
3.68576e-09
-4.89948e-08
3.71566e-09
-5.27169e-08
3.72207e-09
-5.64189e-08
3.70201e-09
-6.00715e-08
3.65254e-09
-6.36423e-08
3.57088e-09
-6.70969e-08
3.4545e-09
-7.03981e-08
3.3012e-09
-7.35073e-08
3.1092e-09
-7.63845e-08
2.87726e-09
-7.89893e-08
2.60472e-09
-8.12809e-08
2.29163e-09
-8.32197e-08
1.93877e-09
-8.47674e-08
1.54776e-09
-8.58885e-08
1.12107e-09
-8.65506e-08
6.62079e-10
-8.67257e-08
1.75078e-10
-8.63908e-08
-3.34847e-10
-8.55293e-08
-8.6156e-10
-8.4131e-08
-1.39826e-09
-8.21936e-08
-1.93742e-09
-7.97226e-08
-2.47093e-09
-7.67324e-08
-2.99025e-09
-7.32458e-08
-3.4866e-09
-6.92946e-08
-3.95115e-09
-6.49194e-08
-4.37523e-09
-6.01688e-08
-4.75061e-09
-5.50991e-08
-5.06967e-09
-4.97734e-08
-5.32568e-09
-4.42604e-08
-5.51298e-09
-3.86332e-08
-5.6272e-09
-3.29678e-08
-5.66541e-09
-2.73415e-08
-5.62625e-09
-2.18315e-08
-5.50998e-09
-1.6513e-08
-5.31851e-09
-1.14576e-08
-5.05539e-09
-6.73192e-09
-4.72568e-09
-2.3961e-09
-4.33582e-09
1.49741e-09
-3.89351e-09
4.90482e-09
-3.40741e-09
7.79175e-09
-2.88692e-09
1.01339e-08
-2.3421e-09
1.19172e-08
-1.78331e-09
1.31383e-08
-1.2211e-09
1.38044e-08
-6.66174e-10
1.39338e-08
-1.29398e-10
1.35558e-08
3.78069e-10
1.27114e-08
8.44391e-10
1.14549e-08
1.25648e-09
9.85576e-09
1.59911e-09
8.00208e-09
1.85366e-09
6.00569e-09
1.99638e-09
4.00894e-09
1.99676e-09
2.19164e-09
1.81731e-09
7.77286e-10
1.41437e-09
2.07993e-11
7.56531e-10
2.08573e-11
6.42887e-10
-9.67418e-10
1.60975e-09
-1.60764e-09
2.32164e-09
-1.3151e-09
2.41661e-09
-4.53163e-10
1.68716e-09
7.12489e-10
3.97981e-11
2.00512e-09
-2.54148e-09
3.31195e-09
-6.02817e-09
4.56876e-09
-1.0364e-08
5.73969e-09
-1.54806e-08
6.8101e-09
-2.13068e-08
7.77808e-09
-2.77745e-08
8.64925e-09
-3.4821e-08
9.43312e-09
-4.23908e-08
1.01405e-08
-5.04352e-08
1.07819e-08
-5.89114e-08
1.13661e-08
-6.77809e-08
1.18996e-08
-7.70079e-08
1.23863e-08
-8.65572e-08
1.28276e-08
-9.63924e-08
1.32219e-08
-1.06474e-07
1.35655e-08
-1.1676e-07
1.38525e-08
-1.272e-07
1.40752e-08
-1.37739e-07
1.4225e-08
-1.48315e-07
1.42919e-08
-1.58859e-07
1.42658e-08
-1.69293e-07
1.41364e-08
-1.79534e-07
1.38935e-08
-1.89491e-07
1.35279e-08
-1.99068e-07
1.30311e-08
-2.08163e-07
1.23962e-08
-2.16671e-07
1.16178e-08
-2.24487e-07
1.06926e-08
-2.31501e-07
9.61931e-09
-2.37609e-07
8.39951e-09
-2.42708e-07
7.03731e-09
-2.467e-07
5.53979e-09
-2.49496e-07
3.91711e-09
-2.51016e-07
2.18255e-09
-2.51194e-07
3.52596e-10
-2.49975e-07
-1.55356e-09
-2.47323e-07
-3.51338e-09
-2.4322e-07
-5.50192e-09
-2.37665e-07
-7.49202e-09
-2.30681e-07
-9.45463e-09
-2.22312e-07
-1.13595e-08
-2.12623e-07
-1.31755e-08
-2.01703e-07
-1.48719e-08
-1.89659e-07
-1.64183e-08
-1.76624e-07
-1.77862e-08
-1.62744e-07
-1.89493e-08
-1.48186e-07
-1.98841e-08
-1.33128e-07
-2.05713e-08
-1.17759e-07
-2.09957e-08
-1.02277e-07
-2.11473e-08
-8.68823e-08
-2.10212e-08
-7.1774e-08
-2.06183e-08
-5.71476e-08
-1.9945e-08
-4.31896e-08
-1.90134e-08
-3.00743e-08
-1.7841e-08
-1.79601e-08
-1.645e-08
-6.98651e-09
-1.48671e-08
2.72893e-09
-1.31229e-08
1.10925e-08
-1.12505e-08
1.80363e-08
-9.28587e-09
2.35193e-08
-7.26634e-09
2.75288e-08
-5.23058e-09
3.00808e-08
-3.21817e-09
3.12211e-08
-1.26971e-09
3.10265e-08
5.72747e-10
2.96059e-08
2.26491e-09
2.7104e-08
3.75845e-09
2.37039e-08
4.9992e-09
1.96331e-08
5.92447e-09
1.5169e-08
6.4604e-09
1.06446e-08
6.52116e-09
6.44821e-09
6.0137e-09
3.00997e-09
4.85252e-09
7.53353e-10
3.01302e-09
7.74231e-10
6.16255e-10
-1.58362e-09
1.32418e-09
-2.31557e-09
1.45896e-09
-1.44989e-09
6.05034e-10
4.00752e-10
-1.48583e-09
2.80334e-09
-4.93383e-09
5.45311e-09
-9.76781e-09
8.14594e-09
-1.59542e-08
1.07551e-08
-2.3423e-08
1.32085e-08
-3.20844e-08
1.54715e-08
-4.18415e-08
1.75351e-08
-5.25978e-08
1.94055e-08
-6.42623e-08
2.10977e-08
-7.67515e-08
2.26297e-08
-8.99895e-08
2.40199e-08
-1.03907e-07
2.52837e-08
-1.1844e-07
2.64326e-08
-1.33527e-07
2.7473e-08
-1.49105e-07
2.84062e-08
-1.65112e-07
2.92282e-08
-1.81477e-07
2.99305e-08
-1.98125e-07
3.05007e-08
-2.14972e-07
3.09227e-08
-2.31926e-07
3.11783e-08
-2.48881e-07
3.12474e-08
-2.65725e-07
3.11093e-08
-2.82331e-07
3.07431e-08
-2.98567e-07
3.01288e-08
-3.14287e-07
2.92483e-08
-3.29341e-07
2.80853e-08
-3.43572e-07
2.66268e-08
-3.56818e-07
2.48636e-08
-3.68916e-07
2.27904e-08
-3.79703e-07
2.04071e-08
-3.89022e-07
1.77186e-08
-3.96721e-07
1.47359e-08
-4.02657e-07
1.14756e-08
-4.06701e-07
7.96092e-09
-4.08739e-07
4.22113e-09
-4.08679e-07
2.92162e-10
-4.06447e-07
-3.78523e-09
-4.01997e-07
-7.963e-09
-3.9531e-07
-1.21891e-08
-3.86395e-07
-1.64071e-08
-3.75293e-07
-2.05569e-08
-3.62076e-07
-2.45764e-08
-3.46849e-07
-2.84024e-08
-3.29749e-07
-3.19719e-08
-3.10944e-07
-3.52238e-08
-2.9063e-07
-3.81002e-08
-2.69031e-07
-4.05479e-08
-2.46395e-07
-4.25201e-08
-2.22989e-07
-4.39774e-08
-1.99095e-07
-4.48894e-08
-1.75007e-07
-4.52356e-08
-1.51022e-07
-4.50061e-08
-1.27438e-07
-4.42022e-08
-1.04547e-07
-4.28364e-08
-8.26272e-08
-4.09329e-08
-6.1942e-08
-3.85262e-08
-4.27306e-08
-3.56613e-08
-2.52057e-08
-3.23921e-08
-9.54819e-09
-2.87803e-08
4.09575e-09
-2.48945e-08
1.5618e-08
-2.08082e-08
2.49509e-08
-1.65992e-08
3.20687e-08
-1.23484e-08
3.699e-08
-8.13941e-09
3.97784e-08
-4.05813e-09
4.0545e-08
-1.9386e-10
3.94498e-08
3.36008e-09
3.67051e-08
6.50311e-09
3.25787e-08
9.12561e-09
2.73979e-08
1.11053e-08
2.15529e-08
1.23054e-08
1.54982e-08
1.25759e-08
9.74802e-09
1.17639e-08
4.86079e-09
9.73979e-09
1.41197e-09
6.46179e-09
2.18621e-09
3.64154e-10
-1.94777e-09
4.04531e-10
-2.35597e-09
-5.30252e-10
-5.15115e-10
-2.84931e-09
2.71981e-09
-6.79659e-09
6.75062e-09
-1.24886e-08
1.11452e-08
-1.99486e-08
1.56059e-08
-2.91349e-08
1.99414e-08
-3.99648e-08
2.40384e-08
-5.23324e-08
2.78391e-08
-6.61218e-08
3.13245e-08
-8.12158e-08
3.44995e-08
-9.75014e-08
3.73832e-08
-1.14872e-07
4.00007e-08
-1.3323e-07
4.23772e-08
-1.5248e-07
4.45346e-08
-1.72536e-07
4.64883e-08
-1.93309e-07
4.82463e-08
-2.14712e-07
4.98085e-08
-2.36651e-07
5.1167e-08
-2.59026e-07
5.23063e-08
-2.81731e-07
5.3205e-08
-3.04644e-07
5.38362e-08
-3.27636e-07
5.41697e-08
-3.50561e-07
5.41726e-08
-3.73263e-07
5.38111e-08
-3.95572e-07
5.3052e-08
-4.17306e-07
5.18636e-08
-4.38276e-07
5.02173e-08
-4.58279e-07
4.80887e-08
-4.77111e-07
4.54586e-08
-4.94562e-07
4.23143e-08
-5.10422e-07
3.86504e-08
-5.24484e-07
3.44694e-08
-5.36548e-07
2.97831e-08
-5.46425e-07
2.46123e-08
-5.53937e-07
1.8988e-08
-5.58927e-07
1.29512e-08
-5.61259e-07
6.55289e-09
-5.60822e-07
-1.45028e-10
-5.57533e-07
-7.07428e-09
-5.51342e-07
-1.41535e-08
-5.42235e-07
-2.12966e-08
-5.30232e-07
-2.84101e-08
-5.15393e-07
-3.53956e-08
-4.97818e-07
-4.21514e-08
-4.77646e-07
-4.85746e-08
-4.55055e-07
-5.4563e-08
-4.30261e-07
-6.00176e-08
-4.03516e-07
-6.4845e-08
-3.75105e-07
-6.89593e-08
-3.4534e-07
-7.22848e-08
-3.1456e-07
-7.4758e-08
-2.8312e-07
-7.63294e-08
-2.5139e-07
-7.69655e-08
-2.19746e-07
-7.66495e-08
-1.88566e-07
-7.53829e-08
-1.58217e-07
-7.31849e-08
-1.29057e-07
-7.00934e-08
-1.01419e-07
-6.61636e-08
-7.56133e-08
-6.14672e-08
-5.19142e-08
-5.60912e-08
-3.05588e-08
-5.01357e-08
-1.17409e-08
-4.37124e-08
4.39315e-09
-3.69422e-08
1.77477e-08
-2.99537e-08
2.82805e-08
-2.28813e-08
3.60056e-08
-1.58645e-08
4.09951e-08
-9.04754e-09
4.33808e-08
-2.57955e-09
4.33572e-08
3.38366e-09
4.11831e-08
8.67723e-09
3.71842e-08
1.31245e-08
3.17555e-08
1.6534e-08
2.53626e-08
1.86984e-08
1.85406e-08
1.93978e-08
1.18915e-08
1.8413e-08
6.07857e-09
1.55528e-08
1.82794e-09
1.07124e-08
4.01416e-09
-1.79966e-11
-1.92979e-09
-9.31112e-10
-1.44286e-09
-3.30459e-09
1.85835e-09
-7.49218e-09
6.9074e-09
-1.36976e-08
1.2956e-08
-2.20089e-08
1.94565e-08
-3.24279e-08
2.60249e-08
-4.48953e-08
3.24089e-08
-5.93125e-08
3.84555e-08
-7.55578e-08
4.40845e-08
-9.34993e-08
4.92659e-08
-1.13003e-07
5.4003e-08
-1.33937e-07
5.83179e-08
-1.56178e-07
6.22416e-08
-1.79606e-07
6.58054e-08
-2.04108e-07
6.9036e-08
-2.29571e-07
7.19517e-08
-2.55885e-07
7.45603e-08
-2.82935e-07
7.68584e-08
-3.106e-07
7.88319e-08
-3.3875e-07
8.04565e-08
-3.67245e-07
8.16994e-08
-3.95929e-07
8.25209e-08
-4.24636e-07
8.28763e-08
-4.53182e-07
8.27183e-08
-4.81369e-07
8.19984e-08
-5.08987e-07
8.06695e-08
-5.3581e-07
7.86875e-08
-5.61606e-07
7.60131e-08
-5.86131e-07
7.26138e-08
-6.09138e-07
6.84651e-08
-6.30375e-07
6.35522e-08
-6.49596e-07
5.78713e-08
-6.66558e-07
5.14306e-08
-6.81026e-07
4.42514e-08
-6.92782e-07
3.63685e-08
-7.01625e-07
2.78312e-08
-7.07377e-07
1.87028e-08
-7.09885e-07
9.06138e-09
-7.09029e-07
-1.00133e-09
-7.04722e-07
-1.13814e-08
-6.96914e-07
-2.19612e-08
-6.85597e-07
-3.26138e-08
-6.70804e-07
-4.32031e-08
-6.52613e-07
-5.35866e-08
-6.31147e-07
-6.36176e-08
-6.06573e-07
-7.31481e-08
-5.79105e-07
-8.20315e-08
-5.48996e-07
-9.0126e-08
-5.16544e-07
-9.72977e-08
-4.82079e-07
-1.03424e-07
-4.45969e-07
-1.08395e-07
-4.08605e-07
-1.12122e-07
-3.70403e-07
-1.14531e-07
-3.31795e-07
-1.15574e-07
-2.93219e-07
-1.15226e-07
-2.55116e-07
-1.13486e-07
-2.1792e-07
-1.10381e-07
-1.82051e-07
-1.05963e-07
-1.47906e-07
-1.00309e-07
-1.15853e-07
-9.35202e-08
-8.62233e-08
-8.5721e-08
-5.93045e-08
-7.70545e-08
-3.53354e-08
-6.76815e-08
-1.45003e-08
-5.77773e-08
3.07533e-09
-4.75293e-08
1.73287e-08
-3.71347e-08
2.82622e-08
-2.67981e-08
3.59471e-08
-1.67324e-08
4.05244e-08
-7.15691e-09
4.22079e-08
1.70015e-09
4.12852e-08
9.59998e-09
3.81192e-08
1.62905e-08
3.31494e-08
2.15038e-08
2.68919e-08
2.49559e-08
1.9939e-08
2.63507e-08
1.29606e-08
2.53913e-08
6.70873e-09
2.18046e-08
2.03905e-09
1.53821e-08
6.05321e-09
-4.73928e-10
-1.45587e-09
-2.53983e-09
6.23043e-10
-6.62537e-09
5.94389e-09
-1.29928e-08
1.32749e-08
-2.17786e-08
2.17418e-08
-3.30211e-08
3.0699e-08
-4.66852e-08
3.9689e-08
-6.26842e-08
4.84078e-08
-8.08976e-08
5.6669e-08
-1.01186e-07
6.43728e-08
-1.23401e-07
7.14809e-08
-1.47393e-07
7.79952e-08
-1.73016e-07
8.39412e-08
-2.00129e-07
8.93547e-08
-2.28596e-07
9.4272e-08
-2.58283e-07
9.87233e-08
-2.89059e-07
1.02727e-07
-3.20789e-07
1.0629e-07
-3.53334e-07
1.09403e-07
-3.86546e-07
1.12044e-07
-4.20265e-07
1.14176e-07
-4.5432e-07
1.15754e-07
-4.88522e-07
1.16723e-07
-5.22669e-07
1.17023e-07
-5.5654e-07
1.1659e-07
-5.89901e-07
1.1536e-07
-6.22503e-07
1.13271e-07
-6.54083e-07
1.10267e-07
-6.84368e-07
1.06299e-07
-7.1308e-07
1.01325e-07
-7.39934e-07
9.53191e-08
-7.64647e-07
8.82648e-08
-7.86938e-07
8.01627e-08
-8.06537e-07
7.10294e-08
-8.23184e-07
6.08988e-08
-8.36639e-07
4.98233e-08
-8.46682e-07
3.78741e-08
-8.5312e-07
2.51411e-08
-8.55792e-07
1.17329e-08
-8.54569e-07
-2.22382e-09
-8.49364e-07
-1.65863e-08
-8.4013e-07
-3.11957e-08
-8.26863e-07
-4.58802e-08
-8.09609e-07
-6.04572e-08
-7.8846e-07
-7.47359e-08
-7.63557e-07
-8.85207e-08
-7.35091e-07
-1.01614e-07
-7.033e-07
-1.13822e-07
-6.6847e-07
-1.24956e-07
-6.3093e-07
-1.34838e-07
-5.9105e-07
-1.43304e-07
-5.49236e-07
-1.50209e-07
-5.05926e-07
-1.55432e-07
-4.61582e-07
-1.58875e-07
-4.16683e-07
-1.60472e-07
-3.71723e-07
-1.60186e-07
-3.27194e-07
-1.58014e-07
-2.83586e-07
-1.53988e-07
-2.41375e-07
-1.48174e-07
-2.01012e-07
-1.40672e-07
-1.62919e-07
-1.31613e-07
-1.27479e-07
-1.21161e-07
-9.50285e-08
-1.09505e-07
-6.58502e-08
-9.68598e-08
-4.01672e-08
-8.34603e-08
-1.81375e-08
-6.9559e-08
1.5026e-10
-5.54225e-08
1.46816e-08
-4.13294e-08
2.55173e-08
-2.75682e-08
3.27977e-08
-1.44373e-08
3.67434e-08
-2.2455e-09
3.76566e-08
8.68678e-09
3.59221e-08
1.8025e-08
3.20073e-08
2.54185e-08
2.64629e-08
3.05004e-08
1.99233e-08
3.28903e-08
1.31116e-08
3.2203e-08
6.85106e-09
2.80652e-08
2.09341e-09
2.01397e-08
8.14662e-09
-9.78041e-10
-4.77828e-10
-4.33098e-09
3.976e-09
-1.03277e-08
1.19406e-08
-1.91124e-08
2.20596e-08
-3.07323e-08
3.33618e-08
-4.51586e-08
4.51252e-08
-6.23059e-08
5.68363e-08
-8.20499e-08
6.81519e-08
-1.04242e-07
7.88613e-08
-1.28721e-07
8.88519e-08
-1.55321e-07
9.8081e-08
-1.83878e-07
1.06552e-07
-2.1423e-07
1.14293e-07
-2.46222e-07
1.21347e-07
-2.79702e-07
1.27752e-07
-3.14521e-07
1.33542e-07
-3.50526e-07
1.38733e-07
-3.87563e-07
1.43328e-07
-4.2547e-07
1.4731e-07
-4.64071e-07
1.50645e-07
-5.03181e-07
1.53286e-07
-5.42597e-07
1.5517e-07
-5.82099e-07
1.56226e-07
-6.21453e-07
1.56377e-07
-6.60405e-07
1.55541e-07
-6.98685e-07
1.5364e-07
-7.3601e-07
1.50596e-07
-7.72083e-07
1.46341e-07
-8.066e-07
1.40815e-07
-8.39248e-07
1.33974e-07
-8.69715e-07
1.25785e-07
-8.97688e-07
1.16238e-07
-9.22862e-07
1.05337e-07
-9.44943e-07
9.31107e-08
-9.63653e-07
7.96087e-08
-9.78734e-07
6.49039e-08
-9.89952e-07
4.90923e-08
-9.97105e-07
3.22938e-08
-1.00002e-06
1.46507e-08
-9.98574e-07
-3.67246e-09
-9.92669e-07
-2.24913e-08
-9.82262e-07
-4.16023e-08
-9.67356e-07
-6.07863e-08
-9.48002e-07
-7.98112e-08
-9.24303e-07
-9.84353e-08
-8.96412e-07
-1.16411e-07
-8.64537e-07
-1.3349e-07
-8.28935e-07
-1.49425e-07
-7.89912e-07
-1.63979e-07
-7.47822e-07
-1.76927e-07
-7.03064e-07
-1.88062e-07
-6.56074e-07
-1.97199e-07
-6.07325e-07
-2.04181e-07
-5.57317e-07
-2.08884e-07
-5.06571e-07
-2.11218e-07
-4.55622e-07
-2.11135e-07
-4.05012e-07
-2.08625e-07
-3.55277e-07
-2.03723e-07
-3.06944e-07
-1.96507e-07
-2.60516e-07
-1.871e-07
-2.16465e-07
-1.75664e-07
-1.75225e-07
-1.62401e-07
-1.37179e-07
-1.4755e-07
-1.02657e-07
-1.31382e-07
-7.19211e-08
-1.14196e-07
-4.51667e-08
-9.63133e-08
-2.25126e-08
-7.80766e-08
-3.99788e-09
-5.98441e-08
1.04217e-08
-4.19877e-08
2.08761e-08
-2.48917e-08
2.75828e-08
-8.95221e-09
3.08478e-08
5.42176e-09
3.10661e-08
1.78067e-08
2.87215e-08
2.7763e-08
2.43877e-08
3.48343e-08
1.87297e-08
3.85482e-08
1.25111e-08
3.84217e-08
6.60699e-09
3.39693e-08
2.03135e-09
2.47154e-08
1.0178e-08
-1.51196e-09
1.03414e-09
-6.24602e-09
8.71007e-09
-1.42982e-08
1.99928e-08
-2.56783e-08
3.34396e-08
-4.03279e-08
4.80114e-08
-5.81369e-08
6.29342e-08
-7.89582e-08
7.76575e-08
-1.02621e-07
9.18148e-08
-1.28943e-07
1.05183e-07
-1.57736e-07
1.17645e-07
-1.88814e-07
1.2916e-07
-2.21998e-07
1.39735e-07
-2.57112e-07
1.49407e-07
-2.93986e-07
1.58221e-07
-3.32456e-07
1.66221e-07
-3.72354e-07
1.7344e-07
-4.13514e-07
1.79893e-07
-4.5576e-07
1.85574e-07
-4.98907e-07
1.90457e-07
-5.42759e-07
1.94497e-07
-5.87102e-07
1.97629e-07
-6.31707e-07
1.99775e-07
-6.76326e-07
2.00845e-07
-7.20693e-07
2.00743e-07
-7.64523e-07
1.99372e-07
-8.07518e-07
1.96634e-07
-8.49362e-07
1.9244e-07
-8.89731e-07
1.8671e-07
-9.28291e-07
1.79375e-07
-9.64704e-07
1.70387e-07
-9.98632e-07
1.59713e-07
-1.02974e-06
1.47346e-07
-1.0577e-06
1.333e-07
-1.08221e-06
1.17616e-07
-1.10296e-06
1.00363e-07
-1.11969e-06
8.16356e-08
-1.13216e-06
6.15582e-08
-1.14015e-06
4.02819e-08
-1.14348e-06
1.79854e-08
-1.14203e-06
-5.1272e-09
-1.13569e-06
-2.88279e-08
-1.12443e-06
-5.28669e-08
-1.10824e-06
-7.69759e-08
-1.08718e-06
-1.00872e-07
-1.06135e-06
-1.2426e-07
-1.03092e-06
-1.46839e-07
-9.96108e-07
-1.68306e-07
-9.57172e-07
-1.88362e-07
-9.14435e-07
-2.06716e-07
-8.68268e-07
-2.23094e-07
-8.19089e-07
-2.37241e-07
-7.67358e-07
-2.4893e-07
-7.13574e-07
-2.57965e-07
-6.58267e-07
-2.6419e-07
-6.01994e-07
-2.67491e-07
-5.45328e-07
-2.67801e-07
-4.88853e-07
-2.651e-07
-4.3315e-07
-2.59426e-07
-3.78793e-07
-2.50864e-07
-3.26335e-07
-2.39558e-07
-2.76299e-07
-2.25699e-07
-2.2917e-07
-2.09531e-07
-1.8538e-07
-1.9134e-07
-1.45305e-07
-1.71457e-07
-1.09256e-07
-1.50246e-07
-7.74656e-08
-1.28103e-07
-5.00901e-08
-1.05452e-07
-2.71986e-08
-8.27356e-08
-8.77117e-09
-6.04152e-08
5.3044e-09
-3.89673e-08
1.52342e-08
-1.8882e-08
2.13193e-08
-6.63318e-10
2.3956e-08
1.517e-08
2.36359e-08
2.80831e-08
2.09467e-08
3.75235e-08
1.65747e-08
4.29203e-08
1.13112e-08
4.36851e-08
6.06535e-09
3.92152e-08
1.88484e-09
2.88959e-08
1.20628e-08
-2.06605e-09
3.10019e-09
-8.24621e-09
1.48902e-08
-1.84572e-08
3.02038e-08
-3.25629e-08
4.75453e-08
-5.0388e-08
6.58364e-08
-7.173e-08
8.42762e-08
-9.63709e-08
1.02298e-07
-1.24086e-07
1.1953e-07
-1.54653e-07
1.35749e-07
-1.87854e-07
1.50846e-07
-2.23481e-07
1.64787e-07
-2.61337e-07
1.77591e-07
-3.01231e-07
1.89302e-07
-3.42982e-07
1.99972e-07
-3.86411e-07
2.0965e-07
-4.31337e-07
2.18366e-07
-4.77577e-07
2.26133e-07
-5.24938e-07
2.32935e-07
-5.73217e-07
2.38736e-07
-6.22193e-07
2.43473e-07
-6.71631e-07
2.47067e-07
-7.21276e-07
2.4942e-07
-7.70854e-07
2.50423e-07
-8.20072e-07
2.49961e-07
-8.68619e-07
2.47919e-07
-9.16169e-07
2.44184e-07
-9.62382e-07
2.38653e-07
-1.00691e-06
2.31235e-07
-1.04939e-06
2.21856e-07
-1.08946e-06
2.10462e-07
-1.12678e-06
1.97026e-07
-1.16097e-06
1.81543e-07
-1.19171e-06
1.6404e-07
-1.21867e-06
1.44573e-07
-1.24154e-06
1.2323e-07
-1.26003e-06
1.00131e-07
-1.2739e-06
7.5429e-08
-1.28293e-06
4.93083e-08
-1.28693e-06
2.19844e-08
-1.28576e-06
-6.29749e-09
-1.27932e-06
-3.52655e-08
-1.26757e-06
-6.46227e-08
-1.25049e-06
-9.40509e-08
-1.22815e-06
-1.23215e-07
-1.20064e-06
-1.51766e-07
-1.16813e-06
-1.79349e-07
-1.13083e-06
-2.05604e-07
-1.08902e-06
-2.30177e-07
-1.04301e-06
-2.52723e-07
-9.9319e-07
-2.72914e-07
-9.39987e-07
-2.90444e-07
-8.83878e-07
-3.05039e-07
-8.25381e-07
-3.16462e-07
-7.65052e-07
-3.24519e-07
-7.03478e-07
-3.29066e-07
-6.41266e-07
-3.30012e-07
-5.79039e-07
-3.27327e-07
-5.17423e-07
-3.21041e-07
-4.57039e-07
-3.11249e-07
-3.98488e-07
-2.98108e-07
-3.42347e-07
-2.8184e-07
-2.89153e-07
-2.62725e-07
-2.39392e-07
-2.41101e-07
-1.93493e-07
-2.17356e-07
-1.51814e-07
-1.91925e-07
-1.14636e-07
-1.65281e-07
-8.21561e-08
-1.37932e-07
-5.44802e-08
-1.10412e-07
-3.16194e-08
-8.32759e-08
-1.34866e-08
-5.71001e-08
1.05943e-10
-3.24746e-08
9.44734e-09
-1.00047e-08
1.49281e-08
9.68928e-09
1.70405e-08
2.59708e-08
1.63789e-08
3.8185e-08
1.36424e-08
4.56567e-08
9.63955e-09
4.7688e-08
5.29775e-09
4.3557e-08
1.67774e-09
3.25159e-08
1.37406e-08
-2.63383e-09
5.73403e-09
-1.03043e-08
2.25607e-08
-2.27454e-08
4.26449e-08
-3.96679e-08
6.44678e-08
-6.07712e-08
8.69397e-08
-8.57528e-08
1.09258e-07
-1.14316e-07
1.30862e-07
-1.46178e-07
1.51392e-07
-1.81069e-07
1.70641e-07
-2.18741e-07
1.88517e-07
-2.58959e-07
2.05006e-07
-3.01509e-07
2.20141e-07
-3.46186e-07
2.33978e-07
-3.92794e-07
2.46581e-07
-4.41142e-07
2.57998e-07
-4.91037e-07
2.68262e-07
-5.42282e-07
2.77377e-07
-5.94668e-07
2.8532e-07
-6.47972e-07
2.9204e-07
-7.01957e-07
2.97458e-07
-7.56364e-07
3.01475e-07
-8.10918e-07
3.03974e-07
-8.65322e-07
3.04826e-07
-9.19258e-07
3.03897e-07
-9.72394e-07
3.01055e-07
-1.02438e-06
2.96171e-07
-1.07485e-06
2.89128e-07
-1.12345e-06
2.79827e-07
-1.16978e-06
2.6819e-07
-1.21348e-06
2.5416e-07
-1.25417e-06
2.37713e-07
-1.29148e-06
2.18854e-07
-1.32506e-06
1.97619e-07
-1.35457e-06
1.74083e-07
-1.37969e-06
1.48354e-07
-1.40014e-06
1.20577e-07
-1.41564e-06
9.09348e-08
-1.42598e-06
5.96451e-08
-1.43096e-06
2.69605e-08
-1.43042e-06
-6.83345e-09
-1.42426e-06
-4.14209e-08
-1.41243e-06
-7.64578e-08
-1.3949e-06
-1.11577e-07
-1.37173e-06
-1.4639e-07
-1.343e-06
-1.80495e-07
-1.30887e-06
-2.1348e-07
-1.26954e-06
-2.44929e-07
-1.22529e-06
-2.7443e-07
-1.17644e-06
-3.0158e-07
-1.12335e-06
-3.25995e-07
-1.06648e-06
-3.47315e-07
-1.00631e-06
-3.65214e-07
-9.43362e-07
-3.79407e-07
-8.78223e-07
-3.89658e-07
-8.11503e-07
-3.95786e-07
-7.43842e-07
-3.97674e-07
-6.75899e-07
-3.9527e-07
-6.08345e-07
-3.88595e-07
-5.41848e-07
-3.77746e-07
-4.77063e-07
-3.62893e-07
-4.14621e-07
-3.44282e-07
-3.55116e-07
-3.2223e-07
-2.99093e-07
-2.97124e-07
-2.47037e-07
-2.69412e-07
-1.99363e-07
-2.39599e-07
-1.56405e-07
-2.0824e-07
-1.18407e-07
-1.7593e-07
-8.55195e-08
-1.43299e-07
-5.77913e-08
-1.11004e-07
-3.51666e-08
-7.97248e-08
-1.74828e-08
-5.01584e-08
-4.46936e-09
-2.30182e-08
4.25281e-09
9.67102e-10
9.17058e-09
2.1053e-08
1.0879e-08
3.64766e-08
1.00824e-08
4.64533e-08
7.59767e-09
5.01727e-08
4.35937e-09
4.67954e-08
1.42738e-09
3.54479e-08
1.51679e-08
-3.21048e-09
8.94451e-09
-1.23995e-08
3.17498e-08
-2.7116e-08
5.73613e-08
-4.69132e-08
8.4265e-08
-7.13598e-08
1.11386e-07
-1.00048e-07
1.37946e-07
-1.32597e-07
1.63412e-07
-1.68661e-07
1.87455e-07
-2.07921e-07
2.09901e-07
-2.50093e-07
2.30689e-07
-2.94917e-07
2.4983e-07
-3.42158e-07
2.67382e-07
-3.91597e-07
2.83417e-07
-4.43026e-07
2.98009e-07
-4.9624e-07
3.11213e-07
-5.51037e-07
3.23058e-07
-6.07204e-07
3.33545e-07
-6.6452e-07
3.42636e-07
-7.22748e-07
3.50267e-07
-7.8163e-07
3.56341e-07
-8.40893e-07
3.60737e-07
-9.00239e-07
3.6332e-07
-9.59353e-07
3.6394e-07
-1.0179e-06
3.62444e-07
-1.07552e-06
3.5868e-07
-1.13186e-06
3.52507e-07
-1.18653e-06
3.43797e-07
-1.23914e-06
3.32441e-07
-1.28931e-06
3.18358e-07
-1.33664e-06
3.01491e-07
-1.38075e-06
2.81821e-07
-1.42126e-06
2.5936e-07
-1.4578e-06
2.34159e-07
-1.49002e-06
2.06308e-07
-1.51761e-06
1.75939e-07
-1.54025e-06
1.4322e-07
-1.55768e-06
1.08363e-07
-1.56965e-06
7.16197e-08
-1.57597e-06
3.32774e-08
-1.57646e-06
-6.33821e-09
-1.57102e-06
-4.68689e-08
-1.55955e-06
-8.79244e-08
-1.54204e-06
-1.29089e-07
-1.51851e-06
-1.69922e-07
-1.48903e-06
-2.09969e-07
-1.45375e-06
-2.48759e-07
-1.41286e-06
-2.85821e-07
-1.36661e-06
-3.20681e-07
-1.31531e-06
-3.52877e-07
-1.25934e-06
-3.81964e-07
-1.19913e-06
-4.07523e-07
-1.13518e-06
-4.29172e-07
-1.06801e-06
-4.46571e-07
-9.98233e-07
-4.59436e-07
-9.26476e-07
-4.67543e-07
-8.53411e-07
-4.70738e-07
-7.79736e-07
-4.68945e-07
-7.06163e-07
-4.62168e-07
-6.33411e-07
-4.50498e-07
-5.62191e-07
-4.34113e-07
-4.93193e-07
-4.1328e-07
-4.27075e-07
-3.88349e-07
-3.64444e-07
-3.59754e-07
-3.05851e-07
-3.28005e-07
-2.51773e-07
-2.93677e-07
-2.02603e-07
-2.57409e-07
-1.58644e-07
-2.19889e-07
-1.20095e-07
-1.81847e-07
-8.70515e-08
-1.44048e-07
-5.94951e-08
-1.07281e-07
-3.72947e-08
-7.23587e-08
-2.02041e-08
-4.01088e-08
-7.86154e-09
-1.13755e-08
2.0927e-10
1.29822e-08
4.59865e-09
3.20872e-08
6.01053e-09
4.50415e-08
5.26335e-09
5.09199e-08
3.29134e-09
4.87674e-08
1.14615e-09
3.75931e-08
1.63141e-08
-3.7919e-09
1.27364e-08
-1.45141e-08
4.2472e-08
-3.1529e-08
7.43762e-08
-5.42298e-08
1.06966e-07
-8.20511e-08
1.39208e-07
-1.14476e-07
1.7037e-07
-1.51037e-07
1.99973e-07
-1.91321e-07
2.27738e-07
-2.34959e-07
2.53539e-07
-2.81629e-07
2.77358e-07
-3.31043e-07
2.99245e-07
-3.82947e-07
3.19285e-07
-4.37105e-07
3.37575e-07
-4.93297e-07
3.54201e-07
-5.5131e-07
3.69225e-07
-6.10927e-07
3.82676e-07
-6.71926e-07
3.94544e-07
-7.34074e-07
4.04784e-07
-7.97119e-07
4.13312e-07
-8.6079e-07
4.20012e-07
-9.24798e-07
4.24745e-07
-9.88831e-07
4.27352e-07
-1.05255e-06
4.27664e-07
-1.11562e-06
4.25509e-07
-1.17766e-06
4.20718e-07
-1.23829e-06
4.13135e-07
-1.29711e-06
4.02622e-07
-1.35373e-06
3.89065e-07
-1.40775e-06
3.72378e-07
-1.45877e-06
3.52507e-07
-1.50638e-06
3.29435e-07
-1.55021e-06
3.03187e-07
-1.58988e-06
2.73825e-07
-1.62503e-06
2.41457e-07
-1.65532e-06
2.06234e-07
-1.68045e-06
1.6835e-07
-1.70013e-06
1.28045e-07
-1.71411e-06
8.5599e-08
-1.72217e-06
4.1336e-08
-1.72413e-06
-4.38129e-09
-1.71984e-06
-5.11546e-08
-1.70922e-06
-9.85487e-08
-1.69221e-06
-1.461e-07
-1.66881e-06
-1.9332e-07
-1.63908e-06
-2.39697e-07
-1.60314e-06
-2.84706e-07
-1.56114e-06
-3.27815e-07
-1.51333e-06
-3.68489e-07
-1.46001e-06
-4.06204e-07
-1.40152e-06
-4.4045e-07
-1.3383e-06
-4.70743e-07
-1.27083e-06
-4.9664e-07
-1.19967e-06
-5.17739e-07
-1.1254e-06
-5.337e-07
-1.0487e-06
-5.44247e-07
-9.70252e-07
-5.49185e-07
-8.90798e-07
-5.48399e-07
-8.11094e-07
-5.41872e-07
-7.3191e-07
-5.29681e-07
-6.54018e-07
-5.12006e-07
-5.78172e-07
-4.89126e-07
-5.05096e-07
-4.61424e-07
-4.35473e-07
-4.29378e-07
-3.69922e-07
-3.93555e-07
-3.08994e-07
-3.54606e-07
-2.5315e-07
-3.13253e-07
-2.02757e-07
-2.70282e-07
-1.58075e-07
-2.2653e-07
-1.1925e-07
-1.82873e-07
-8.63111e-08
-1.4022e-07
-5.91651e-08
-9.95046e-08
-3.75958e-08
-6.16781e-08
-2.12641e-08
-2.77072e-08
-9.70916e-09
1.42725e-09
-2.35013e-09
2.47282e-08
1.51217e-09
4.11792e-08
2.69339e-09
4.97387e-08
2.12316e-09
4.93376e-08
8.42667e-10
3.88736e-08
1.71568e-08
-4.37416e-09
1.71106e-08
-1.66318e-08
5.47296e-08
-3.5948e-08
9.36925e-08
-6.15548e-08
1.32573e-07
-9.27512e-08
1.70404e-07
-1.28909e-07
2.06528e-07
-1.69473e-07
2.40538e-07
-2.13961e-07
2.72225e-07
-2.61951e-07
3.0153e-07
-3.13083e-07
3.28491e-07
-3.67042e-07
3.53204e-07
-4.23552e-07
3.75795e-07
-4.82362e-07
3.96386e-07
-5.43241e-07
4.1508e-07
-6.05964e-07
4.31948e-07
-6.70306e-07
4.47018e-07
-7.36035e-07
4.60274e-07
-8.02906e-07
4.71656e-07
-8.70658e-07
4.81064e-07
-9.39008e-07
4.88362e-07
-1.00765e-06
4.93391e-07
-1.07627e-06
4.95969e-07
-1.14451e-06
4.95906e-07
-1.21202e-06
4.93013e-07
-1.2784e-06
4.87105e-07
-1.34328e-06
4.78013e-07
-1.40625e-06
4.65588e-07
-1.46689e-06
4.49712e-07
-1.52481e-06
4.30294e-07
-1.57959e-06
4.07285e-07
-1.63083e-06
3.80674e-07
-1.67813e-06
3.50491e-07
-1.72112e-06
3.16814e-07
-1.75943e-06
2.79766e-07
-1.79271e-06
2.39518e-07
-1.82065e-06
1.96286e-07
-1.84294e-06
1.50334e-07
-1.85931e-06
1.01973e-07
-1.86953e-06
5.15578e-08
-1.8734e-06
-5.13032e-10
-1.87075e-06
-5.38061e-08
-1.86146e-06
-1.07841e-07
-1.84545e-06
-1.62111e-07
-1.82269e-06
-2.16076e-07
-1.79321e-06
-2.69175e-07
-1.7571e-06
-3.20824e-07
-1.71448e-06
-3.70432e-07
-1.66557e-06
-4.174e-07
-1.61063e-06
-4.61138e-07
-1.55001e-06
-5.01068e-07
-1.48412e-06
-5.36638e-07
-1.41343e-06
-5.67332e-07
-1.33848e-06
-5.92684e-07
-1.2599e-06
-6.12286e-07
-1.17834e-06
-6.25805e-07
-1.09453e-06
-6.32988e-07
-1.00925e-06
-6.3368e-07
-9.23301e-07
-6.27826e-07
-8.375e-07
-6.15483e-07
-7.52683e-07
-5.96823e-07
-6.69676e-07
-5.72134e-07
-5.89279e-07
-5.41821e-07
-5.12252e-07
-5.06405e-07
-4.39298e-07
-4.66509e-07
-3.71046e-07
-4.22858e-07
-3.08037e-07
-3.76262e-07
-2.50712e-07
-3.27607e-07
-1.994e-07
-2.77842e-07
-1.54311e-07
-2.27963e-07
-1.15525e-07
-1.79006e-07
-8.29954e-08
-1.32034e-07
-5.65429e-08
-8.81306e-08
-3.58563e-08
-4.83937e-08
-2.0495e-08
-1.39341e-08
-9.89129e-09
1.41245e-08
-3.35437e-09
3.46422e-08
-7.40921e-11
4.64584e-08
8.74646e-10
4.83889e-08
5.2262e-10
3.92256e-08
1.76794e-08
-4.95323e-09
2.20638e-08
-1.87365e-08
6.85128e-08
-4.0338e-08
1.15294e-07
-6.88284e-08
1.61063e-07
-1.03371e-07
2.04947e-07
-1.43226e-07
2.46384e-07
-1.87751e-07
2.85062e-07
-2.36391e-07
3.20866e-07
-2.88675e-07
3.53815e-07
-3.44203e-07
3.84018e-07
-4.02631e-07
4.11632e-07
-4.63662e-07
4.36826e-07
-5.27032e-07
4.59755e-07
-5.92497e-07
4.80545e-07
-6.59823e-07
4.99274e-07
-7.28777e-07
5.15972e-07
-7.99119e-07
5.30616e-07
-8.70595e-07
5.43132e-07
-9.42935e-07
5.53403e-07
-1.01585e-06
5.61274e-07
-1.08902e-06
5.66562e-07
-1.16212e-06
5.69066e-07
-1.23479e-06
5.68576e-07
-1.30666e-06
5.64883e-07
-1.37734e-06
5.57788e-07
-1.44643e-06
5.47109e-07
-1.51354e-06
5.3269e-07
-1.57823e-06
5.14405e-07
-1.6401e-06
4.92165e-07
-1.69874e-06
4.65921e-07
-1.75373e-06
4.35666e-07
-1.80468e-06
4.01441e-07
-1.8512e-06
3.63335e-07
-1.89292e-06
3.21485e-07
-1.92948e-06
2.76078e-07
-1.96054e-06
2.27352e-07
-1.9858e-06
1.75594e-07
-2.00497e-06
1.21139e-07
-2.01778e-06
6.43701e-08
-2.02401e-06
5.71781e-09
-2.02347e-06
-5.43467e-08
-2.016e-06
-1.15308e-07
-2.0015e-06
-1.76614e-07
-1.9799e-06
-2.37679e-07
-1.95118e-06
-2.97889e-07
-1.9154e-06
-3.56607e-07
-1.87266e-06
-4.13178e-07
-1.82312e-06
-4.66941e-07
-1.76702e-06
-5.17235e-07
-1.70468e-06
-5.6341e-07
-1.63647e-06
-6.04841e-07
-1.56287e-06
-6.40935e-07
-1.48441e-06
-6.71149e-07
-1.40169e-06
-6.95002e-07
-1.3154e-06
-7.1209e-07
-1.2263e-06
-7.22096e-07
-1.13517e-06
-7.24808e-07
-1.04287e-06
-7.20126e-07
-9.50275e-07
-7.08075e-07
-8.58291e-07
-6.88807e-07
-7.67814e-07
-6.6261e-07
-6.79728e-07
-6.29908e-07
-5.9488e-07
-5.91253e-07
-5.14062e-07
-5.47327e-07
-4.37996e-07
-4.98924e-07
-3.67312e-07
-4.46945e-07
-3.02538e-07
-3.92382e-07
-2.44081e-07
-3.36298e-07
-1.92223e-07
-2.79821e-07
-1.47109e-07
-2.24119e-07
-1.08746e-07
-1.70397e-07
-7.69977e-08
-1.19879e-07
-5.15869e-08
-7.38045e-08
-3.20982e-08
-3.34228e-08
-1.79808e-08
7.05914e-12
-8.55421e-09
2.52157e-08
-3.01447e-09
4.09187e-08
-4.41994e-10
4.58164e-08
1.89394e-10
3.85942e-08
1.78688e-08
-5.52483e-09
2.75887e-08
-2.0812e-08
8.37999e-08
-4.46639e-08
1.39146e-07
-7.59915e-08
1.92391e-07
-1.13824e-07
2.42779e-07
-1.5731e-07
2.8987e-07
-2.0572e-07
3.33472e-07
-2.5843e-07
3.73576e-07
-3.14918e-07
4.10302e-07
-3.74743e-07
4.43843e-07
-4.37534e-07
4.74424e-07
-5.02975e-07
5.02267e-07
-5.70786e-07
5.27566e-07
-6.40713e-07
5.50471e-07
-7.12513e-07
5.71074e-07
-7.85947e-07
5.89406e-07
-8.60768e-07
6.05436e-07
-9.36715e-07
6.19079e-07
-1.01351e-06
6.30199e-07
-1.09086e-06
6.38621e-07
-1.16844e-06
6.44141e-07
-1.24591e-06
6.46537e-07
-1.32291e-06
6.45579e-07
-1.39907e-06
6.41041e-07
-1.47399e-06
6.32709e-07
-1.54727e-06
6.20391e-07
-1.61851e-06
6.03922e-07
-1.68727e-06
5.83171e-07
-1.75315e-06
5.58048e-07
-1.81574e-06
5.28505e-07
-1.87461e-06
4.94541e-07
-1.92938e-06
4.56204e-07
-1.97963e-06
4.13592e-07
-2.025e-06
3.66855e-07
-2.06512e-06
3.16195e-07
-2.09963e-06
2.61866e-07
-2.12822e-06
2.04175e-07
-2.15056e-06
1.43479e-07
-2.16637e-06
8.01866e-08
-2.17541e-06
1.47553e-08
-2.17744e-06
-5.2311e-08
-2.17229e-06
-1.20462e-07
-2.1598e-06
-1.89106e-07
-2.13986e-06
-2.57614e-07
-2.11243e-06
-3.25321e-07
-2.0775e-06
-3.91534e-07
-2.03514e-06
-4.5554e-07
-1.98547e-06
-5.16611e-07
-1.92869e-06
-5.74016e-07
-1.86507e-06
-6.27028e-07
-1.79497e-06
-6.74942e-07
-1.71882e-06
-7.17084e-07
-1.63715e-06
-7.52824e-07
-1.55055e-06
-7.816e-07
-1.45972e-06
-8.02923e-07
-1.36541e-06
-8.16402e-07
-1.26846e-06