/*--------------------------------*- C++ -*----------------------------------*\
  =========                 |
  \\      /  F ield         | OpenFOAM: The Open Source CFD Toolbox
   \\    /   O peration     | Website:  https://openfoam.org
    \\  /    A nd           | Version:  7
     \\/     M anipulation  |
\*---------------------------------------------------------------------------*/
FoamFile
{
    version     2.0;
    format      ascii;
    class       surfaceScalarField;
    location    "2.975";
    object      phi;
}
// * * * * * * * * * * * * * * * * * * * * * * * * * * * * * * * * * * * * * //

dimensions      [0 3 -1 0 0 0 0];

internalField   nonuniform List<scalar> 
12640
(
4.05171e-10
-4.06131e-10
1.58975e-09
-1.18454e-09
3.06952e-09
-1.47973e-09
4.46429e-09
-1.39486e-09
5.55469e-09
-1.09036e-09
6.22658e-09
-6.71837e-10
6.43094e-09
-2.0436e-10
6.15684e-09
2.74049e-10
5.41315e-09
7.43671e-10
4.21666e-09
1.19651e-09
2.58495e-09
1.63172e-09
5.32595e-10
2.05236e-09
-1.93076e-09
2.46336e-09
-4.80073e-09
2.86997e-09
-8.07757e-09
3.27685e-09
-1.1765e-08
3.68748e-09
-1.58689e-08
4.10384e-09
-2.03951e-08
4.52622e-09
-2.53483e-08
4.95322e-09
-3.073e-08
5.38172e-09
-3.6537e-08
5.80702e-09
-4.276e-08
6.22291e-09
-4.93818e-08
6.62186e-09
-5.63769e-08
6.99512e-09
-6.37099e-08
7.33294e-09
-7.13346e-08
7.62473e-09
-7.91939e-08
7.85929e-09
-8.7219e-08
8.02509e-09
-9.53294e-08
8.11049e-09
-1.03434e-07
8.10414e-09
-1.11429e-07
7.99532e-09
-1.19203e-07
7.77431e-09
-1.26636e-07
7.43283e-09
-1.336e-07
6.96445e-09
-1.39965e-07
6.36501e-09
-1.45598e-07
5.63301e-09
-1.50368e-07
4.77003e-09
-1.54149e-07
3.781e-09
-1.56824e-07
2.67445e-09
-1.58287e-07
1.46263e-09
-1.58451e-07
1.64708e-10
-1.57243e-07
-1.20868e-09
-1.54619e-07
-2.62385e-09
-1.5056e-07
-4.05906e-09
-1.45075e-07
-5.48476e-09
-1.38205e-07
-6.86997e-09
-1.30022e-07
-8.18272e-09
-1.20631e-07
-9.39107e-09
-1.10167e-07
-1.04641e-08
-9.87939e-08
-1.13732e-08
-8.67008e-08
-1.20931e-08
-7.40978e-08
-1.26031e-08
-6.12097e-08
-1.28881e-08
-4.82703e-08
-1.29394e-08
-3.55148e-08
-1.27555e-08
-2.31731e-08
-1.23417e-08
-1.14621e-08
-1.1711e-08
-5.79156e-10
-1.0883e-08
9.30551e-09
-9.88467e-09
1.80491e-08
-8.74358e-09
2.55447e-08
-7.49562e-09
3.17212e-08
-6.17649e-09
3.65435e-08
-4.82226e-09
4.00112e-08
-3.46777e-09
4.21565e-08
-2.14523e-09
4.30395e-08
-8.82995e-10
4.27443e-08
2.95164e-10
4.13741e-08
1.37026e-09
3.90462e-08
2.32788e-09
3.58891e-08
3.15709e-09
3.20404e-08
3.84878e-09
2.76473e-08
4.3931e-09
2.28712e-08
4.77608e-09
1.7896e-08
4.97519e-09
1.29418e-08
4.95421e-09
8.2828e-09
4.65901e-09
4.26466e-09
4.01814e-09
1.31424e-09
2.95042e-09
-1.08681e-10
1.42292e-09
-1.08678e-10
1.19936e-09
-1.60547e-09
3.57603e-09
-3.5611e-09
6.25909e-09
-4.16291e-09
8.60742e-09
-3.74321e-09
1.01826e-08
-2.66552e-09
1.07169e-08
-1.20621e-09
1.00679e-08
4.44645e-10
8.17509e-09
2.16691e-09
5.02703e-09
3.89174e-09
6.37633e-10
5.5859e-09
-4.97014e-09
7.23948e-09
-1.17742e-08
8.85643e-09
-1.97583e-08
1.04475e-08
-2.89138e-08
1.20254e-08
-3.92387e-08
1.36017e-08
-5.07355e-08
1.51843e-08
-6.34076e-08
1.6776e-08
-7.72557e-08
1.83743e-08
-9.22733e-08
1.99708e-08
-1.08443e-07
2.15512e-08
-1.25732e-07
2.30958e-08
-1.44088e-07
2.45797e-08
-1.6344e-07
2.59736e-08
-1.83689e-07
2.72444e-08
-2.04712e-07
2.83559e-08
-2.26357e-07
2.92696e-08
-2.48444e-07
2.99456e-08
-2.70762e-07
3.03439e-08
-2.93077e-07
3.04253e-08
-3.15126e-07
3.01527e-08
-3.36623e-07
2.94924e-08
-3.57264e-07
2.84154e-08
-3.7673e-07
2.68989e-08
-3.94693e-07
2.49274e-08
-4.10822e-07
2.24942e-08
-4.24792e-07
1.96023e-08
-4.36287e-07
1.62655e-08
-4.45015e-07
1.2509e-08
-4.50711e-07
8.37002e-09
-4.53145e-07
3.89755e-09
-4.52138e-07
-8.4292e-10
-4.47554e-07
-5.79292e-09
-4.39321e-07
-1.0856e-08
-4.27434e-07
-1.59461e-08
-4.11954e-07
-2.09654e-08
-3.93012e-07
-2.58113e-08
-3.70816e-07
-3.03793e-08
-3.45641e-07
-3.45663e-08
-3.17831e-07
-3.82735e-08
-2.87795e-07
-4.14098e-08
-2.55992e-07
-4.38956e-08
-2.2293e-07
-4.56655e-08
-1.89146e-07
-4.6672e-08
-1.55198e-07
-4.68872e-08
-1.21648e-07
-4.63053e-08
-8.9047e-08
-4.49426e-08
-5.79193e-08
-4.28386e-08
-2.87482e-08
-4.00541e-08
-1.96343e-09
-3.66694e-08
2.20742e-08
-3.27812e-08
4.30746e-08
-2.8496e-08
6.0831e-08
-2.39329e-08
7.5219e-08
-1.92102e-08
8.61968e-08
-1.44456e-08
9.38015e-08
-9.74995e-09
9.81429e-08
-5.22432e-09
9.9395e-08
-9.5694e-10
9.77876e-08
2.97767e-09
9.35971e-08
6.51842e-09
8.71396e-08
9.61452e-09
7.87674e-08
1.2221e-08
6.88687e-08
1.42918e-08
5.78745e-08
1.57703e-08
4.62701e-08
1.65795e-08
3.46124e-08
1.66119e-08
2.35456e-08
1.57258e-08
1.38051e-08
1.37586e-08
6.18674e-09
1.05687e-08
1.4354e-09
6.17422e-09
1.32672e-09
1.51021e-09
-3.11563e-09
4.18643e-09
-6.23748e-09
6.9102e-09
-6.88659e-09
8.91361e-09
-5.74656e-09
9.66405e-09
-3.41597e-09
8.81884e-09
-3.61057e-10
6.17972e-09
3.08374e-09
1.64674e-09
6.69991e-09
-4.81676e-09
1.03553e-08
-1.32124e-08
1.39815e-08
-2.35259e-08
1.7553e-08
-3.57395e-08
2.10701e-08
-4.98388e-08
2.45467e-08
-6.58141e-08
2.80008e-08
-8.36602e-08
3.14479e-08
-1.03373e-07
3.48967e-08
-1.24943e-07
3.83463e-08
-1.48353e-07
4.17847e-08
-1.73571e-07
4.51882e-08
-2.00541e-07
4.85215e-08
-2.29184e-07
5.17384e-08
-2.59387e-07
5.47831e-08
-2.91004e-07
5.75909e-08
-3.2385e-07
6.00902e-08
-3.57699e-07
6.22044e-08
-3.92283e-07
6.38535e-08
-4.27293e-07
6.49565e-08
-4.62383e-07
6.54334e-08
-4.97166e-07
6.52084e-08
-5.31225e-07
6.42117e-08
-5.64115e-07
6.23826e-08
-5.95372e-07
5.96719e-08
-6.24517e-07
5.60444e-08
-6.51071e-07
5.14814e-08
-6.74559e-07
4.59826e-08
-6.94525e-07
3.95678e-08
-7.10538e-07
3.22783e-08
-7.22206e-07
2.41776e-08
-7.29188e-07
1.53517e-08
-7.312e-07
5.90941e-09
-7.28022e-07
-4.02096e-09
-7.1952e-07
-1.42946e-08
-7.05637e-07
-2.4739e-08
-6.86408e-07
-3.51756e-08
-6.6196e-07
-4.54133e-08
-6.32517e-07
-5.52544e-08
-5.98397e-07
-6.44994e-08
-5.60011e-07
-7.29526e-08
-5.17856e-07
-8.04278e-08
-4.72512e-07
-8.6754e-08
-4.24626e-07
-9.17816e-08
-3.74904e-07
-9.53879e-08
-3.24093e-07
-9.74826e-08
-2.72968e-07
-9.8012e-08
-2.22311e-07
-9.69622e-08
-1.72893e-07
-9.4361e-08
-1.25453e-07
-9.02784e-08
-8.06824e-08
-8.48249e-08
-3.92035e-08
-7.81483e-08
-1.55674e-09
-7.04279e-08
3.18168e-08
-6.18696e-08
6.05781e-08
-5.26942e-08
8.45024e-08
-4.31345e-08
1.03479e-07
-3.34216e-08
1.17507e-07
-2.37785e-08
1.26695e-07
-1.44126e-08
1.31249e-07
-5.51066e-09
1.31463e-07
2.76412e-09
1.27709e-07
1.02723e-08
1.2043e-07
1.68931e-08
1.10134e-07
2.25178e-08
9.73874e-08
2.70379e-08
8.28263e-08
3.03314e-08
6.71589e-08
3.22469e-08
5.11787e-08
3.25922e-08
3.57719e-08
3.11326e-08
2.19139e-08
2.76166e-08
1.06401e-08
2.18426e-08
2.98873e-09
1.38256e-08
4.31545e-09
1.40773e-09
-4.52343e-09
3.6433e-09
-8.47308e-09
5.47871e-09
-8.72195e-09
6.09774e-09
-6.36556e-09
4.94365e-09
-2.26188e-09
1.65511e-09
2.92745e-09
-3.98648e-09
8.72532e-09
-1.20995e-08
1.48129e-08
-2.27386e-08
2.09944e-08
-3.59211e-08
2.7164e-08
-5.16456e-08
3.32775e-08
-6.99039e-08
3.93284e-08
-9.06869e-08
4.53297e-08
-1.13986e-07
5.12996e-08
-1.3979e-07
5.72522e-08
-1.68083e-07
6.31899e-08
-1.98837e-07
6.91001e-08
-2.32004e-07
7.49519e-08
-2.67512e-07
8.06961e-08
-3.05256e-07
8.6265e-08
-3.45091e-07
9.15743e-08
-3.86833e-07
9.65244e-08
-4.30245e-07
1.01003e-07
-4.75043e-07
1.04888e-07
-5.20891e-07
1.08052e-07
-5.67401e-07
1.10364e-07
-6.14138e-07
1.11693e-07
-6.6062e-07
1.11915e-07
-7.06327e-07
1.10915e-07
-7.50705e-07
1.0859e-07
-7.93178e-07
1.04856e-07
-8.33155e-07
9.96487e-08
-8.70041e-07
9.29304e-08
-9.0325e-07
8.46904e-08
-9.32216e-07
7.49482e-08
-9.56403e-07
6.37557e-08
-9.75323e-07
5.11982e-08
-9.8854e-07
3.73947e-08
-9.95686e-07
2.24978e-08
-9.9647e-07
6.69259e-09
-9.90678e-07
-9.81277e-09
-9.78199e-07
-2.67733e-08
-9.59016e-07
-4.39225e-08
-9.33213e-07
-6.0978e-08
-9.00983e-07
-7.76433e-08
-8.62623e-07
-9.36142e-08
-8.18537e-07
-1.08586e-07
-7.69228e-07
-1.22261e-07
-7.15298e-07
-1.34358e-07
-6.57436e-07
-1.44616e-07
-5.9641e-07
-1.52808e-07
-5.3305e-07
-1.58747e-07
-4.68239e-07
-1.62293e-07
-4.02892e-07
-1.6336e-07
-3.37935e-07
-1.61919e-07
-2.74289e-07
-1.58006e-07
-2.12848e-07
-1.51719e-07
-1.54456e-07
-1.43217e-07
-9.98859e-08
-1.32718e-07
-4.98235e-08
-1.2049e-07
-4.84966e-09
-1.06843e-07
3.45752e-08
-9.2119e-08
6.81168e-08
-7.66762e-08
9.55757e-08
-6.08805e-08
1.16887e-07
-4.509e-08
1.32119e-07
-2.96444e-08
1.41465e-07
-1.48566e-08
1.45237e-07
-1.00731e-09
1.43852e-07
1.16565e-08
1.37829e-07
2.29159e-08
1.27775e-07
3.25719e-08
1.14383e-07
4.04304e-08
9.84299e-08
4.62842e-08
8.07824e-08
4.98944e-08
6.23985e-08
5.09761e-08
4.43331e-08
4.9198e-08
2.77393e-08
4.42104e-08
1.38662e-08
3.57156e-08
4.07488e-09
2.36169e-08
8.39034e-09
1.0199e-09
-5.54331e-09
2.20984e-09
-9.66302e-09
2.37356e-09
-8.88569e-09
7.25714e-10
-4.71774e-09
-3.25808e-09
1.7219e-09
-9.91681e-09
9.58619e-09
-1.94572e-08
1.82657e-08
-3.19968e-08
2.73525e-08
-4.7597e-08
3.65945e-08
-6.62859e-08
4.58529e-08
-8.8074e-08
5.50656e-08
-1.12963e-07
6.42176e-08
-1.4095e-07
7.33165e-08
-1.72025e-07
8.2375e-08
-2.0617e-07
9.13973e-08
-2.43352e-07
1.00371e-07
-2.83512e-07
1.09261e-07
-3.26567e-07
1.18006e-07
-3.72391e-07
1.2652e-07
-4.20817e-07
1.34691e-07
-4.71627e-07
1.42384e-07
-5.24547e-07
1.49444e-07
-5.79246e-07
1.55702e-07
-6.35333e-07
1.60975e-07
-6.92358e-07
1.65078e-07
-7.49817e-07
1.67823e-07
-8.07153e-07
1.69029e-07
-8.63766e-07
1.68528e-07
-9.19018e-07
1.66167e-07
-9.72246e-07
1.61819e-07
-1.02277e-06
1.55383e-07
-1.06992e-06
1.46794e-07
-1.11301e-06
1.36024e-07
-1.1514e-06
1.23082e-07
-1.18448e-06
1.08025e-07
-1.21168e-06
9.09514e-08
-1.23248e-06
7.20044e-08
-1.24646e-06
5.13724e-08
-1.25325e-06
2.92865e-08
-1.25258e-06
6.01951e-09
-1.24426e-06
-1.81339e-08
-1.22821e-06
-4.28209e-08
-1.20446e-06
-6.76746e-08
-1.17313e-06
-9.23055e-08
-1.13446e-06
-1.16308e-07
-1.08881e-06
-1.3927e-07
-1.03662e-06
-1.60778e-07
-9.78445e-07
-1.80432e-07
-9.14955e-07
-1.97848e-07
-8.46896e-07
-2.12675e-07
-7.75101e-07
-2.24603e-07
-7.00476e-07
-2.33373e-07
-6.23982e-07
-2.38787e-07
-5.46622e-07
-2.4072e-07
-4.69422e-07
-2.3912e-07
-3.93407e-07
-2.34021e-07
-3.19585e-07
-2.25541e-07
-2.48921e-07
-2.13882e-07
-1.82313e-07
-1.99326e-07
-1.20575e-07
-1.82228e-07
-6.44135e-08
-1.63005e-07
-1.44137e-08
-1.42119e-07
2.89774e-08
-1.20067e-07
6.5458e-08
-9.73611e-08
9.48775e-08
-7.45096e-08
1.17238e-07
-5.20045e-08
1.32688e-07
-3.03075e-08
1.41522e-07
-9.8412e-09
1.44165e-07
9.01338e-09
1.41167e-07
2.59141e-08
1.33192e-07
4.05471e-08
1.21012e-07
5.26109e-08
1.055e-07
6.1796e-08
8.76314e-08
6.77629e-08
6.84827e-08
7.01248e-08
4.92367e-08
6.8444e-08
3.11943e-08
6.22528e-08
1.57998e-08
5.11101e-08
4.70672e-09
3.471e-08
1.30971e-08
4.27133e-10
-5.97039e-09
8.37642e-11
-9.31964e-09
-2.07811e-09
-6.72387e-09
-6.74494e-09
-5.0947e-11
-1.43545e-08
9.33145e-09
-2.51875e-08
2.04192e-08
-3.94116e-08
3.24898e-08
-5.7125e-08
4.50659e-08
-7.83838e-08
5.78533e-08
-1.0322e-07
7.06891e-08
-1.31652e-07
8.34978e-08
-1.6369e-07
9.62552e-08
-1.99333e-07
1.0896e-07
-2.38569e-07
1.21611e-07
-2.81367e-07
1.34195e-07
-3.27668e-07
1.46673e-07
-3.77382e-07
1.58975e-07
-4.30374e-07
1.70998e-07
-4.8646e-07
1.82606e-07
-5.45399e-07
1.93631e-07
-6.06891e-07
2.03876e-07
-6.70567e-07
2.13121e-07
-7.35997e-07
2.21131e-07
-8.02682e-07
2.2766e-07
-8.70064e-07
2.3246e-07
-9.37529e-07
2.35288e-07
-1.00441e-06
2.35915e-07
-1.07002e-06
2.34133e-07
-1.13362e-06
2.29764e-07
-1.19446e-06
2.22665e-07
-1.25181e-06
2.12733e-07
-1.30493e-06
1.99915e-07
-1.35311e-06
1.84205e-07
-1.39568e-06
1.65652e-07
-1.43202e-06
1.44358e-07
-1.46155e-06
1.20482e-07
-1.48378e-06
9.42356e-08
-1.49829e-06
6.58834e-08
-1.50474e-06
3.57415e-08
-1.5029e-06
4.17521e-09
-1.49259e-06
-2.84402e-08
-1.47378e-06
-6.16384e-08
-1.4465e-06
-9.49546e-08
-1.4109e-06
-1.27896e-07
-1.36726e-06
-1.5995e-07
-1.31593e-06
-1.90599e-07
-1.25739e-06
-2.19324e-07
-1.1922e-06
-2.45619e-07
-1.12105e-06
-2.69e-07
-1.0447e-06
-2.8902e-07
-9.64024e-07
-3.05281e-07
-8.79954e-07
-3.17443e-07
-7.93498e-07
-3.25243e-07
-7.05715e-07
-3.28503e-07
-6.17698e-07
-3.27137e-07
-5.30554e-07
-3.21165e-07
-4.45383e-07
-3.10712e-07
-3.63253e-07
-2.96012e-07
-2.85178e-07
-2.77401e-07
-2.12091e-07
-2.55315e-07
-1.44825e-07
-2.30271e-07
-8.4088e-08
-2.02856e-07
-3.04491e-08
-1.73706e-07
1.56768e-08
-1.43487e-07
5.40379e-08
-1.12871e-07
8.45499e-08
-8.25165e-08
1.07296e-07
-5.3054e-08
1.22525e-07
-2.50694e-08
1.30639e-07
8.99359e-10
1.32189e-07
2.4364e-08
1.27864e-07
4.48722e-08
1.18479e-07
6.19957e-08
1.0497e-07
7.53049e-08
8.83873e-08
8.43455e-08
6.98957e-08
8.86164e-08
5.07807e-08
8.75589e-08
3.24686e-08
8.05649e-08
1.65682e-08
6.70105e-08
4.95745e-09
4.63207e-08
1.80545e-08
-3.22786e-10
-5.64761e-09
-2.58971e-09
-7.05272e-09
-7.62905e-09
-1.68454e-09
-1.59487e-08
8.26866e-09
-2.78664e-08
2.12492e-08
-4.35637e-08
3.61165e-08
-6.31469e-08
5.20729e-08
-8.66777e-08
6.85968e-08
-1.14196e-07
8.53713e-08
-1.45729e-07
1.02223e-07
-1.81299e-07
1.19068e-07
-2.20919e-07
1.35875e-07
-2.64588e-07
1.52629e-07
-3.12286e-07
1.69308e-07
-3.63962e-07
1.85871e-07
-4.19528e-07
2.02239e-07
-4.78851e-07
2.18297e-07
-5.4174e-07
2.33887e-07
-6.07943e-07
2.48809e-07
-6.77141e-07
2.62829e-07
-7.48943e-07
2.75678e-07
-8.22889e-07
2.87067e-07
-8.98447e-07
2.96689e-07
-9.75018e-07
3.04231e-07
-1.05195e-06
3.09388e-07
-1.12852e-06
3.11864e-07
-1.204e-06
3.11391e-07
-1.2776e-06
3.07735e-07
-1.34854e-06
3.00701e-07
-1.41602e-06
2.90145e-07
-1.47926e-06
2.75979e-07
-1.53752e-06
2.58172e-07
-1.59007e-06
2.36758e-07
-1.63625e-06
2.11833e-07
-1.67545e-06
1.83558e-07
-1.70713e-06
1.52157e-07
-1.73081e-06
1.17913e-07
-1.74609e-06
8.11691e-08
-1.75268e-06
4.23246e-08
-1.75035e-06
1.84929e-09
-1.73894e-06
-3.98459e-08
-1.71843e-06
-8.21498e-08
-1.68887e-06
-1.24519e-07
-1.6504e-06
-1.66364e-07
-1.60328e-06
-2.07073e-07
-1.54785e-06
-2.46025e-07
-1.48458e-06
-2.82599e-07
-1.41401e-06
-3.16185e-07
-1.33682e-06
-3.46195e-07
-1.25375e-06
-3.72082e-07
-1.16568e-06
-3.9335e-07
-1.07355e-06
-4.09573e-07
-9.78393e-07
-4.20405e-07
-8.81292e-07
-4.25603e-07
-7.83398e-07
-4.25031e-07
-6.85885e-07
-4.18678e-07
-5.89936e-07
-4.0666e-07
-4.9672e-07
-3.89228e-07
-4.07361e-07
-3.66761e-07
-3.22915e-07
-3.39761e-07
-2.44343e-07
-3.08843e-07
-1.72486e-07
-2.74713e-07
-1.08043e-07
-2.38149e-07
-5.15538e-08
-1.99976e-07
-3.38578e-09
-1.61039e-07
3.6276e-08
-1.22178e-07
6.74305e-08
-8.42085e-08
9.02603e-08
-4.78992e-08
1.05125e-07
-1.39657e-08
1.12556e-07
1.69334e-08
1.13239e-07
4.41887e-08
1.08012e-07
6.72235e-08
9.78457e-08
8.54709e-08
8.38454e-08
9.83458e-08
6.72432e-08
1.05219e-07
4.94081e-08
1.05394e-07
3.18687e-08
9.81043e-08
1.63595e-08
8.25197e-08
4.90534e-09
5.7775e-08
2.29598e-08
-1.1976e-09
-4.45006e-09
-5.71452e-09
-2.53579e-09
-1.4086e-08
6.68696e-09
-2.65994e-08
2.07821e-08
-4.33975e-08
3.80473e-08
-6.454e-08
5.7259e-08
-9.00487e-08
7.75816e-08
-1.19934e-07
9.84821e-08
-1.54208e-07
1.19646e-07
-1.92889e-07
1.40903e-07
-2.35994e-07
1.62173e-07
-2.83534e-07
1.83415e-07
-3.35504e-07
2.04598e-07
-3.91868e-07
2.25672e-07
-4.52552e-07
2.46555e-07
-5.17431e-07
2.67118e-07
-5.8632e-07
2.87187e-07
-6.58969e-07
3.06535e-07
-7.35051e-07
3.24891e-07
-8.14165e-07
3.41943e-07
-8.95834e-07
3.57347e-07
-9.79504e-07
3.70737e-07
-1.06455e-06
3.81736e-07
-1.15029e-06
3.89969e-07
-1.23598e-06
3.95076e-07
-1.32084e-06
3.96723e-07
-1.40406e-06
3.94612e-07
-1.48482e-06
3.88494e-07
-1.56229e-06
3.78176e-07
-1.63567e-06
3.63527e-07
-1.70418e-06
3.44484e-07
-1.76706e-06
3.21057e-07
-1.82363e-06
2.93324e-07
-1.87323e-06
2.61438e-07
-1.9153e-06
2.25622e-07
-1.94931e-06
1.86166e-07
-1.97482e-06
1.43424e-07
-1.99146e-06
9.78112e-08
-1.99893e-06
4.97928e-08
-1.99708e-06
-1.32079e-12
-1.98565e-06
-5.12701e-08
-1.96467e-06
-1.03131e-07
-1.93416e-06
-1.55034e-07
-1.89422e-06
-2.06295e-07
-1.84509e-06
-2.56209e-07
-1.78706e-06
-3.04056e-07
-1.72054e-06
-3.49116e-07
-1.64605e-06
-3.90672e-07
-1.56421e-06
-4.28034e-07
-1.47575e-06
-4.60546e-07
-1.3815e-06
-4.87604e-07
-1.28239e-06
-5.08681e-07
-1.17946e-06
-5.23337e-07
-1.07382e-06
-5.31242e-07
-9.66656e-07
-5.32193e-07
-8.59209e-07
-5.26125e-07
-7.52741e-07
-5.13129e-07
-6.48518e-07
-4.9345e-07
-5.47783e-07
-4.67495e-07
-4.51721e-07
-4.35823e-07
-3.61432e-07
-3.99133e-07
-2.77898e-07
-3.58246e-07
-2.01965e-07
-3.14083e-07
-1.34309e-07
-2.67631e-07
-7.54284e-08
-2.19919e-07
-2.56244e-08
-1.71982e-07
1.50026e-08
-1.24835e-07
4.65545e-08
-7.94511e-08
6.93321e-08
-3.67433e-08
8.3827e-08
2.43852e-09
9.07101e-08
3.73056e-08
9.08203e-08
6.71133e-08
8.51522e-08
9.11389e-08
7.48477e-08
1.0865e-07
6.11923e-08
1.18874e-07
4.56217e-08
1.20965e-07
2.97431e-08
1.13983e-07
1.53767e-08
9.68861e-08
4.62443e-09
6.85272e-08
2.75843e-08
-2.17869e-09
-2.27139e-09
-9.21494e-09
4.50045e-09
-2.1301e-08
1.8773e-08
-3.8453e-08
3.79341e-08
-6.06057e-08
6.02e-08
-8.76687e-08
8.4322e-08
-1.19561e-07
1.09474e-07
-1.5623e-07
1.35151e-07
-1.97651e-07
1.61067e-07
-2.43823e-07
1.87075e-07
-2.94755e-07
2.13105e-07
-3.50451e-07
2.39111e-07
-4.10893e-07
2.6504e-07
-4.76025e-07
2.90805e-07
-5.45743e-07
3.16273e-07
-6.19878e-07
3.41253e-07
-6.98191e-07
3.65499e-07
-7.80362e-07
3.88707e-07
-8.65994e-07
4.10523e-07
-9.54602e-07
4.30552e-07
-1.04563e-06
4.48371e-07
-1.13843e-06
4.63538e-07
-1.2323e-06
4.75612e-07
-1.32649e-06
4.84161e-07
-1.4202e-06
4.88783e-07
-1.51259e-06
4.89115e-07
-1.60283e-06
4.84846e-07
-1.69006e-06
4.75727e-07
-1.77347e-06
4.61581e-07
-1.85224e-06
4.42302e-07
-1.92563e-06
4.17867e-07
-1.9929e-06
3.8833e-07
-2.0534e-06
3.53824e-07
-2.10652e-06
3.14558e-07
-2.15171e-06
2.70816e-07
-2.1885e-06
2.22951e-07
-2.21646e-06
1.71381e-07
-2.23523e-06
1.16585e-07
-2.24454e-06
5.91e-08
-2.24411e-06
-4.26449e-10
-2.23387e-06
-6.15159e-08
-2.21367e-06
-1.23325e-07
-2.18352e-06
-1.85182e-07
-2.14349e-06
-2.46328e-07
-2.09373e-06
-3.05972e-07
-2.03448e-06
-3.63307e-07
-1.96608e-06
-4.17512e-07
-1.88898e-06
-4.67768e-07
-1.80374e-06
-5.13273e-07
-1.71103e-06
-5.53256e-07
-1.61164e-06
-5.86999e-07
-1.50647e-06
-6.13853e-07
-1.39654e-06
-6.33269e-07
-1.28297e-06
-6.44809e-07
-1.16698e-06
-6.48177e-07
-1.04987e-06
-6.43236e-07
-9.3298e-07
-6.30022e-07
-8.17674e-07
-6.08756e-07
-7.0532e-07
-5.7985e-07
-5.97242e-07
-5.439e-07
-4.94693e-07
-5.01682e-07
-3.98817e-07
-4.54123e-07
-3.10616e-07
-4.02284e-07
-2.30926e-07
-3.47321e-07
-1.60391e-07
-2.90454e-07
-9.94466e-08
-2.32927e-07
-4.83086e-08
-1.75973e-07
-6.97052e-09
-1.20789e-07
2.4795e-08
-6.85088e-08
4.7428e-08
-2.01945e-08
6.1571e-08
2.31626e-08
6.80541e-08
6.06301e-08
6.78828e-08
9.13102e-08
6.22264e-08
1.14307e-07
5.24119e-08
1.28688e-07
3.99275e-08
1.33449e-07
2.64375e-08
1.27473e-07
1.38132e-08
1.0951e-07
4.18009e-09
7.81603e-08
3.17644e-08
-3.2505e-09
9.79121e-10
-1.30317e-08
1.42817e-08
-2.91457e-08
3.4887e-08
-5.12969e-08
6.00853e-08
-7.91817e-08
8.80849e-08
-1.12537e-07
1.17677e-07
-1.51164e-07
1.48102e-07
-1.94936e-07
1.78922e-07
-2.43783e-07
2.09914e-07
-2.97681e-07
2.40973e-07
-3.56625e-07
2.72048e-07
-4.20603e-07
3.0309e-07
-4.89581e-07
3.34018e-07
-5.63477e-07
3.64701e-07
-6.42149e-07
3.94944e-07
-7.25379e-07
4.24483e-07
-8.12869e-07
4.52989e-07
-9.04233e-07
4.80071e-07
-9.98997e-07
5.05287e-07
-1.0966e-06
5.28158e-07
-1.19641e-06
5.48181e-07
-1.29772e-06
5.64844e-07
-1.39976e-06
5.77647e-07
-1.50171e-06
5.86115e-07
-1.60274e-06
5.89816e-07
-1.702e-06
5.88372e-07
-1.79863e-06
5.81475e-07
-1.89179e-06
5.6889e-07
-1.98068e-06
5.50468e-07
-2.06452e-06
5.2614e-07
-2.14258e-06
4.95929e-07
-2.21419e-06
4.59938e-07
-2.27872e-06
4.18354e-07
-2.3356e-06
3.71443e-07
-2.38433e-06
3.19542e-07
-2.42444e-06
2.63059e-07
-2.45552e-06
2.02466e-07
-2.47723e-06
1.38296e-07
-2.48927e-06
7.11394e-08
-2.49136e-06
1.66347e-09
-2.48337e-06
-6.95116e-08
-2.46512e-06
-1.41569e-07
-2.43656e-06
-2.13742e-07
-2.39769e-06
-2.85204e-07
-2.34857e-06
-3.55087e-07
-2.28938e-06
-4.225e-07
-2.22036e-06
-4.86527e-07
-2.14189e-06
-5.46245e-07
-2.05442e-06
-6.00739e-07
-1.95856e-06
-6.49117e-07
-1.85503e-06
-6.90531e-07
-1.74468e-06
-7.24203e-07
-1.6285e-06
-7.49447e-07
-1.50761e-06
-7.65701e-07
-1.38324e-06
-7.72548e-07
-1.25673e-06
-7.69749e-07
-1.12949e-06
-7.57258e-07
-1.003e-06
-7.35242e-07
-8.7876e-07
-7.04094e-07
-7.58233e-07
-6.64427e-07
-6.42843e-07
-6.17071e-07
-5.33912e-07
-5.63054e-07
-4.32626e-07
-5.0357e-07
-3.39999e-07
-4.39948e-07
-2.56845e-07
-3.73608e-07
-1.83755e-07
-3.06017e-07
-1.21079e-07
-2.38649e-07
-6.89239e-08
-1.72944e-07
-2.71509e-08
-1.10282e-07
4.61674e-09
-5.19622e-08
2.6982e-08
7.97323e-10
4.07579e-08
4.68542e-08
4.69531e-08
8.5115e-08
4.67567e-08
1.14503e-07
4.15291e-08
1.33916e-07
3.27992e-08
1.42179e-07
2.22714e-08
1.38001e-07
1.18428e-08
1.19939e-07
3.62825e-09
8.63748e-08
3.53926e-08
-4.39942e-09
5.37857e-09
-1.71107e-08
2.69929e-08
-3.75019e-08
5.52782e-08
-6.49317e-08
8.75151e-08
-9.88326e-08
1.21986e-07
-1.3875e-07
1.57595e-07
-1.84357e-07
1.93708e-07
-2.35441e-07
2.30006e-07
-2.91885e-07
2.66358e-07
-3.53635e-07
3.02722e-07
-4.20662e-07
3.39076e-07
-4.92941e-07
3.75368e-07
-5.7041e-07
4.11487e-07
-6.52955e-07
4.47247e-07
-7.40393e-07
4.82382e-07
-8.32454e-07
5.16544e-07
-9.28778e-07
5.49313e-07
-1.02891e-06
5.80206e-07
-1.13232e-06
6.08691e-07
-1.23836e-06
6.34203e-07
-1.34635e-06
6.56166e-07
-1.45551e-06
6.74004e-07
-1.56503e-06
6.87172e-07
-1.67408e-06
6.95163e-07
-1.78179e-06
6.97529e-07
-1.88732e-06
6.93895e-07
-1.98981e-06
6.83967e-07
-2.08845e-06
6.67538e-07
-2.18248e-06
6.44494e-07
-2.27116e-06
6.14814e-07
-2.35379e-06
5.78566e-07
-2.42976e-06
5.35905e-07
-2.49848e-06
4.87069e-07
-2.5594e-06
4.32371e-07
-2.61206e-06
3.72198e-07
-2.656e-06
3.07002e-07
-2.69083e-06
2.37297e-07
-2.71619e-06
1.63656e-07
-2.73177e-06
8.6713e-08
-2.73726e-06
7.15609e-09
-2.73247e-06
-7.43017e-08
-2.71719e-06
-1.56845e-07
-2.6913e-06
-2.3964e-07
-2.6547e-06
-3.218e-07
-2.6074e-06
-4.02392e-07
-2.54945e-06
-4.80444e-07
-2.48102e-06
-5.54955e-07
-2.40237e-06
-6.24901e-07
-2.31385e-06
-6.89251e-07
-2.21598e-06
-7.46988e-07
-2.10939e-06
-7.97127e-07
-1.99485e-06
-8.38744e-07
-1.87329e-06
-8.71001e-07
-1.74581e-06
-8.93183e-07
-1.61363e-06
-9.04729e-07
-1.47811e-06
-9.05262e-07
-1.34075e-06
-8.94623e-07
-1.2031e-06
-8.7289e-07
-1.06679e-06
-8.40403e-07
-9.33458e-07
-7.97762e-07
-8.04698e-07
-7.45832e-07
-6.82033e-07
-6.85719e-07
-5.66857e-07
-6.18746e-07
-4.60392e-07
-5.46414e-07
-3.6365e-07
-4.7035e-07
-2.77403e-07
-3.92264e-07
-2.02166e-07
-3.13887e-07
-1.38178e-07
-2.36932e-07
-8.54081e-08
-1.63052e-07
-4.35574e-08
-9.38129e-08
-1.20741e-08
-3.0686e-08
9.83023e-09
2.49499e-08
2.31604e-08
7.17848e-08
2.91204e-08
1.08543e-07
2.90976e-08
1.33939e-07
2.46541e-08
1.46622e-07
1.75236e-08
1.45131e-07
9.61449e-09
1.27848e-07
3.01549e-09
9.29738e-08
3.84081e-08
-5.61263e-09
1.09912e-08
-2.1398e-08
4.27783e-08
-4.6253e-08
8.01333e-08
-7.9161e-08
1.20423e-07
-1.1927e-07
1.62094e-07
-1.6592e-07
2.04245e-07
-2.18645e-07
2.46433e-07
-2.77145e-07
2.88506e-07
-3.41247e-07
3.3046e-07
-4.10861e-07
3.72337e-07
-4.85938e-07
4.14153e-07
-5.66423e-07
4.55854e-07
-6.52229e-07
4.97293e-07
-7.43204e-07
5.38222e-07
-8.39118e-07
5.78295e-07
-9.39646e-07
6.17072e-07
-1.04437e-06
6.54037e-07
-1.15277e-06
6.8861e-07
-1.26425e-06
7.2017e-07
-1.37812e-06
7.48073e-07
-1.49363e-06
7.71673e-07
-1.60997e-06
7.90348e-07
-1.72632e-06
8.03515e-07
-1.8418e-06
8.10651e-07
-1.95558e-06
8.11308e-07
-2.06681e-06
8.05126e-07
-2.17468e-06
7.91836e-07
-2.27841e-06
7.71269e-07
-2.37728e-06
7.43355e-07
-2.47058e-06
7.08118e-07
-2.55769e-06
6.65675e-07
-2.63801e-06
6.16229e-07
-2.711e-06
5.60062e-07
-2.77617e-06
4.97532e-07
-2.83303e-06
4.29061e-07
-2.88116e-06
3.55138e-07
-2.92018e-06
2.76311e-07
-2.9497e-06
1.93182e-07
-2.9694e-06
1.06413e-07
-2.97897e-06
1.67192e-08
-2.97813e-06
-7.51399e-08
-2.96664e-06
-1.6833e-07
-2.94431e-06
-2.61974e-07
-2.91097e-06
-3.55137e-07
-2.86653e-06
-4.46831e-07
-2.81096e-06
-5.36019e-07
-2.7443e-06
-6.21617e-07
-2.66669e-06
-7.02509e-07
-2.57838e-06
-7.77556e-07
-2.47976e-06
-8.45611e-07
-2.37134e-06
-9.0555e-07
-2.25379e-06
-9.5629e-07
-2.12797e-06
-9.96827e-07
-1.99488e-06
-1.02627e-06
-1.85573e-06
-1.04388e-06
-1.71189e-06
-1.04911e-06
-1.56487e-06
-1.04164e-06
-1.41632e-06
-1.02144e-06
-1.26799e-06
-9.88734e-07
-1.12167e-06
-9.44082e-07
-9.79154e-07
-8.88345e-07
-8.42187e-07
-8.22686e-07
-7.12393e-07
-7.4854e-07
-5.91235e-07
-6.67572e-07
-4.79959e-07
-5.81627e-07
-3.79555e-07
-4.92667e-07
-2.90733e-07
-4.02709e-07
-2.13898e-07
-3.13767e-07
-1.4915e-07
-2.278e-07
-9.6288e-08
-1.46675e-07
-5.48263e-08
-7.21476e-08
-2.40117e-08
-5.86471e-09
-2.84901e-09
5.06221e-08
9.87571e-09
9.58185e-08
1.55738e-08
1.28241e-07
1.58365e-08
1.4636e-07
1.24229e-08
1.48545e-07
7.24937e-09
1.33022e-07
2.37895e-09
9.78443e-08
4.07871e-08
-6.87466e-09
1.78659e-08
-2.58367e-08
6.17404e-08
-5.52785e-08
1.09575e-07
-9.37843e-08
1.58929e-07
-1.40201e-07
2.08511e-07
-1.93655e-07
2.577e-07
-2.53535e-07
3.06313e-07
-3.19447e-07
3.54418e-07
-3.91161e-07
4.02174e-07
-4.68549e-07
4.49725e-07
-5.51531e-07
4.97135e-07
-6.40026e-07
5.44348e-07
-7.3391e-07
5.91177e-07
-8.32991e-07
6.37304e-07
-9.3699e-07
6.82294e-07
-1.04553e-06
7.25612e-07
-1.15813e-06
7.6664e-07
-1.27423e-06
8.04704e-07
-1.39316e-06
8.39098e-07
-1.51419e-06
8.69103e-07
-1.63653e-06
8.9402e-07
-1.75937e-06
9.13185e-07
-1.88185e-06
9.25996e-07
-2.00313e-06
9.31927e-07
-2.12236e-06
9.30544e-07
-2.23874e-06
9.21509e-07
-2.3515e-06
9.04593e-07
-2.4599e-06
8.79666e-07
-2.56325e-06
8.46705e-07
-2.66091e-06
8.05781e-07
-2.75229e-06
7.57056e-07
-2.83684e-06
7.00778e-07
-2.91405e-06
6.37269e-07
-2.98344e-06
5.6692e-07
-3.04456e-06
4.90188e-07
-3.09701e-06
4.07588e-07
-3.14039e-06
3.19691e-07
-3.17434e-06
2.27125e-07
-3.19849e-06
1.3057e-07
-3.21253e-06
3.07597e-08
-3.21615e-06
-7.15194e-08
-3.20907e-06
-1.75417e-07
-3.19101e-06
-2.80027e-07
-3.16177e-06
-3.84382e-07
-3.12115e-06
-4.87454e-07
-3.06901e-06
-5.88153e-07
-3.0053e-06
-6.85331e-07
-2.93002e-06
-7.77789e-07
-2.84329e-06
-8.64287e-07
-2.74534e-06
-9.43562e-07
-2.63654e-06
-1.01434e-06
-2.51744e-06
-1.07539e-06
-2.38876e-06
-1.12551e-06
-2.2514e-06
-1.16362e-06
-2.1065e-06
-1.18878e-06
-1.95536e-06
-1.20024e-06
-1.79953e-06
-1.19748e-06
-1.6407e-06
-1.18027e-06
-1.48072e-06
-1.14872e-06
-1.32153e-06
-1.10327e-06
-1.16513e-06
-1.04475e-06
-1.01349e-06
-9.74325e-07
-8.68503e-07
-8.93528e-07
-7.31901e-07
-8.04174e-07
-6.05208e-07
-7.0832e-07
-4.89677e-07
-6.08197e-07
-3.86255e-07
-5.06131e-07
-2.95554e-07
-4.04469e-07
-2.17838e-07
-3.05515e-07
-1.53035e-07
-2.11478e-07
-1.00743e-07
-1.2444e-07
-6.02582e-08
-4.63492e-08
-3.0605e-08
2.09688e-08
-1.05633e-08
7.57768e-08
1.30013e-09
1.16377e-07
6.60642e-09
1.41053e-07
7.14212e-09
1.48009e-07
4.83818e-09
1.35326e-07
1.74615e-09
1.00936e-07
4.25332e-08
-8.16858e-09
2.60344e-08
-3.03655e-08
8.39373e-08
-6.44517e-08
1.43661e-07
-1.08595e-07
2.03072e-07
-1.6133e-07
2.61246e-07
-2.21562e-07
3.17933e-07
-2.88533e-07
3.73284e-07
-3.61752e-07
4.27637e-07
-4.40929e-07
4.8135e-07
-5.25895e-07
5.34691e-07
-6.16537e-07
5.87777e-07
-7.1274e-07
6.40551e-07
-8.14344e-07
6.9278e-07
-9.21112e-07
7.44072e-07
-1.03272e-06
7.93898e-07
-1.14873e-06
8.41621e-07
-1.26861e-06
8.86526e-07
-1.39175e-06
9.27845e-07
-1.51745e-06
9.64791e-07
-1.64493e-06
9.96585e-07
-1.77339e-06
1.02248e-06
-1.902e-06
1.04179e-06
-2.02991e-06
1.05391e-06
-2.1563e-06
1.05831e-06
-2.28035e-06
1.0546e-06
-2.40129e-06
1.04245e-06
-2.51839e-06
1.02169e-06
-2.63095e-06
9.92228e-07
-2.73834e-06
9.5409e-07
-2.83995e-06
9.07393e-07
-2.93524e-06
8.52341e-07
-3.02368e-06
7.89222e-07
-3.1048e-06
7.18393e-07
-3.17816e-06
6.40278e-07
-3.24333e-06
5.5536e-07
-3.29992e-06
4.64179e-07
-3.34756e-06
3.67325e-07
-3.38588e-06
2.65443e-07
-3.41453e-06
1.59224e-07
-3.43318e-06
4.94147e-08
-3.44152e-06
-6.31863e-08
-3.43921e-06
-1.77721e-07
-3.42597e-06
-2.93271e-07
-3.4015e-06
-4.08853e-07
-3.36554e-06
-5.23415e-07
-3.31786e-06
-6.35835e-07
-3.25827e-06
-7.44919e-07
-3.18665e-06
-8.49404e-07
-3.10297e-06
-9.47969e-07
-3.00729e-06
-1.03924e-06
-2.89982e-06
-1.12182e-06
-2.78092e-06
-1.19429e-06
-2.65113e-06
-1.2553e-06
-2.51123e-06
-1.30353e-06
-2.36219e-06
-1.33782e-06
-2.20527e-06
-1.35716e-06
-2.04193e-06
-1.36081e-06
-1.8739e-06
-1.34831e-06
-1.70307e-06
-1.31954e-06
-1.53153e-06
-1.27481e-06
-1.36147e-06
-1.21481e-06
-1.19509e-06
-1.14071e-06
-1.03456e-06
-1.05405e-06
-8.81941e-07
-9.56794e-07
-7.39067e-07
-8.51194e-07
-6.07508e-07
-7.39757e-07
-4.88501e-07
-6.25138e-07
-3.82915e-07
-5.10055e-07
-2.91229e-07
-3.97201e-07
-2.13533e-07
-2.89174e-07
-1.49541e-07
-1.88432e-07
-9.86209e-08
-9.72696e-08
-5.98265e-08
-1.78257e-08
-3.19389e-08
4.78893e-08
-1.35038e-08
9.79422e-08
-2.86672e-09
1.30416e-07
1.7947e-09
1.43348e-07
2.44062e-09
1.3468e-07
1.13487e-09
1.02242e-07
4.36681e-08
-9.47558e-09
3.551e-08
-3.49183e-08
1.0938e-07
-7.36391e-08
1.82382e-07
-1.23377e-07
2.5281e-07
-1.82351e-07
3.2022e-07
-2.49244e-07
3.84825e-07
-3.23144e-07
4.47185e-07
-4.03468e-07
5.07961e-07
-4.89861e-07
5.67744e-07
-5.82112e-07
6.26942e-07
-6.80071e-07
6.85736e-07
-7.83587e-07
7.44067e-07
-8.92458e-07
8.01652e-07
-1.0064e-06
8.58018e-07
-1.12505e-06
9.12541e-07
-1.24791e-06
9.64482e-07
-1.37441e-06
1.01303e-06
-1.50389e-06
1.05732e-06
-1.63561e-06
1.09651e-06
-1.76879e-06
1.12976e-06
-1.9026e-06
1.1563e-06
-2.03622e-06
1.17542e-06
-2.16882e-06
1.18651e-06
-2.2996e-06
1.18909e-06
-2.42776e-06
1.18276e-06
-2.55258e-06
1.16727e-06
-2.67337e-06
1.14247e-06
-2.78946e-06
1.10832e-06
-2.90027e-06
1.0649e-06
-3.00523e-06
1.01236e-06
-3.10384e-06
9.50942e-07
-3.1956e-06
8.80984e-07
-3.28008e-06
8.02873e-07
-3.35686e-06
7.17063e-07
-3.42557e-06
6.24066e-07
-3.48583e-06
5.24442e-07
-3.5373e-06
4.188e-07
-3.57966e-06
3.07795e-07
-3.61256e-06
1.9213e-07
-3.6357e-06
7.25533e-08
-3.64875e-06
-5.01363e-08
-3.65139e-06
-1.75084e-07
-3.64329e-06
-3.01375e-07
-3.62411e-06
-4.28029e-07
-3.59353e-06
-5.53993e-07
-3.55123e-06
-6.78135e-07
-3.49691e-06
-7.99238e-07
-3.43031e-06
-9.16003e-07
-3.35124e-06
-1.02705e-06
-3.25957e-06
-1.13091e-06
-3.15531e-06
-1.22607e-06
-3.03861e-06
-1.31099e-06
-2.90982e-06
-1.38409e-06
-2.76948e-06
-1.44387e-06
-2.61841e-06
-1.48889e-06
-2.45768e-06
-1.51789e-06
-2.28867e-06
-1.52982e-06
-2.11303e-06
-1.52394e-06
-1.93269e-06
-1.49988e-06
-1.74983e-06
-1.45767e-06