/*--------------------------------*- C++ -*----------------------------------*\
  =========                 |
  \\      /  F ield         | OpenFOAM: The Open Source CFD Toolbox
   \\    /   O peration     | Website:  https://openfoam.org
    \\  /    A nd           | Version:  7
     \\/     M anipulation  |
\*---------------------------------------------------------------------------*/
FoamFile
{
    version     2.0;
    format      ascii;
    class       volScalarField;
    location    "1.45";
    object      p;
}
// * * * * * * * * * * * * * * * * * * * * * * * * * * * * * * * * * * * * * //

dimensions      [0 2 -2 0 0 0 0];

internalField   nonuniform List<scalar> 
6400
(
6.46056e-10
3.5756e-06
-1.19328e-05
-4.62959e-05
-9.60526e-05
-0.000157958
-0.000229157
-0.000307382
-0.000390934
-0.000478739
-0.000570056
-0.000664471
-0.000761693
-0.000861483
-0.000963584
-0.00106765
-0.00117321
-0.00127965
-0.00138618
-0.00149183
-0.00159548
-0.00169582
-0.00179142
-0.00188069
-0.00196193
-0.00203336
-0.00209313
-0.00213939
-0.0021703
-0.00218413
-0.00217928
-0.00215436
-0.00210828
-0.00204033
-0.00195021
-0.00183814
-0.00170493
-0.00155202
-0.00138151
-0.00119617
-0.000999445
-0.000795452
-0.00058885
-0.000384781
-0.000188739
-6.41486e-06
0.00015648
0.000294409
0.000402211
0.000475299
0.000509852
0.000502982
0.000452868
0.000358859
0.000221512
4.25985e-05
-0.000174961
-0.000427209
-0.000709275
-0.0010156
-0.00134011
-0.0016765
-0.00201838
-0.00235953
-0.00269408
-0.00301662
-0.00332234
-0.00360706
-0.00386726
-0.00410001
-0.00430297
-0.00447424
-0.0046124
-0.00471642
-0.00478581
-0.00482099
-0.00482405
-0.00480026
-0.00475979
-0.00471808
-4.22679e-06
-7.31902e-07
-1.54089e-05
-4.61548e-05
-8.9842e-05
-0.000144246
-0.000207342
-0.000277462
-0.000353057
-0.000433225
-0.000517255
-0.000604647
-0.000695031
-0.00078809
-0.000883496
-0.000980865
-0.00107972
-0.00117945
-0.00127932
-0.00137846
-0.00147583
-0.00157028
-0.00166049
-0.00174506
-0.00182244
-0.00189105
-0.0019492
-0.00199523
-0.00202749
-0.00204437
-0.00204443
-0.0020264
-0.00198928
-0.00193238
-0.00185543
-0.00175859
-0.0016426
-0.00150872
-0.00135885
-0.00119555
-0.00102192
-0.00084172
-0.000659217
-0.000479129
-0.000306501
-0.00014656
-4.55466e-06
0.000114427
0.000205647
0.000264898
0.000288686
0.000274385
0.000220363
0.000126069
-7.9244e-06
-0.000179927
-0.000387186
-0.000625992
-0.000891825
-0.00117951
-0.00148345
-0.00179781
-0.00211673
-0.0024345
-0.00274575
-0.00304556
-0.00332957
-0.00359402
-0.00383574
-0.00405219
-0.00424136
-0.00440176
-0.00453238
-0.00463268
-0.00470268
-0.00474323
-0.00475651
-0.00474667
-0.00471813
-0.00467635
1.0941e-05
1.3052e-05
-2.09081e-06
-3.15413e-05
-7.22509e-05
-0.000122475
-0.00018059
-0.000245212
-0.000315187
-0.000389688
-0.000468096
-0.000549955
-0.000634907
-0.000722634
-0.000812807
-0.000905047
-0.000998896
-0.00109379
-0.00118904
-0.00128385
-0.00137727
-0.00146824
-0.00155558
-0.00163797
-0.00171402
-0.00178223
-0.00184106
-0.00188894
-0.00192429
-0.00194561
-0.00195148
-0.00194066
-0.00191215
-0.00186523
-0.00179955
-0.0017152
-0.00161275
-0.00149333
-0.00135867
-0.0012111
-0.00105345
-0.00088933
-0.000722726
-0.000558106
-0.000400272
-0.000254219
-0.000124974
-1.74209e-05
6.38827e-05
0.000114889
0.000132236
0.000113399
5.68194e-05
-3.80126e-05
-0.000170514
-0.000339021
-0.000540838
-0.000772349
-0.00102916
-0.00130626
-0.00159825
-0.00189952
-0.00220446
-0.00250765
-0.002804
-0.00308892
-0.00335834
-0.00360883
-0.00383755
-0.00404229
-0.00422136
-0.00437359
-0.00449828
-0.00459515
-0.00466438
-0.00470668
-0.00472378
-0.00471838
-0.00468977
-0.00463584
4.63674e-05
4.34684e-05
2.55842e-05
-4.64703e-06
-4.46303e-05
-9.28341e-05
-0.000147937
-0.000208825
-0.000274621
-0.000344678
-0.000418519
-0.000495795
-0.000576222
-0.000659537
-0.000745461
-0.000833659
-0.000923718
-0.00101513
-0.00110728
-0.00119943
-0.00129073
-0.0013802
-0.00146674
-0.00154914
-0.00162608
-0.00169615
-0.00175787
-0.00180971
-0.00185013
-0.00187763
-0.00189076
-0.00188825
-0.00186899
-0.00183219
-0.00177736
-0.00170443
-0.00161383
-0.00150651
-0.00138403
-0.0012486
-0.00110263
-0.000949807
-0.000793929
-0.000639316
-0.000490665
-0.000352891
-0.00023096
-0.00012972
-5.37101e-05
-6.97357e-06
7.12032e-06
-1.39636e-05
-7.17978e-05
-0.000166903
-0.000298702
-0.000465533
-0.000664697
-0.000892573
-0.00114476
-0.00141628
-0.00170174
-0.00199557
-0.00229226
-0.00258649
-0.00287332
-0.00314834
-0.00340772
-0.00364827
-0.00386743
-0.00406329
-0.00423446
-0.00438006
-0.00449963
-0.00459306
-0.0046605
-0.00470236
-0.00471972
-0.00471403
-0.00468068
-0.00461246
9.93801e-05
8.77892e-05
6.48378e-05
3.21559e-05
-8.6093e-06
-5.61411e-05
-0.000109391
-0.000167545
-0.000230001
-0.000296336
-0.000366256
-0.000439558
-0.000516072
-0.000595635
-0.000678044
-0.00076304
-0.00085028
-0.00093933
-0.00102965
-0.00112059
-0.00121138
-0.00130112
-0.00138879
-0.00147327
-0.0015533
-0.0016275
-0.00169444
-0.00175258
-0.00180035
-0.00183621
-0.00185863
-0.00186621
-0.00185774
-0.00183223
-0.00178903
-0.00172789
-0.00164904
-0.00155323
-0.0014418
-0.00131667
-0.00118062
-0.0010367
-0.000888744
-0.000741034
-0.000598245
-0.000465298
-0.000347201
-0.000248866
-0.000174915
-0.00012949
-0.000116059
-0.000137253
-0.000194728
-0.000289068
-0.000419737
-0.00058508
-0.000782384
-0.00100799
-0.00125743
-0.00152566
-0.00180722
-0.00209651
-0.00238795
-0.00267624
-0.00295651
-0.00322444
-0.00347633
-0.0037092
-0.00392075
-0.0041093
-0.00427378
-0.00441357
-0.00452844
-0.0046184
-0.00468359
-0.00472416
-0.00474068
-0.00473363
-0.00469584
-0.00461692
0.000166927
0.000143696
0.000113762
7.71227e-05
3.42629e-05
-1.37653e-05
-6.61961e-05
-0.000122544
-0.000182501
-0.000245898
-0.000312657
-0.000382752
-0.000456166
-0.000532859
-0.000612739
-0.000695645
-0.000781328
-0.000869445
-0.000959546
-0.00105107
-0.00114333
-0.00123551
-0.00132666
-0.00141572
-0.00150145
-0.00158252
-0.00165744
-0.00172466
-0.00178253
-0.00182938
-0.00186356
-0.00188349
-0.00188776
-0.00187517
-0.00184485
-0.00179632
-0.00172956
-0.00164513
-0.00154417
-0.00142844
-0.00130053
-0.00116347
-0.001021
-0.000877414
-0.000737417
-0.000606006
-0.000488307
-0.000389382
-0.000314025
-0.000266566
-0.000250663
-0.000269129
-0.000323784
-0.000415343
-0.000543363
-0.000706237
-0.000901256
-0.00112471
-0.00137207
-0.00163815
-0.00191738
-0.00220402
-0.00249238
-0.00277708
-0.00305319
-0.00331641
-0.00356311
-0.00379043
-0.00399625
-0.00417914
-0.00433825
-0.00447322
-0.00458404
-0.00467087
-0.00473385
-0.00477299
-0.00478851
-0.00478031
-0.00473975
-0.00465481
0.000245583
0.000208558
0.000170019
0.0001282
8.21479e-05
3.26263e-05
-1.99005e-05
-7.53043e-05
-0.000133602
-0.000194901
-0.000259367
-0.000327181
-0.000398503
-0.000473445
-0.000552049
-0.000634274
-0.000719989
-0.000808956
-0.000900827
-0.000995136
-0.00109128
-0.00118854
-0.001286
-0.00138264
-0.00147724
-0.00156843
-0.00165469
-0.00173435
-0.00180564
-0.00186671
-0.00191571
-0.00195084
-0.00197043
-0.001973
-0.00195742
-0.00192291
-0.00186922
-0.00179664
-0.00170611
-0.00159927
-0.00147845
-0.00134668
-0.00120768
-0.00106573
-0.000925632
-0.000792508
-0.000671664
-0.000568381
-0.00048771
-0.000434253
-0.000411953
-0.000423902
-0.000472176
-0.000557714
-0.000680247
-0.000838288
-0.00102918
-0.00124921
-0.00149375
-0.00175753
-0.00203479
-0.00231961
-0.00260613
-0.00288879
-0.00316254
-0.00342296
-0.00366645
-0.00389017
-0.0040921
-0.00427102
-0.00442623
-0.00455761
-0.00466533
-0.00474973
-0.00481102
-0.00484916
-0.00486421
-0.00485574
-0.00481455
-0.00472812
0.000331853
0.000279312
0.000230936
0.000182964
0.000132849
8.10313e-05
2.76379e-05
-2.75975e-05
-8.50438e-05
-0.000145115
-0.000208242
-0.000274836
-0.000345257
-0.000419789
-0.000498631
-0.000581888
-0.000669557
-0.000761525
-0.000857561
-0.0009573
-0.00106023
-0.0011657
-0.00127284
-0.00138065
-0.00148788
-0.00159311
-0.0016947
-0.00179085
-0.00187959
-0.00195885
-0.00202652
-0.00208048
-0.00211877
-0.00213958
-0.00214143
-0.00212324
-0.00208443
-0.00202502
-0.00194573
-0.00184806
-0.00173394
-0.00160653
-0.00146946
-0.00132704
-0.00118417
-0.00104612
-0.000918438
-0.000806675
-0.000716213
-0.000652016
-0.000618414
-0.000618885
-0.000655881
-0.00073068
-0.000843304
-0.000992487
-0.00117572
-0.00138934
-0.00162873
-0.00188848
-0.00216269
-0.00244523
-0.00272999
-0.00301119
-0.00328355
-0.0035425
-0.0037843
-0.00400608
-0.00420588
-0.00438242
-0.00453528
-0.00466448
-0.00477035
-0.0048534
-0.00491395
-0.00495202
-0.0049676
-0.00496018
-0.00492064
-0.00483671
0.00042214
0.000352701
0.000293522
0.000238658
0.000183817
0.000129066
7.4152e-05
1.83733e-05
-3.90234e-05
-9.87843e-05
-0.000161629
-0.000228218
-0.000299129
-0.000374841
-0.00045573
-0.000542062
-0.000633985
-0.000731527
-0.000834584
-0.000942902
-0.00105606
-0.00117347
-0.0012943
-0.00141753
-0.00154187
-0.00166578
-0.0017875
-0.00190501
-0.00201611
-0.00211842
-0.00220951
-0.00228692
-0.00234827
-0.00239139
-0.00241441
-0.00241585
-0.00239478
-0.00235088
-0.00228462
-0.00219742
-0.00209022
-0.00196687
-0.00183073
-0.0016861
-0.00153795
-0.00139175
-0.00125327
-0.0011284
-0.00102294
-0.000942285
-0.000891276
-0.000873907
-0.000893142
-0.000950753
-0.0010472
-0.00118159
-0.0013517
-0.00155404
-0.00178405
-0.0020363
-0.00230476
-0.00258308
-0.00286489
-0.00314412
-0.00341519
-0.00367328
-0.00391441
-0.00413558
-0.00433469
-0.00451055
-0.00466273
-0.00479134
-0.00489689
-0.00497999
-0.00504113
-0.00508042
-0.00509791
-0.00509309
-0.00505735
-0.00497922
0.00051263
0.000425215
0.000354497
0.000292203
0.000232143
0.000173952
0.000116946
5.99463e-05
1.77755e-06
-5.86641e-05
-0.000122407
-0.00019038
-0.000263398
-0.000342154
-0.000427221
-0.000519043
-0.000617941
-0.000724098
-0.00083755
-0.000958165
-0.00108562
-0.00121936
-0.00135861
-0.00150228
-0.00164902
-0.00179715
-0.00194471
-0.00208942
-0.00222878
-0.00236006
-0.00248044
-0.00258702
-0.00267699
-0.00274771
-0.00279683
-0.00282243
-0.00282314
-0.00279824
-0.00274767
-0.00267201
-0.00257409
-0.00245548
-0.00231991
-0.00217173
-0.00201599
-0.00185832
-0.00170478
-0.00156162
-0.0014351
-0.00133117
-0.0012553
-0.00121213
-0.00120533
-0.00123733
-0.00130924
-0.00142073
-0.00157002
-0.001754
-0.0019683
-0.00220757
-0.00246572
-0.00273621
-0.00301242
-0.00328791
-0.00355677
-0.0038138
-0.0040547
-0.00427617
-0.00447594
-0.00465267
-0.00480586
-0.00493566
-0.00504263
-0.00512751
-0.00519088
-0.00523298
-0.00525396
-0.00525338
-0.0052234
-0.00515371
0.000599374
0.000493096
0.000410292
0.000340188
0.00027455
0.000212508
0.000152894
9.39982e-05
3.41904e-05
-2.80176e-05
-9.3984e-05
-0.000164926
-0.000241916
-0.00032588
-0.000417603
-0.000517735
-0.000626785
-0.000745112
-0.000872905
-0.00101016
-0.00115665
-0.00131189
-0.00147507
-0.00164508
-0.00182044
-0.0019993
-0.00217944
-0.0023583
-0.00253299
-0.00270039
-0.00285718
-0.003
-0.00312549
-0.00323046
-0.00331203
-0.00336772
-0.00339563
-0.00339452
-0.00336392
-0.00330414
-0.00321689
-0.00310423
-0.00296951
-0.00281693
-0.00265155
-0.00247913
-0.002306
-0.00213882
-0.00198434
-0.00184919
-0.00173956
-0.00166094
-0.00161787
-0.00161369
-0.00165037
-0.0017284
-0.00184671
-0.00200274
-0.00219256
-0.00241104
-0.00265213
-0.00290922
-0.00317541
-0.00344393
-0.00370842
-0.00396322
-0.00420357
-0.00442576
-0.00462717
-0.00480617
-0.00496209
-0.00509497
-0.00520534
-0.00529394
-0.00536144
-0.00540819
-0.0054344
-0.00543972
-0.00541727
-0.00535803
0.000678139
0.000552309
0.000457032
0.000378873
0.000307399
0.000241162
0.00017844
0.000116948
5.4563e-05
-1.06155e-05
-8.02996e-05
-0.000156016
-0.00023911
-0.000330764
-0.000432001
-0.000543694
-0.000666566
-0.000801169
-0.000947866
-0.00110679
-0.00127782
-0.0014605
-0.00165404
-0.00185723
-0.00206845
-0.00228563
-0.00250627
-0.00272745
-0.00294584
-0.00315785
-0.00335962
-0.00354719
-0.00371661
-0.00386405
-0.00398595
-0.0040792
-0.00414123
-0.00417019
-0.00416501
-0.00412553
-0.00405274
-0.00394849
-0.00381577
-0.0036586
-0.00348195
-0.00329168
-0.00309434
-0.00289697
-0.00270693
-0.00253154
-0.0023779
-0.00225248
-0.00216093
-0.00210774
-0.00209603
-0.00212738
-0.00220176
-0.00231747
-0.00247124
-0.00265841
-0.00287319
-0.00310897
-0.00335867
-0.00361516
-0.0038716
-0.00412176
-0.00436031
-0.00458295
-0.00478652
-0.00496897
-0.00512924
-0.00526712
-0.00538296
-0.00547743
-0.00555118
-0.00560458
-0.00563788
-0.00565077
-0.00563738
-0.0055901
0.000744425
0.000598543
0.000490552
0.000404196
0.000326701
0.000255953
0.000189616
0.000124774
5.87752e-05
-1.07221e-05
-8.58077e-05
-0.000168339
-0.00025996
-0.000362129
-0.000476134
-0.0006031
-0.000743986
-0.000899562
-0.00107038
-0.00125673
-0.00145859
-0.00167555
-0.0019068
-0.00215103
-0.00240645
-0.00267074
-0.00294104
-0.00321402
-0.00348588
-0.00375245
-0.00400927
-0.0042517
-0.00447506
-0.00467479
-0.00484656
-0.00498646
-0.00509115
-0.00515801
-0.00518523
-0.00517198
-0.00511858
-0.00502635
-0.00489783
-0.00473672
-0.00454782
-0.00433699
-0.00411093
-0.0038771
-0.0036434
-0.00341798
-0.0032089
-0.00302383
-0.00286971
-0.00275247
-0.00267668
-0.0026454
-0.00265996
-0.00271988
-0.00282293
-0.00296524
-0.00314151
-0.00334533
-0.00356957
-0.00380679
-0.00404964
-0.00429124
-0.00452551
-0.00474741
-0.00495304
-0.00513967
-0.0053057
-0.00545044
-0.0055739
-0.00567649
-0.00575873
-0.00582093
-0.00586325
-0.00588539
-0.00588245
-0.00584823
0.000793462
0.000627219
0.000506405
0.000411798
0.000328139
0.000252569
0.000182069
0.000113043
4.22716e-05
-3.30589e-05
-0.00011544
-0.000207083
-0.000309959
-0.00042583
-0.000556277
-0.000702706
-0.000866343
-0.0010482
-0.00124905
-0.00146934
-0.00170916
-0.00196814
-0.00224544
-0.00253965
-0.00284875
-0.00317013
-0.00350055
-0.0038362
-0.00417272
-0.0045053
-0.00482877
-0.00513772
-0.00542665
-0.00569011
-0.00592288
-0.00612014
-0.00627761
-0.00639175
-0.00645985
-0.00648027
-0.0064525
-0.00637714
-0.00625617
-0.00609281
-0.00589157
-0.00565816
-0.00539939
-0.00512302
-0.00483754
-0.00455189
-0.00427521
-0.00401648
-0.00378417
-0.00358588
-0.00342801
-0.00331544
-0.00325128
-0.00323676
-0.00327109
-0.00335159
-0.00347382
-0.00363187
-0.00381876
-0.00402685
-0.00424827
-0.00447545
-0.00470143
-0.00492019
-0.00512688
-0.00531785
-0.00549067
-0.00564394
-0.0057771
-0.00589012
-0.00598318
-0.00605639
-0.00610975
-0.00614281
-0.00615158
-0.00613122
0.000820228
0.000633519
0.000499899
0.00039705
0.00030711
0.000226385
0.000151111
7.69609e-05
1.11037e-07
-8.27508e-05
-0.000174546
-0.000277871
-0.000395049
-0.00052818
-0.000679172
-0.000849746
-0.00104143
-0.00125551
-0.00149298
-0.00175449
-0.00204024
-0.00234992
-0.00268261
-0.00303679
-0.0034102
-0.00379988
-0.00420215
-0.00461267
-0.00502643
-0.00543788
-0.00584106
-0.00622966
-0.00659723
-0.00693735
-0.00724373
-0.00751049
-0.00773227
-0.00790445
-0.00802331
-0.00808618
-0.0080916
-0.00803924
-0.00793041
-0.0077677
-0.00755515
-0.00729821
-0.00700364
-0.00667941
-0.0063345
-0.00597864
-0.00562207
-0.00527516
-0.00494806
-0.00465032
-0.00439044
-0.00417555
-0.00401101
-0.00390023
-0.00384441
-0.00384256
-0.0038916
-0.00398652
-0.00412078
-0.00428675
-0.00447617
-0.00468071
-0.00489241
-0.00510409
-0.00530966
-0.00550427
-0.00568434
-0.00584746
-0.00599223
-0.00611791
-0.00622414
-0.00631064
-0.00637707
-0.00642273
-0.00644442
-0.00643857
0.000819488
0.000612426
0.00046614
0.000355111
0.000258774
0.000172518
9.17704e-05
1.14321e-05
-7.29616e-05
-0.000165252
-0.00026882
-0.000386674
-0.000521527
-0.000675852
-0.000851923
-0.00105182
-0.00127739
-0.00153025
-0.00181164
-0.00212241
-0.00246289
-0.00283281
-0.00323121
-0.00365637
-0.00410579
-0.00457611
-0.00506314
-0.00556191
-0.0060667
-0.00657112
-0.00706828
-0.00755088
-0.00801139
-0.00844222
-0.00883594
-0.00918544
-0.00948416
-0.00972626
-0.00990681
-0.010022
-0.0100692
-0.0100473
-0.00995649
-0.00979865
-0.00957718
-0.00929711
-0.008965
-0.00858888
-0.00817807
-0.007743
-0.00729495
-0.00684568
-0.00640712
-0.00599092
-0.00560797
-0.00526801
-0.00497914
-0.00474747
-0.00457682
-0.00446851
-0.0044214
-0.00443195
-0.00449453
-0.00460183
-0.00474541
-0.00491623
-0.00510525
-0.00530392
-0.00550466
-0.00570105
-0.00588803
-0.00606181
-0.00621977
-0.00636017
-0.00648186
-0.00658391
-0.00666548
-0.00672543
-0.00676126
-0.00677049
0.000785857
0.000558788
0.000400094
0.000280989
0.000178124
8.59e-05
-1.12236e-06
-8.88537e-05
-0.00018243
-0.000286253
-0.000404192
-0.000539705
-0.000695928
-0.000875751
-0.00108186
-0.00131672
-0.00158257
-0.00188134
-0.00221459
-0.00258337
-0.00298815
-0.00342868
-0.00390395
-0.00441204
-0.0049501
-0.00551434
-0.0061
-0.00670137
-0.00731191
-0.00792429
-0.00853057
-0.00912229
-0.00969074
-0.010227
-0.0107225
-0.0111685
-0.0115574
-0.0118818
-0.0121357
-0.0123138
-0.0124124
-0.0124292
-0.0123634
-0.0122159
-0.0119893
-0.0116882
-0.0113186
-0.0108884
-0.0104071
-0.00988571
-0.00933627
-0.0087719
-0.00820626
-0.00765315
-0.00712606
-0.00663762
-0.00619909
-0.00581985
-0.00550696
-0.00526479
-0.00509488
-0.00499585
-0.00496363
-0.00499175
-0.0050719
-0.00519454
-0.00534953
-0.00552684
-0.00571708
-0.00591191
-0.00610435
-0.00628881
-0.00646106
-0.00661798
-0.00675725
-0.00687708
-0.00697585
-0.00705184
-0.00710301
-0.00712798
0.000713873
0.000467389
0.000296666
0.000169617
6.00676e-05
-3.86371e-05
-0.000132848
-0.000229324
-0.0003339
-0.000451566
-0.000586714
-0.000743284
-0.000924881
-0.00113486
-0.00137634
-0.00165226
-0.00196525
-0.00231763
-0.00271125
-0.00314741
-0.0036267
-0.00414892
-0.00471293
-0.00531657
-0.00595663
-0.00662877
-0.00732755
-0.00804645
-0.00877797
-0.00951371
-0.0102445
-0.0109607
-0.0116522
-0.0123088
-0.0129202
-0.0134766
-0.0139687
-0.0143878
-0.0147265
-0.0149783
-0.0151382
-0.0152025
-0.0151695
-0.015039
-0.0148127
-0.0144943
-0.0140893
-0.0136053
-0.0130516
-0.0124394
-0.0117814
-0.0110919
-0.0103859
-0.00967948
-0.00898862
-0.00832905
-0.0077155
-0.00716113
-0.00667687
-0.00627091
-0.0059483
-0.00571072
-0.00555647
-0.00548065
-0.00547566
-0.00553178
-0.00563796
-0.00578259
-0.00595422
-0.00614223
-0.00633726
-0.00653143
-0.00671839
-0.00689317
-0.00705194
-0.00719164
-0.00730965
-0.00740345
-0.00747131
-0.00751282
0.000598097
0.000333046
0.00015079
1.59493e-05
-0.000100478
-0.000206256
-0.00030869
-0.00041541
-0.000532977
-0.000666996
-0.000822412
-0.00100369
-0.00121495
-0.00146004
-0.0017426
-0.00206604
-0.00243345
-0.00284756
-0.00331054
-0.00382393
-0.00438847
-0.00500393
-0.00566902
-0.00638131
-0.00713709
-0.0079314
-0.00875801
-0.00960946
-0.0104771
-0.0113514
-0.0122219
-0.0130774
-0.0139064
-0.0146972
-0.015438
-0.0161176
-0.016725
-0.0172505
-0.0176849
-0.0180205
-0.0182511
-0.0183718
-0.0183798
-0.0182737
-0.0180542
-0.0177241
-0.0172882
-0.0167532
-0.0161282
-0.0154243
-0.0146544
-0.0138335
-0.0129778
-0.0121052
-0.0112342
-0.0103834
-0.0095712
-0.00881492
-0.0081299
-0.00752891
-0.00702142
-0.00661319
-0.00630588
-0.00609717
-0.00598095
-0.00594797
-0.00598659
-0.0060837
-0.00622568
-0.00639926
-0.00659221
-0.00679379
-0.00699496
-0.00718837
-0.00736818
-0.0075297
-0.00766895
-0.00778238
-0.00786841
-0.00792752
0.000433217
0.000150708
-4.24719e-05
-0.000184933
-0.000308471
-0.000422001
-0.000533808
-0.000652415
-0.000785125
-0.000938186
-0.00111713
-0.00132699
-0.00157243
-0.00185786
-0.00218748
-0.0025652
-0.00299463
-0.00347891
-0.00402056
-0.00462136
-0.00528214
-0.00600263
-0.00678134
-0.00761543
-0.00850063
-0.00943123
-0.0104001
-0.0113986
-0.0124169
-0.013444
-0.0144681
-0.0154764
-0.0164559
-0.0173932
-0.0182751
-0.0190889
-0.0198221
-0.0204635
-0.0210029
-0.0214312
-0.021741
-0.0219263
-0.0219832
-0.0219092
-0.0217039
-0.0213692
-0.0209087
-0.0203285
-0.0196369
-0.0188443
-0.0179637
-0.0170101
-0.0160005
-0.0149542
-0.0138914
-0.0128338
-0.0118032
-0.0108211
-0.00990772
-0.00908095
-0.00835564
-0.00774265
-0.00724827
-0.0068739
-0.0066161
-0.00646698
-0.00641495
-0.00644574
-0.00654357
-0.00669224
-0.00687619
-0.0070812
-0.00729491
-0.00750696
-0.00770889
-0.00789393
-0.00805636
-0.00819127
-0.00829711
-0.00837519
0.000214165
-8.44304e-05
-0.00028781
-0.000437707
-0.000568631
-0.000690672
-0.000813111
-0.000945374
-0.00109552
-0.00127047
-0.00147636
-0.00171884
-0.00200317
-0.00233436
-0.00271719
-0.00315616
-0.00365538
-0.00421843
-0.00484819
-0.00554665
-0.00631468
-0.00715192
-0.00805658
-0.0090253
-0.0100531
-0.0111334
-0.0122579
-0.0134168
-0.0145988
-0.0157915
-0.0169812
-0.0181537
-0.0192942
-0.0203879
-0.02142
-0.0223762
-0.0232429
-0.0240076
-0.0246588
-0.0251865
-0.0255822
-0.025839
-0.0259516
-0.0259169
-0.0257336
-0.0254022
-0.0249254
-0.0243082
-0.0235579
-0.022684
-0.0216988
-0.0206168
-0.0194554
-0.0182341
-0.0169749
-0.0157014
-0.0144385
-0.0132119
-0.0120466
-0.0109661
-0.00999127
-0.00913922
-0.00842209
-0.00784647
-0.00741296
-0.00711632
-0.00694604
-0.00688736
-0.00692258
-0.0070325
-0.0071978
-0.00740022
-0.00762333
-0.00785302
-0.00807756
-0.00828749
-0.00847492
-0.00863323
-0.00876072
-0.00885951
-6.37528e-05
-0.000376803
-0.00058955
-0.000746685
-0.000885307
-0.00101669
-0.00115111
-0.00129891
-0.0014689
-0.00166869
-0.00190507
-0.00218432
-0.00251234
-0.00289479
-0.00333708
-0.00384431
-0.00442111
-0.00507152
-0.00579873
-0.0066049
-0.00749091
-0.00845619
-0.00949852
-0.0106139
-0.0117965
-0.0130387
-0.0143308
-0.0156615
-0.0170182
-0.0183864
-0.0197511
-0.0210962
-0.0224053
-0.0236619
-0.0248498
-0.0259535
-0.026958
-0.0278499
-0.0286168
-0.0292477
-0.0297334
-0.0300662
-0.0302401
-0.0302512
-0.030097
-0.0297773
-0.0292936
-0.0286497
-0.0278515
-0.0269075
-0.0258286
-0.0246285
-0.0233237
-0.0219338
-0.0204811
-0.0189906
-0.0174897
-0.0160074
-0.0145731
-0.0132163
-0.0119642
-0.0108408
-0.00986565
-0.00905184
-0.00840578
-0.00792651
-0.00760604
-0.0074302
-0.00738004
-0.00743354
-0.00756739
-0.0077587
-0.00798625
-0.00823134
-0.00847821
-0.008714
-0.00892808
-0.00911171
-0.00926289
-0.00938453
-0.00040473
-0.00073035
-0.000951527
-0.00111569
-0.00126235
-0.00140396
-0.0015518
-0.00171707
-0.00190938
-0.00213703
-0.00240749
-0.00272769
-0.00310423
-0.00354344
-0.00405138
-0.00463377
-0.00529578
-0.00604187
-0.00687552
-0.00779899
-0.00881307
-0.00991685
-0.0111075
-0.0123803
-0.0137284
-0.0151426
-0.0166121
-0.0181238
-0.0196631
-0.0212142
-0.0227598
-0.0242824
-0.0257637
-0.0271859
-0.0285314
-0.0297835
-0.0309264
-0.0319458
-0.0328285
-0.0335633
-0.0341402
-0.0345511
-0.0347896
-0.0348511
-0.0347323
-0.0344322
-0.0339513
-0.033292
-0.032459
-0.0314591
-0.0303017
-0.0289988
-0.0275657
-0.0260209
-0.0243861
-0.0226868
-0.0209514
-0.0192114
-0.0175003
-0.0158525
-0.0143018
-0.0128799
-0.0116142
-0.0105261
-0.00962961
-0.00892999
-0.00842366
-0.00809865
-0.00793588
-0.00791109
-0.00799704
-0.00816581
-0.00839064
-0.00864738
-0.00891532
-0.00917741
-0.00941958
-0.00963046
-0.00980754
-0.00995456
-0.00081233
-0.0011484
-0.00137696
-0.00154792
-0.00170299
-0.00185575
-0.00201846
-0.0022032
-0.00242034
-0.00267887
-0.00298697
-0.00335227
-0.00378205
-0.00428337
-0.00486296
-0.00552714
-0.00628161
-0.00713123
-0.00807968
-0.00912924
-0.0102805
-0.011532
-0.0128803
-0.0143195
-0.0158415
-0.0174357
-0.0190896
-0.0207882
-0.0225152
-0.0242526
-0.0259814
-0.0276823
-0.0293355
-0.0309218
-0.0324225
-0.03382
-0.0350977
-0.0362409
-0.0372361
-0.0380718
-0.0387379
-0.0392263
-0.03953
-0.0396443
-0.0395656
-0.0392919
-0.038823
-0.03816
-0.0373062
-0.0362666
-0.0350489
-0.033663
-0.0321221
-0.0304428
-0.0286454
-0.0267543
-0.024798
-0.0228092
-0.0208239
-0.0188807
-0.0170195
-0.0152793
-0.0136964
-0.0123015
-0.011118
-0.0101595
-0.0094291
-0.00891919
-0.00861228
-0.00848298
-0.00850063
-0.00863209
-0.00884447
-0.00910727
-0.00939382
-0.00968195
-0.00995334
-0.0101933
-0.0103987
-0.010574
-0.00128936
-0.00163354
-0.00186836
-0.00204586
-0.00220968
-0.00237453
-0.00255359
-0.00275978
-0.00300421
-0.0032966
-0.0036458
-0.00406018
-0.00454774
-0.00511625
-0.00577311
-0.00652525
-0.00737886
-0.00833911
-0.00940982
-0.0105931
-0.0118893
-0.0132962
-0.0148094
-0.0164218
-0.0181239
-0.0199033
-0.0217455
-0.0236338
-0.0255495
-0.0274729
-0.0293832
-0.0312592
-0.0330798
-0.0348245
-0.0364739
-0.0380095
-0.0394147
-0.0406744
-0.0417752
-0.0427057
-0.043456
-0.044018
-0.0443851
-0.0445525
-0.0445164
-0.0442743
-0.0438251
-0.0431693
-0.0423086
-0.0412463
-0.0399881
-0.0385415
-0.0369173
-0.0351293
-0.0331954
-0.0311379
-0.028984
-0.0267658
-0.0245204
-0.0222892
-0.0201168
-0.0180492
-0.016131
-0.0144034
-0.0129002
-0.0116458
-0.0106525
-0.0099194
-0.00943313
-0.00916893
-0.00909371
-0.00916943
-0.00935668
-0.00961778
-0.00991905
-0.0102321
-0.0105334
-0.0108043
-0.0110404
-0.0112473
-0.00183777
-0.00218752
-0.00242737
-0.00261112
-0.00278405
-0.0029619
-0.00315874
-0.0033883
-0.00366241
-0.00399147
-0.00438506
-0.00485226
-0.0054018
-0.00604216
-0.00678141
-0.00762704
-0.00858566
-0.00966267
-0.0108619
-0.0121853
-0.0136324
-0.0152005
-0.0168838
-0.0186738
-0.0205592
-0.0225258
-0.024557
-0.026634
-0.028736
-0.0308412
-0.0329272
-0.034971
-0.0369506
-0.0388443
-0.0406321
-0.0422953
-0.0438172
-0.0451828
-0.0463793
-0.0473955
-0.0482221
-0.0488517
-0.0492782
-0.0494963
-0.049503
-0.0492954
-0.0488722
-0.0482328
-0.0473778
-0.0463091
-0.04503
-0.043546
-0.0418648
-0.0399972
-0.0379578
-0.0357658
-0.0334455
-0.0310271
-0.0285469
-0.0260473
-0.0235757
-0.0211836
-0.0189235
-0.0168465
-0.0149982
-0.0134153
-0.0121217
-0.0111265
-0.0104232
-0.00998999
-0.0097933
-0.00979101
-0.00993721
-0.0101864
-0.0104967
-0.0108325
-0.0111639
-0.0114672
-0.0117367
-0.0119786
-0.00245854
-0.00281116
-0.00305473
-0.0032444
-0.00342674
-0.00361845
-0.00383444
-0.00408917
-0.00439517
-0.00476353
-0.00520452
-0.00572792
-0.0063432
-0.00705952
-0.00788558
-0.00882938
-0.00989787
-0.0110966
-0.0124292
-0.0138973
-0.0154997
-0.0172324
-0.0190885
-0.0210577
-0.0231268
-0.0252795
-0.0274969
-0.0297581
-0.0320402
-0.0343195
-0.0365718
-0.0387728
-0.0408994
-0.0429295
-0.0448424
-0.0466197
-0.0482449
-0.0497035
-0.0509833
-0.0520741
-0.0529673
-0.0536562
-0.0541353
-0.0544003
-0.0544479
-0.0542759
-0.0538824
-0.0532665
-0.0524279
-0.051367
-0.0500854
-0.0485862
-0.0468742
-0.0449569
-0.0428453
-0.0405544
-0.0381048
-0.0355231
-0.0328431
-0.0301058
-0.0273596
-0.0246592
-0.0220634
-0.0196324
-0.0174236
-0.0154869
-0.0138603
-0.0125657
-0.0116066
-0.0109678
-0.0106175
-0.0105111
-0.0105969
-0.010821
-0.0111329
-0.011488
-0.0118489
-0.0121859
-0.0124912
-0.0127718
-0.00315161
-0.00350427
-0.00375017
-0.00394537
-0.00413735
-0.0043437
-0.00458008
-0.00486163
-0.00520152
-0.0056115
-0.00610252
-0.00668505
-0.00736926
-0.00816496
-0.00908143
-0.0101271
-0.0113091
-0.0126331
-0.0141024
-0.015718
-0.0174777
-0.0193764
-0.0214053
-0.0235526
-0.0258027
-0.0281371
-0.0305348
-0.0329725
-0.0354253
-0.0378677
-0.0402738
-0.0426184
-0.0448776
-0.0470287
-0.0490514
-0.0509273
-0.0526407
-0.0541778
-0.0555274
-0.0566803
-0.0576289
-0.0583675
-0.0588915
-0.0591974
-0.0592825
-0.0591448
-0.0587827
-0.058195
-0.0573806
-0.0563391
-0.0550706
-0.0535759
-0.0518573
-0.049919
-0.047768
-0.0454151
-0.0428761
-0.0401729
-0.0373349
-0.0344001
-0.0314152
-0.0284355
-0.0255238
-0.0227477
-0.0201751
-0.0178696
-0.0158847
-0.0142576
-0.0130055
-0.0121234
-0.0115847
-0.0113447
-0.0113472
-0.0115304
-0.0118338
-0.0122032
-0.0125922
-0.0129637
-0.0133074
-0.0136306
-0.00391583
-0.0042656
-0.00451238
-0.00471265
-0.00491442
-0.00513606
-0.00539389
-0.00570368
-0.00607918
-0.00653274
-0.00707597
-0.00772001
-0.00847566
-0.00935335
-0.0103628
-0.0115129
-0.0128109
-0.0142621
-0.0158696
-0.0176335
-0.0195505
-0.0216139
-0.0238134
-0.0261347
-0.0285602
-0.0310693
-0.0336383
-0.0362419
-0.0388532
-0.0414449
-0.0439902
-0.0464627
-0.0488381
-0.0510937
-0.0532094
-0.0551676
-0.0569532
-0.0585538
-0.0599591
-0.0611611
-0.0621535
-0.0629316
-0.063492
-0.063832
-0.0639497
-0.0638436
-0.0635124
-0.0629549
-0.0621699
-0.0611562
-0.0599127
-0.0584387
-0.0567341
-0.0548002
-0.0526401
-0.0502604
-0.0476716
-0.0448903
-0.0419403
-0.0388542
-0.0356751
-0.0324562
-0.0292614
-0.0261627
-0.0232369
-0.0205602
-0.0182017
-0.0162164
-0.0146382
-0.0134761
-0.0127127
-0.0123071
-0.0122002
-0.0123234
-0.0126061
-0.0129831
-0.0133977
-0.013804
-0.0141881
-0.0145578
-0.00474891
-0.00509282
-0.00533897
-0.00554376
-0.00575536
-0.00599276
-0.00627291
-0.00661207
-0.00702454
-0.00752323
-0.00812033
-0.0088276
-0.00965644
-0.0106178
-0.0117219
-0.0129777
-0.0143925
-0.0159714
-0.0177168
-0.0196277
-0.0216997
-0.0239244
-0.0262894
-0.0287783
-0.0313712
-0.034045
-0.036774
-0.0395305
-0.042286
-0.0450117
-0.0476797
-0.0502632
-0.0527375
-0.0550804
-0.0572722
-0.0592962
-0.0611384
-0.0627876
-0.0642348
-0.0654733
-0.0664981
-0.0673057
-0.0678938
-0.0682607
-0.0684053
-0.0683268
-0.0680244
-0.0674972
-0.0667439
-0.0657632
-0.064553
-0.0631117
-0.0614372
-0.0595284
-0.0573852
-0.0550099
-0.0524081
-0.0495904
-0.0465745
-0.0433864
-0.040063
-0.0366533
-0.0332189
-0.0298331
-0.0265784
-0.0235417
-0.0208071
-0.0184476
-0.0165167
-0.0150413
-0.0140177
-0.0134126
-0.0131678
-0.013209
-0.0134561
-0.0138322
-0.0142686
-0.0147093
-0.0151358
-0.0155558
-0.00564744
-0.00598252
-0.00622648
-0.00643516
-0.00665647
-0.00690994
-0.007213
-0.00758235
-0.00803275
-0.0085776
-0.00922963
-0.0100011
-0.0109041
-0.0119498
-0.0131489
-0.0145104
-0.0160415
-0.0177468
-0.0196279
-0.0216828
-0.0239054
-0.0262855
-0.0288088
-0.0314565
-0.0342065
-0.0370331
-0.0399086
-0.0428035
-0.0456875
-0.0485307
-0.0513044
-0.0539815
-0.0565375
-0.0589506
-0.0612021
-0.0632762
-0.0651603
-0.0668443
-0.0683207
-0.0695841
-0.0706308
-0.0714586
-0.0720661
-0.0724528
-0.0726184
-0.0725628
-0.0722859
-0.0717872
-0.0710657
-0.0701199
-0.0689478
-0.0675468
-0.0659137
-0.0640455
-0.0619395
-0.0595944
-0.0570112
-0.0541949
-0.0511564
-0.0479146
-0.0444989
-0.0409514
-0.0373286
-0.0337018
-0.0301555
-0.0267838
-0.0236838
-0.0209463
-0.0186455
-0.0168294
-0.0155128
-0.0146744
-0.0142612
-0.014196
-0.0143903
-0.0147548
-0.0152078
-0.0156816
-0.0161521
-0.0166259
-0.00660694
-0.00693022
-0.00717039
-0.00738224
-0.00761298
-0.00788258
-0.00820886
-0.00860886
-0.00909769
-0.0096892
-0.0103966
-0.0112326
-0.0122096
-0.0133394
-0.0146327