/*--------------------------------*- C++ -*----------------------------------*\
  =========                 |
  \\      /  F ield         | OpenFOAM: The Open Source CFD Toolbox
   \\    /   O peration     | Website:  https://openfoam.org
    \\  /    A nd           | Version:  7
     \\/     M anipulation  |
\*---------------------------------------------------------------------------*/
FoamFile
{
    version     2.0;
    format      ascii;
    class       volScalarField;
    location    "0.15";
    object      p;
}
// * * * * * * * * * * * * * * * * * * * * * * * * * * * * * * * * * * * * * //

dimensions      [0 2 -2 0 0 0 0];

internalField   nonuniform List<scalar> 
6400
(
4.00546e-09
-9.20227e-06
-3.15993e-05
-6.23739e-05
-9.65057e-05
-0.000130369
-0.000161264
-0.000187193
-0.000206864
-0.000219531
-0.000224754
-0.000222257
-0.000211907
-0.000193701
-0.000167737
-0.000134156
-9.31117e-05
-4.4753e-05
1.07695e-05
7.33049e-05
0.000142706
0.000218834
0.000301565
0.000390775
0.000486341
0.000588136
0.000696028
0.000809882
0.000929553
0.00105488
0.00118569
0.0013218
0.001463
0.00160906
0.00175974
0.00191478
0.00207388
0.00223673
0.002403
0.00257232
0.00274431
0.00291855
0.00309462
0.00327203
0.00345031
0.00362894
0.00380738
0.00398507
0.00416142
0.00433583
0.00450768
0.00467633
0.00484113
0.00500143
0.00515658
0.0053059
0.00544875
0.00558447
0.00571243
0.00583203
0.00594266
0.00604378
0.00613487
0.00621546
0.00628513
0.00634357
0.0063905
0.00642581
0.00644946
0.00646162
0.00646262
0.00645306
0.00643383
0.00640622
0.00637203
0.00633371
0.00629457
0.00625903
0.00623308
0.00622225
9.05198e-06
-1.64627e-07
-1.83981e-05
-4.24151e-05
-6.88915e-05
-9.51786e-05
-0.000119182
-0.000139209
-0.000154011
-0.00016276
-0.000164937
-0.000160204
-0.000148345
-0.000129253
-0.000102917
-6.93865e-05
-2.87449e-05
1.89112e-05
7.34798e-05
0.000134853
0.000202917
0.000277554
0.000358654
0.000446105
0.000539791
0.000639591
0.000745377
0.000857012
0.000974351
0.00109723
0.00122548
0.00135892
0.00149732
0.00164048
0.00178815
0.00194005
0.0020959
0.0022554
0.00241821
0.00258397
0.0027523
0.00292278
0.003095
0.0032685
0.00344278
0.00361735
0.00379168
0.00396521
0.00413738
0.00430759
0.00447523
0.00463969
0.00480034
0.00495655
0.00510767
0.00525307
0.00539213
0.00552422
0.00564876
0.00576516
0.00587289
0.00597144
0.00606034
0.00613921
0.00620769
0.00626553
0.00631258
0.00634877
0.00637419
0.00638908
0.00639388
0.00638925
0.00637613
0.00635579
0.00632989
0.00630058
0.00627056
0.00624313
0.00622223
0.00621146
3.12426e-05
1.77953e-05
-4.91872e-07
-2.20007e-05
-4.48048e-05
-6.69124e-05
-8.67312e-05
-0.000102938
-0.00011444
-0.000120432
-0.000120376
-0.000113925
-0.000100845
-8.09852e-05
-5.42726e-05
-2.06972e-05
1.97063e-05
6.68782e-05
0.000120748
0.000181239
0.000248264
0.000321729
0.000401535
0.000487579
0.000579754
0.000677946
0.000782033
0.000891883
0.00100735
0.00112828
0.00125449
0.0013858
0.00152201
0.0016629
0.00180821
0.00195769
0.00211106
0.00226799
0.00242818
0.00259125
0.00275683
0.00292453
0.0030939
0.0032645
0.00343586
0.00360747
0.0037788
0.00394933
0.00411848
0.00428566
0.00445029
0.00461176
0.00476945
0.00492274
0.00507101
0.00521364
0.00535003
0.00547958
0.00560173
0.00571592
0.00582166
0.00591846
0.00600591
0.00608365
0.00615139
0.00620892
0.00625614
0.00629304
0.00631977
0.00633661
0.00634402
0.00634267
0.00633349
0.00631764
0.0062966
0.00627218
0.00624655
0.00622222
0.00620136
0.00618571
6.19149e-05
4.15361e-05
2.05469e-05
-1.07456e-06
-2.27951e-05
-4.30544e-05
-6.05935e-05
-7.44352e-05
-8.37342e-05
-8.77976e-05
-8.612e-05
-7.83622e-05
-6.42999e-05
-4.37827e-05
-1.67164e-05
1.69422e-05
5.71926e-05
0.000104004
0.000157327
0.000217107
0.000283277
0.00035576
0.000434473
0.000519325
0.000610217
0.000707041
0.000809682
0.000918015
0.0010319
0.00115118
0.00127569
0.00140524
0.00153964
0.00167867
0.00182208
0.00196961
0.00212099
0.00227591
0.00243404
0.00259503
0.00275851
0.00292407
0.00309129
0.00325973
0.00342891
0.00359833
0.00376747
0.0039358
0.00410275
0.00426775
0.00443021
0.00458952
0.00474509
0.00489631
0.00504256
0.00518323
0.00531775
0.00544553
0.00556603
0.00567871
0.00578309
0.00587873
0.00596523
0.00604226
0.00610957
0.00616697
0.0062144
0.00625187
0.00627955
0.00629773
0.00630688
0.00630764
0.00630084
0.00628754
0.00626899
0.00624668
0.00622237
0.00619795
0.006174
0.00615049
9.61296e-05
6.77467e-05
4.27969e-05
1.98239e-05
-2.0388e-06
-2.16434e-05
-3.79721e-05
-5.03097e-05
-5.80517e-05
-6.06695e-05
-5.7738e-05
-4.89472e-05
-3.40854e-05
-1.30121e-05
1.4365e-05
4.81009e-05
8.82165e-05
0.000134704
0.000187537
0.000246674
0.000312064
0.000383646
0.000461351
0.000545101
0.000634807
0.000730368
0.000831678
0.000938618
0.00105106
0.00116884
0.00129181
0.00141979
0.00155257
0.00168996
0.0018317
0.00197755
0.00212723
0.00228043
0.00243684
0.0025961
0.00275784
0.00292167
0.00308716
0.00325387
0.00342132
0.00358901
0.00375644
0.00392307
0.00408833
0.00425165
0.00441246
0.00457015
0.00472412
0.00487378
0.00501851
0.00515774
0.00529088
0.00541737
0.00553666
0.00564825
0.00575168
0.0058465
0.00593236
0.00600893
0.00607599
0.00613336
0.00618099
0.00621893
0.00624733
0.00626649
0.00627685
0.006279
0.00627369
0.00626183
0.00624448
0.00622282
0.00619825
0.0061722
0.00614381
0.00611152
0.000130261
9.37449e-05
6.42074e-05
3.90634e-05
1.62376e-05
-3.52307e-06
-1.94405e-05
-3.10001e-05
-3.77787e-05
-3.94052e-05
-3.55642e-05
-2.60044e-05
-1.05397e-05
1.09575e-05
3.8571e-05
7.23545e-05
0.000112336
0.000158524
0.000210906
0.000269456
0.000334137
0.000404899
0.000481685
0.00056443
0.000653055
0.000747471
0.000847578
0.000953266
0.00106441
0.00118087
0.00130248
0.00142908
0.00156047
0.00169646
0.00183679
0.00198124
0.00212951
0.00228133
0.00243635
0.00259425
0.00275465
0.00291715
0.00308134
0.00324676
0.00341294
0.0035794
0.00374561
0.00391103
0.00407511
0.00423728
0.00439695
0.00455354
0.00470644
0.00485507
0.00499881
0.0051371
0.00526935
0.00539501
0.00551355
0.00562448
0.00572733
0.00582169
0.00590719
0.00598353
0.00605049
0.00610792
0.00615575
0.00619405
0.00622295
0.00624275
0.00625384
0.00625676
0.00625218
0.00624088
0.00622372
0.00620163
0.00617575
0.00614715
0.00611378
0.00607284
0.000161556
0.000117357
8.30803e-05
5.52522e-05
3.08647e-05
1.03618e-05
-5.72142e-06
-1.70647e-05
-2.33878e-05
-2.44428e-05
-2.00194e-05
-9.94042e-06
5.9372e-06
2.77191e-05
5.54778e-05
8.92611e-05
0.000129097
0.000174998
0.000226962
0.000284977
0.000349014
0.000419037
0.000494998
0.000576842
0.000664503
0.000757901
0.000856946
0.000961536
0.00107155
0.00118687
0.00130733
0.00143277
0.00156301
0.00169785
0.00183706
0.00198039
0.00212759
0.00227835
0.00243236
0.00258928
0.00274873
0.00291033
0.00307365
0.00323824
0.00340364
0.00356934
0.00373482
0.00389956
0.00406298
0.00422452
0.0043836
0.00453962
0.00469199
0.0048401
0.00498338
0.00512124
0.0052531
0.00537841
0.00549666
0.00560733
0.00570999
0.00580421
0.00588964
0.00596597
0.00603299
0.00609054
0.00613857
0.00617712
0.00620633
0.00622646
0.00623787
0.00624105
0.00623658
0.00622513
0.00620739
0.00618411
0.00615622
0.00612456
0.00608614
0.00603723
0.000187881
0.000136755
9.79437e-05
6.72409e-05
4.09263e-05
1.92719e-05
2.61812e-06
-8.90611e-06
-1.51557e-05
-1.59833e-05
-1.12639e-05
-8.91387e-07
1.52262e-05
3.71632e-05
6.49751e-05
9.87015e-05
0.000138367
0.000183985
0.000235558
0.00029308
0.000356533
0.00042589
0.000501115
0.000582163
0.000668975
0.000761484
0.000859609
0.000963259
0.00107233
0.00118668
0.00130619
0.0014307
0.00156003
0.00169398
0.00183234
0.00197487
0.00212131
0.00227136
0.00242471
0.00258103
0.00273994
0.00290105
0.00306394
0.00322815
0.00339322
0.00355864
0.00372389
0.00388844
0.00405171
0.00421314
0.00437214
0.00452812
0.00468047
0.00482861
0.00497193
0.00510985
0.00524181
0.00536724
0.00548562
0.00559645
0.00569927
0.00579368
0.00587929
0.00595582
0.00602304
0.00608079
0.00612901
0.00616774
0.00619709
0.0062173
0.00622871
0.00623174
0.0062269
0.00621477
0.00619594
0.00617097
0.00614068
0.00610578
0.00606255
0.00600656
0.000207743
0.000150494
0.000107512
7.39771e-05
4.55878e-05
2.25279e-05
5.01808e-06
-6.97167e-06
-1.34255e-05
-1.4289e-05
-9.50926e-06
9.60026e-07
1.71621e-05
3.91365e-05
6.6917e-05
0.000100531
0.000139998
0.00018533
0.000236531
0.000293599
0.000356524
0.000425288
0.000499863
0.000580215
0.000666295
0.000758046
0.000855397
0.000958267
0.00106656
0.00118015
0.00129892
0.00142272
0.00155138
0.00168472
0.00182251
0.00196454
0.00211053
0.00226021
0.00241327
0.00256936
0.00272812
0.00288915
0.00305203
0.00321631
0.0033815
0.00354711
0.00371261
0.00387746
0.00404109
0.00420292
0.00436236
0.00451881
0.00467167
0.00482033
0.0049642
0.00510269
0.00523521
0.00536121
0.00548015
0.00559152
0.00569486
0.00578974
0.0058758
0.00595272
0.00602027
0.0060783
0.00612672
0.00616556
0.00619493
0.00621504
0.00622619
0.00622876
0.00622322
0.00621005
0.00618977
0.00616283
0.00612998
0.00609185
0.00604418
0.00598204
0.000220158
0.000157517
0.000110744
7.45281e-05
4.40679e-05
1.94855e-05
9.3495e-07
-1.17252e-05
-1.85873e-05
-1.9684e-05
-1.50278e-05
-4.62435e-06
1.15276e-05
3.34351e-05
6.11084e-05
9.45605e-05
0.000133803
0.000178844
0.00022969
0.000286341
0.000348793
0.000417033
0.000491046
0.000570804
0.00065627
0.000747395
0.000844119
0.000946372
0.00105407
0.0011671
0.00128534
0.00140867
0.00153691
0.00166989
0.00180741
0.00194923
0.0020951
0.00224475
0.00239786
0.0025541
0.0027131
0.00287446
0.00303776
0.00320253
0.00336831
0.00353458
0.00370081
0.00386645
0.00403093
0.00419366
0.00435405
0.00451149
0.00466538
0.00481508
0.00496
0.00509954
0.0052331
0.00536011
0.00548002
0.00559231
0.00569651
0.00579216
0.0058789
0.00595641
0.00602443
0.00608281
0.00613146
0.00617038
0.00619968
0.00621954
0.00623025
0.00623215
0.00622565
0.00621121
0.00618926
0.00616021
0.00612476
0.00608351
0.00603183
0.0059644
0.000224429
0.000157053
0.000106848
6.81269e-05
3.5671e-05
9.54531e-06
-1.0143e-05
-2.36106e-05
-3.10301e-05
-3.25071e-05
-2.81146e-05
-1.79046e-05
-1.91261e-06
1.98396e-05
4.73407e-05
8.05882e-05
0.000119585
0.000164334
0.000214842
0.000271112
0.000333144
0.000400933
0.00047447
0.000553737
0.000638706
0.00072934
0.000825589
0.000927392
0.00103467
0.00114734
0.00126528
0.00138836
0.00151643
0.00164933
0.00178685
0.00192878
0.00207485
0.00222481
0.00237834
0.0025351
0.00269472
0.00285682
0.00302095
0.00318666
0.00335347
0.00352086
0.00368829
0.00385521
0.00402105
0.0041852
0.00434706
0.00450601
0.00466143
0.00481269
0.00495917
0.00510024
0.00523531
0.00536377
0.00548506
0.00559864
0.00570402
0.00580074
0.0058884
0.00596668
0.00603532
0.00609414
0.00614306
0.00618206
0.00621123
0.00623076
0.00624089
0.00624196
0.00623435
0.00621848
0.00619474
0.00616351
0.00612549
0.0060813
0.00602602
0.00595405
0.000220014
0.000148504
9.52147e-05
5.41639e-05
1.98076e-05
-7.83303e-06
-2.86934e-05
-4.30481e-05
-5.11273e-05
-5.3093e-05
-4.90695e-05
-3.91505e-05
-2.34043e-05
-1.87789e-06
2.5398e-05
5.84067e-05
9.71416e-05
0.000141602
0.000191793
0.000247719
0.000309386
0.000376795
0.000449944
0.000528824
0.000613416
0.000703694
0.000799619
0.000901141
0.00100819
0.00112069
0.00123854
0.00136162
0.00148978
0.00162286
0.00176067
0.001903
0.00204961
0.00220021
0.0023545
0.00251215
0.0026728
0.00283603
0.00300142
0.0031685
0.00333679
0.00350577
0.00367489
0.00384359
0.00401128
0.00417736
0.00434121
0.0045022
0.00465968
0.00481301
0.00496154
0.00510465
0.00524168
0.00537204
0.00549511
0.00561036
0.00571725
0.00581531
0.00590415
0.0059834
0.0060528
0.00611218
0.00616142
0.00620052
0.00622955
0.00624869
0.00625817
0.0062583
0.00624947
0.00623206
0.00620646
0.00617305
0.00613252
0.00608557
0.00602704
0.00595115
0.000206497
0.000131388
7.53449e-05
3.21437e-05
-4.01281e-06
-3.3122e-05
-5.51541e-05
-7.04338e-05
-7.92364e-05
-8.17666e-05
-7.81893e-05
-6.86342e-05
-5.31983e-05
-3.19512e-05
-4.94049e-06
2.78044e-05
6.62687e-05
0.000110448
0.000160345
0.000215968
0.000277327
0.000344427
0.000417276
0.000495872
0.000580208
0.000670266
0.00076602
0.00086743
0.000974439
0.00108698
0.00120495
0.00132825
0.00145675
0.00159028
0.00172868
0.00187172
0.00201916
0.00217074
0.00232616
0.00248508
0.00264712
0.00281189
0.00297896
0.00314785
0.00331808
0.00348911
0.00366041
0.00383139
0.00400145
0.00416999
0.00433635
0.0044999
0.00465997
0.0048159
0.004967
0.00511262
0.0052521
0.00538478
0.00551005
0.00562733
0.00573606
0.00583577
0.00592602
0.00600646
0.0060768
0.00613685
0.0061865
0.00622574
0.00625464
0.00627336
0.00628213
0.00628127
0.00627114
0.00625213
0.00622464
0.00618905
0.0061461
0.00609654
0.00603507
0.00595572
0.000183598
0.000105327
4.68233e-05
1.64831e-06
-3.6204e-05
-6.67291e-05
-8.9917e-05
-0.000106135
-0.000115696
-0.00011884
-0.000115763
-0.000106625
-9.15461e-05
-7.06167e-05
-4.38991e-05
-1.14336e-05
2.67581e-05
7.0668e-05
0.000120299
0.000175662
0.000236768
0.000303633
0.00037627
0.000454686
0.000538886
0.00062886
0.000724593
0.000826057
0.000933206
0.00104598
0.00116429
0.00128805
0.00141714
0.00155139
0.00169065
0.00183469
0.0019833
0.00213619
0.00229308
0.00245363
0.00261746
0.00278418
0.00295334
0.00312449
0.00329711
0.00347069
0.00364465
0.00381842
0.00399138
0.0041629
0.00433232
0.00449897
0.00466217
0.00482121
0.0049754
0.00512404
0.00526642
0.00540188
0.00552976
0.00564944
0.00576037
0.00586202
0.00595396
0.0060358
0.00610726
0.00616813
0.0062183
0.00625775
0.00628655
0.00630485
0.00631289
0.00631098
0.0062995
0.00627885
0.00624945
0.00621169
0.00616639
0.00611435
0.00605015
0.0059677
0.000151139
7.00422e-05
9.31098e-06
-3.76805e-05
-7.7125e-05
-0.00010901
-0.000133331
-0.000150486
-0.000160824
-0.000164611
-0.000162071
-0.000153385
-0.000138696
-0.000118111
-9.17039e-05
-5.9525e-05
-2.16014e-05
2.20564e-05
7.14516e-05
0.000126597
0.00018751
0.000254213
0.000326724
0.000405064
0.000489244
0.000579267
0.000675127
0.000776808
0.000884275
0.000997478
0.00111635
0.00124079
0.0013707
0.00150594
0.00164633
0.00179168
0.00194175
0.00209629
0.002255
0.00241754
0.00258355
0.00275262
0.00292431
0.00309815
0.00327364
0.00345024
0.00362737
0.00380445
0.00398084
0.00415589
0.00432892
0.00449923
0.0046661
0.00482881
0.0049866
0.00513876
0.00528453
0.00542322
0.00555413
0.00567662
0.00579009
0.00589401
0.00598792
0.00607141
0.0061442
0.00620606
0.00625688
0.00629662
0.00632536
0.00634325
0.00635055
0.00634756
0.00633468
0.00631236
0.00628101
0.0062411
0.00619349
0.00613906
0.0060723
0.00598697
0.000109002
2.53235e-05
-3.7462e-05
-8.61459e-05
-0.000127091
-0.00016028
-0.000185709
-0.000203796
-0.000214918
-0.000219365
-0.000217383
-0.000209173
-0.000194895
-0.000174669
-0.000148582
-0.00011669
-7.90253e-05
-3.5599e-05
1.35929e-05
6.85665e-05
0.000129345
0.000195956
0.000268429
0.000346791
0.000431065
0.000521264
0.000617395
0.00071945
0.000827407
0.000941228
0.00106085
0.0011862
0.00131718
0.00145365
0.00159544
0.00174238
0.00189423
0.00205074
0.00221161
0.00237652
0.00254508
0.00271691
0.00289156
0.00306856
0.00324738
0.0034275
0.00360832
0.00378924
0.0039696
0.00414874
0.00432594
0.00450047
0.00467158
0.00483849
0.00500044
0.00515663
0.00530629
0.00544868
0.00558307
0.00570878
0.00582518
0.00593172
0.00602791
0.00611333
0.00618767
0.0062507
0.0063023
0.00634244
0.00637117
0.00638868
0.00639522
0.00639112
0.00637682
0.00635277
0.00631946
0.00627738
0.00622748
0.00617072
0.00610147
0.00601341
5.70882e-05
-2.89991e-05
-9.37159e-05
-0.000144003
-0.00018638
-0.000220825
-0.000247336
-0.000266348
-0.000278255
-0.000283371
-0.00028196
-0.00027424
-0.000260386
-0.000240528
-0.000214764
-0.000183154
-0.000145734
-0.000102516
-5.34936e-05
1.35335e-06
6.2054e-05
0.000128643
0.000201159
0.000279639
0.000364114
0.000454611
0.000551147
0.000653725
0.000762336
0.000876954
0.00099753
0.001124
0.00125626
0.0013942
0.00153767
0.00168648
0.00184041
0.0019992
0.00216258
0.0023302
0.00250172
0.00267671
0.00285475
0.00303535
0.003218
0.00340214
0.00358718
0.00377248
0.00395739
0.00414118
0.00432313
0.00450246
0.00467838
0.00485007
0.00501672
0.00517749
0.00533157
0.00547815
0.0056165
0.00574587
0.00586562
0.00597516
0.00607396
0.0061616
0.00623775
0.00630216
0.00635469
0.00639532
0.00642412
0.00644126
0.00644703
0.0064418
0.00642601
0.0064002
0.00636489
0.00632062
0.00626842
0.00620933
0.00613762
0.00604686
-4.69627e-06
-9.30782e-05
-0.000159643
-0.000211475
-0.000255238
-0.000290905
-0.000318478
-0.000338405
-0.000351099
-0.000356889
-0.000356057
-0.000348835
-0.000335411
-0.000315926
-0.000290482
-0.000259147
-0.000221956
-0.000178922
-0.000130035
-7.52705e-05
-1.45936e-05
5.20391e-05
0.000124674
0.000203359
0.000288136
0.000379043
0.000476108
0.000579349
0.000688767
0.000804348
0.000926058
0.00105384
0.00118761
0.00132726
0.00147265
0.00162359
0.00177988
0.00194128
0.00210749
0.0022782
0.00245304
0.00263162
0.00281348
0.00299816
0.00318512
0.0033738
0.00356359
0.00375384
0.00394386
0.0041329
0.00432019
0.00450492
0.00468625
0.00486331
0.00503524
0.00520116
0.0053602
0.00551153
0.00565433
0.00578786
0.0059114
0.00602434
0.00612614
0.00621633
0.00629455
0.00636055
0.00641418
0.00645541
0.00648433
0.00650113
0.00650612
0.00649971
0.0064824
0.00645476
0.00641738
0.00637087
0.00631633
0.00625487
0.00618069
0.00608719
-7.6443e-05
-0.00016706
-0.000235423
-0.000288765
-0.000333889
-0.000370762
-0.000399385
-0.000420224
-0.000433705
-0.000440173
-0.000439924
-0.000433206
-0.000420216
-0.000401103
-0.000375976
-0.000344905
-0.000307927
-0.000265053
-0.00021627
-0.000161548
-0.000100845
-3.41101e-05
3.87135e-05
0.000117682
0.000202851
0.000294269
0.000391977
0.000496006
0.00060637
0.000723069
0.000846081
0.000975361
0.00111084
0.00125241
0.00139996
0.00155329
0.00171223
0.00187653
0.0020459
0.00222005
0.0023986
0.00258117
0.00276731
0.00295653
0.0031483
0.00334205
0.00353714
0.00373291
0.00392863
0.00412352
0.00431678
0.00450753
0.00469489
0.00487795
0.00505578
0.00522745
0.00539205
0.00554869
0.00569651
0.00583471
0.00596254
0.00607934
0.00618453
0.0062776
0.00635819
0.006426
0.0064809
0.00652285
0.00655195
0.00656842
0.00657262
0.00656499
0.00654608
0.00651655
0.00647703
0.00642819
0.00637123
0.00630733
0.00623058
0.00613425
-0.000158244
-0.000251086
-0.000321234
-0.000376073
-0.000422552
-0.000460627
-0.0004903
-0.000512051
-0.000526322
-0.000533474
-0.000533815
-0.000527604
-0.00051505
-0.000496309
-0.000471494
-0.000440677
-0.000403897
-0.000361162
-0.000312455
-0.00025774
-0.000196968
-0.00013008
-5.70087e-05
2.23127e-05
0.000107951
0.000199968
0.000298418
0.000403346
0.000514781
0.000632735
0.000757202
0.000888148
0.00102552
0.00116922
0.00131914
0.00147512
0.00163696
0.00180445
0.00197732
0.00215525
0.00233789
0.00252486
0.0027157
0.00290994
0.00310703
0.00330638
0.00350735
0.00370923
0.00391126
0.00411263
0.00431248
0.0045099
0.00470395
0.00489367
0.00507806
0.00525614
0.00542695
0.00558952
0.00574297
0.00588641
0.00601907
0.00614021
0.00624922
0.00634555
0.0064288
0.00649868
0.00655501
0.00659779
0.00662713
0.00664329
0.00664666
0.00663775
0.00661718
0.00658565
0.00654388
0.00649261
0.00643311
0.00636666
0.00628721
0.00618789
-0.000250199
-0.000345302
-0.000417253
-0.000473599
-0.000521441
-0.000560728
-0.000591459
-0.00061413
-0.000629201
-0.000637044
-0.000637981
-0.000632284
-0.000620169
-0.0006018
-0.000577293
-0.000546725
-0.000510131
-0.000467517
-0.000418863
-0.000364127
-0.000303252
-0.00023617
-0.000162804
-8.30744e-05
3.09694e-06
9.57862e-05
0.000195062
0.000300983
0.000413595
0.000532925
0.000658979
0.000791741
0.000931167
0.00107718
0.00122968
0.00138853
0.00155354
0.0017245
0.00190116
0.00208321
0.00227032
0.0024621
0.0026581
0.00285783
0.00306075
0.00326625
0.00347367
0.00368225
0.00389123
0.00409973
0.00430685
0.00451162
0.00471306
0.00491013
0.00510179
0.00528699
0.0054647
0.0056339
0.00579363
0.00594295
0.006081
0.00620702
0.00632031
0.00642029
0.00650653
0.00657871
0.00663666
0.00668039
0.00671002
0.00672587
0.00672838
0.00671813
0.00669579
0.00666215
0.00661799
0.00656414
0.00650194
0.00643277
0.00635046
0.00624795
-0.00035243
-0.000449861
-0.000523661
-0.000581545
-0.000630774
-0.000671293
-0.000703102
-0.000726711
-0.000742594
-0.00075114
-0.000752685
-0.000747509
-0.000735839
-0.000717844
-0.000693646
-0.000663321
-0.000626906
-0.000584403
-0.000535788
-0.000481012
-0.000420011
-0.000352706
-0.000279011
-0.000198834
-0.000112081
-1.86637e-05
8.15031e-05
0.000188494
0.000302369
0.000423172
0.000550927
0.000685632
0.00082726
0.000975753
0.00113102
0.00129294
0.00146135
0.00163605
0.0018168
0.00200331
0.00219525
0.00239223
0.00259383
0.00279954
0.00300881
0.00322102
0.00343546
0.00365138
0.00386794
0.00408425
0.00429934
0.00451219
0.00472175
0.00492694
0.00512663
0.00531972
0.0055051
0.00568168
0.0058484
0.00600428
0.00614836
0.00627981
0.00639788
0.00650193
0.0065915
0.00666625
0.00672601
0.00677079
0.00680078
0.00681633
0.00681793
0.00680623
0.006782
0.00674609
0.00669937
0.00664275
0.00657767
0.00650559
0.00642021
0.00631429
-0.000465081
-0.000564934
-0.000640652
-0.000700122
-0.000750778
-0.000792563
-0.000825477
-0.000850047
-0.000866764
-0.00087603
-0.000878196
-0.000873553
-0.000862336
-0.000844723
-0.000820838
-0.000790759
-0.000754522
-0.000712128
-0.000663546
-0.000608723
-0.000547585
-0.000480043
-0.000405999
-0.000325349
-0.000237986
-0.000143803
-4.27002e-05
6.54136e-05
0.000180617
0.00030297
0.000432515
0.000569268
0.00071322
0.000864331
0.00102253
0.00118772
0.00135974
0.00153842
0.00172354
0.00191482
0.00211195
0.00231455
0.00252218
0.00273435
0.00295048
0.00316995
0.00339202
0.00361591
0.00384073
0.00406555
0.00428934
0.00451104
0.00472953
0.00494364
0.0051522
0.00535401
0.00554789
0.00573266
0.00590717
0.00607033
0.00622112
0.00635861
0.00648199
0.00659056
0.00668382
0.00676142
0.00682319
0.00686916
0.00689957
0.0069148
0.00691543
0.00690218
0.0068759
0.00683752
0.00678803
0.00672841
0.00666021
0.006585
0.00649632
0.00638672
-0.000588323
-0.000690715
-0.000768432
-0.000829554
-0.000881691
-0.000924785
-0.000958841
-0.000984404
-0.00100198
-0.00101199
-0.00101479
-0.0010107
-0.000999952
-0.000982731
-0.000959169
-0.000929345
-0.000893295
-0.000851016
-0.000802474
-0.000747608
-0.000686336
-0.000618558
-0.000544164
-0.000463037
-0.000375052
-0.000280087
-0.000178025
-6.87562e-05
4.78152e-05
0.00017177
0.000303169
0.000442048
0.000588419
0.000742265
0.000903536
0.00107215
0.00124798
0.00143088
0.00162063
0.00181699
0.00201964
0.00222823
0.00244232
0.00266142
0.00288494
0.00311223
0.00334255
0.00357505
0.00380883
0.00404289
0.00427617
0.00450753
0.00473578
0.0049597
0.00517803
0.00538948
0.00559276
0.00578659
0.00596974
0.00614098
0.00629921
0.0064434
0.00657266
0.00668625
0.0067836
0.00686436
0.00692836
0.00697567
0.00700654
0.00702144
0.00702102
0.00700607
0.00697754
0.00693647
0.00688395
0.00682107
0.00674949
0.00667089
0.00657866
0.00646511
-0.000722348
-0.000827415
-0.00090723
-0.000970078
-0.00102376
-0.00106822
-0.00110346
-0.00113006
-0.00114852
-0.0011593
-0.00116277
-0.00115925
-0.00114899
-0.00113218
-0.00110895
-0.0010794
-0.00104356
-0.00100141
-0.000952929
-0.000898039
-0.000836651
-0.000768656
-0.000693928
-0.000612337
-0.000523741
-0.000428001
-0.000324981
-0.000214552
-9.65994e-05
2.898e-05
0.000162268
0.000303323
0.000452181
0.000608847
0.000773299
0.000945479
0.00112529
0.0013126
0.00150722
0.00170893
0.00191744
0.00213239
0.00235336
0.00257985
0.00281128
0.00304695
0.00328611
0.0035279
0.00377135
0.00401542
0.004259
0.00450089
0.00473983
0.00497451
0.00520357
0.00542564
0.0056393
0.00584316
0.00603585
0.00621605
0.00638251
0.00653412
0.0066699
0.00678903
0.00689093
0.00697519
0.00704169
0.00709048
0.00712188
0.00713643
0.00713483
0.00711801
0.007087
0.00704298
0.00698714
0.00692069
0.00684544
0.00676317
0.0066671
0.0065493
-0.000867368
-0.000975264
-0.00105729
-0.00112195
-0.00117725
-0.00122314
-0.00125962
-0.00128729
-0.00130669
-0.00131827
-0.00132243
-0.0013195
-0.00130975
-0.00129338
-0.00127052
-0.00124127
-0.00120566
-0.00116368
-0.00111528
-0.0010604
-0.000998937
-0.00093076
-0.000855736
-0.000773716
-0.000684543
-0.00058806
-0.00048411
-0.000372545
-0.000253226
-0.00012603
9.15068e-06
0.0001524
0.000303777
0.000463319
0.000631029
0.00080688
0.000990806
0.0011827
0.00138241
0.00158972
0.00180438
0.00202604
0.00225429
0.00248862
0.00272844
0.00297306
0.00322169
0.00347342
0.00372728
0.00398217
0.00423692
0.00449026
0.00474086
0.00498731
0.00522816
0.0054619
0.005687
0.00590192
0.00610516
0.00629525
0.00647083
0.00663065
0.00677365
0.00689895
0.00700588
0.00709406
0.00716332
0.00721378
0.00724578
0.00725992
0.00725703
0.00723812
0.00720437
0.00715708
0.00709759
0.00702724
0.00694799
0.00686173
0.00676151
0.00663915
-0.00102362
-0.00113451
-0.00121887
-0.00128544
-0.00134244
-0.00138983
-0.00142761
-0.0014564
-0.00147677
-0.00148919
-0.00149408
-0.00149178
-0.00148257
-0.00146667
-0.00144421
-0.0014153
-0.00137996
-0.00133818
-0.00128993
-0.00123511
-0.00117362
-0.00110532
-0.00103005
-0.000947663
-0.000857974
-0.000760805
-0.000655982
-0.000543334
-0.000422698
-0.000293925
-0.000156883
-1.14595e-05
0.000142436
0.00030487
0.000475879
0.000655469
0.000843609
0.00104022
0.00124519
0.00145833
0.00167941
0.00190809
0.00214398
0.00238657
0.00263528
0.00288939
0.00314809
0.00341047
0.00367549
0.00394203
0.00420885
0.00447461
0.0047379
0.00499722
0.00525097
0.00549753
0.00573521
0.00596233
0.00617721
0.00637823
0.00656389
0.00673282
0.00688384
0.00701599
0.00712855
0.00722109
0.00729345
0.00734576
0.00737842
0.00739212
0.00738778
0.00736655
0.00732975
0.00727885
0.00721534
0.00714071
0.00705707
0.00696648
0.00686177
0.00673448
-0.00119136
-0.00130543
-0.00139226
-0.00146084
-0.00151963
-0.00156859
-0.00160774
-0.00163771
-0.0016591
-0.0016724
-0.00167805
-0.00167642
-0.00166779
-0.0016524
-0.00163038
-0.00160185
-0.00156684
-0.00152533
-0.00147727
-0.00142258
-0.00136114
-0.00129279
-0.00121736
-0.00113469
-0.00104457
-0.000946804
-0.000841195
-0.000727549
-0.000605679
-0.000475408
-0.000336574
-0.000189033
-3.26628e-05
0.000132638
0.000306944
0.000490299
0.000682709
0.000884138
0.0010945
0.00131364
0.00154135
0.00177734
0.0020212
0.00227245
0.00253049
0.00279462
0.003064
0.0033377
0.00361466
0.00389371
0.00417354
0.00445275
0.00472984
0.00500318
0.00527104
0.00553165
0.00578316
0.00602369
0.00625141
0.00646451
0.00666134
0.00684039
0.00700034
0.00714014
0.007259
0.00735643
0.00743226
0.00748665
0.00752005
0.00753324
0.00752727
0.00750345
0.00746327
0.00740837
0.00734041
0.00726107
0.00717262
0.00707729
0.00696771
0.00683512
-0.00137088
-0.00148831
-0.00157775
-0.00164846
-0.00170914
-0.00175975
-0.00180033
-0.00183154
-0.001854
-0.00186823
-0.00187469
-0.00187377
-0.00186577
-0.00185093
-0.00182941
-0.00180132
-0.00176669
-0.00172551
-0.00167774
-0.00162326
-0.00156195
-0.00149365
-0.00141818
-0.00133533
-0.00124489
-0.00114664
-0.00104037
-0.00092585
-0.000802866
-0.000671213
-0.000530698
-0.000381142
-0.000222387
-5.42911e-05
0.000123261
0.000310355
0.000507041
0.000713324
0.000929155
0.00115442
0.00138895
0.00163245
0.00188457
0.00214482
0.00241262
0.00268726
0.00296792
0.00325363
0.0035433
0.00383573
0.00412956
0.0044233
0.00471534
0.00500393
0.0052872
0.00556318
0.00582985
0.00608515
0.00632703
0.00655351
0.00676275
0.00695305
0.00712298
0.00727135
0.00739727
0.0075002
0.00757994
0.00763665
0.00767088
0.00768351
0.00767573
0.00764901
0.00760506
0.00754572
0.00747284
0.00738828
0.00729453
0.00719401
0.00707911
0.00694079
-0.00156247
-0.00168347
-0.00177567
-0.00184861
-0.00191128
-0.00196364
-0.00200572
-0.00203823
-0.00206182
-0.00207704
-0.00208436
-0.00208419
-0.00207687
-0.00206264
-0.00204168
-0.00201409
-0.00197993
-0.00193917
-0.00189177
-0.00183761
-0.00177655
-0.00170842
-0.00163302
-0.00155013
-0.00145952
-0.00136094
-0.00125416
-0.00113892
-0.00101499
-0.000882111
-0.000740071
-0.000588651
-0.000427649
-0.000256883
-7.61908e-05
0.000114561
0.000315468
0.000526582
0.000747899
0.000979351
0.00122079
0.00147197
0.00173257
0.00200212
0.00228005
0.00256567
0.00285816
0.00315654
0.00345971
0.00376642
0.00407526
0.00438464
0.00469285
0.00499799
0.00529804
0.00559083
0.00587413
0.00614568
0.0064032
0.00664451
0.00686754
0.00707043
0.00725153
0.00740952
0.00754339
0.00765252
0.00773666
0.00779601
0.00783119
0.00784319
0.00783338
0.00780345
0.00775529
0.00769098
0.00761261
0.00752226
0.00742264
0.00731639
0.00719568
0.00705115
-0.00176646
-0.00189123
-0.00198636
-0.00206167
-0.00212643
-0.00218062
-0.00222429
-0.00225817
-0.00228294
-0.00229919
-0.00230742
-0.00230807
-0.00230148
-0.00228793
-0.00226759
-0.00224059
-0.00220698
-0.00216675
-0.00211982
-0.0020661
-0.00200542
-0.0019376
-0.00186243
-0.00177967
-0.00168906
-0.00159034
-0.00148324
-0.00136748
-0.00124279
-0.0011089
-0.000965545
-0.000812461
-0.000649407
-0.000476155
-0.000292491
-9.82315e-05
0.000106772
0.000322623
0.000549366
0.000786981
0.00103536
0.00129432
0.00156354
0.00184261
0.00213099
0.002428
0.00273284
0.00304454
0.00336198
0.00368387
0.00400873
0.00433492
0.00466056
0.00498363
0.00530191
0.00561305
0.00591459
0.00620402
0.00647884
0.00673661
0.00697504
0.007192
0.00738567
0.0075545
0.00769734
0.00781347
0.0079026
0.00796496
0.00800122
0.00801255
0.00800049
0.00796694
0.00791407
0.0078442
0.00775969
0.00766287
0.00755672
0.00744411
0.00731701
0.00716574
-0.0019832
-0.00211197
-0.00221018
-0.00228799
-0.00235496
-0.00241108
-0.00245642
-0.00249174
-0.00251776
-0.0025351
-0.0025443
-0.00254582
-0.00254003
-0.00252722
-0.00250759
-0.00248127
-0.00244831
-0.0024087
-0.00236238
-0.00230923
-0.00224909
-0.00218175
-0.00210698
-0.00202453
-0.00193413
-0.00183549
-0.0017283
-0.00161226
-0.00148708
-0.00135242
-0.001208
-0.00105351
-0.000888664
-0.000713173
-0.000526776
-0.000329232
-0.000120335
0.000100074
0.000332098
0.000575768
0.000831034
0.00109775
0.00137566
0.0016644
0.00196347
0.00227222
0.00258988
0.0029155
0.00324794
0.0035859
0.00392783
0.00427198
0.00461637
0.00495881
0.00529689
0.00562803
0.00594956
0.00625869
0.00655266
0.00682874
0.00708436
0.00731713
0.00752493
0.007706
0.007859
0.00798308
0.0080779
0.00814369
0.00818124
0.00819185
0.00817728
0.00813968
0.00808151
0.00800538
0.00791397
0.00780988
0.00769642
0.00757674
0.0074426