/*--------------------------------*- C++ -*----------------------------------*\
  =========                 |
  \\      /  F ield         | OpenFOAM: The Open Source CFD Toolbox
   \\    /   O peration     | Website:  https://openfoam.org
    \\  /    A nd           | Version:  7
     \\/     M anipulation  |
\*---------------------------------------------------------------------------*/
FoamFile
{
    version     2.0;
    format      ascii;
    class       volScalarField;
    location    "0.125";
    object      p;
}
// * * * * * * * * * * * * * * * * * * * * * * * * * * * * * * * * * * * * * //

dimensions      [0 2 -2 0 0 0 0];

internalField   nonuniform List<scalar> 
6400
(
1.48954e-08
-4.39333e-05
-0.000137224
-0.000256175
-0.000383358
-0.00051286
-0.000639053
-0.00075728
-0.000863828
-0.000955811
-0.00103101
-0.00108782
-0.00112521
-0.00114258
-0.00113958
-0.00111602
-0.0010719
-0.00100744
-0.000922955
-0.000818802
-0.000695381
-0.000553171
-0.000392719
-0.000214564
-1.92093e-05
0.000192827
0.000420977
0.000664622
0.000923126
0.00119587
0.00148225
0.00178159
0.00209316
0.00241613
0.00274968
0.00309295
0.00344503
0.00380494
0.00417159
0.00454387
0.00492056
0.00530044
0.00568222
0.00606459
0.00644617
0.00682552
0.00720112
0.00757144
0.00793491
0.00828999
0.00863513
0.00896878
0.00928936
0.00959529
0.00988501
0.010157
0.0104099
0.0106425
0.0108534
0.0110416
0.0112062
0.0113463
0.0114614
0.011551
0.0116149
0.0116533
0.0116667
0.0116559
0.011622
0.0115666
0.0114919
0.0114004
0.0112957
0.0111818
0.0110642
0.0109492
0.0108449
0.010761
0.0107093
0.0106962
-1.47491e-05
-5.67383e-05
-0.000132807
-0.000228636
-0.000333091
-0.000440261
-0.000545235
-0.000643945
-0.00073306
-0.000809849
-0.000872133
-0.000918247
-0.000947019
-0.000957675
-0.000949703
-0.000922788
-0.000876818
-0.000811871
-0.000728117
-0.000625767
-0.000505119
-0.000366589
-0.000210636
-3.77004e-05
0.000151783
0.000357338
0.000578427
0.000814465
0.00106485
0.00132902
0.00160636
0.00189625
0.00219791
0.00251056
0.00283339
0.00316556
0.00350618
0.00385428
0.0042088
0.00456861
0.00493254
0.00529941
0.00566799
0.00603698
0.00640507
0.00677083
0.00713282
0.00748956
0.00783956
0.00818136
0.00851351
0.00883453
0.00914291
0.00943719
0.00971589
0.00997765
0.0102212
0.0104453
0.010649
0.0108312
0.0109912
0.0111282
0.0112418
0.0113317
0.0113977
0.0114403
0.01146
0.0114576
0.0114344
0.011392
0.0113326
0.0112586
0.0111732
0.0110804
0.0109848
0.0108917
0.0108076
0.0107394
0.0106959
0.010683
-5.9258e-06
-4.75678e-05
-0.000112825
-0.000194671
-0.000284901
-0.000377735
-0.000468714
-0.000554163
-0.00063102
-0.000696804
-0.000749494
-0.000787489
-0.000809603
-0.000814976
-0.000802988
-0.000773268
-0.000725666
-0.000660158
-0.000576788
-0.000475683
-0.00035709
-0.000221363
-6.88873e-05
9.99831e-05
0.000284874
0.000485334
0.000700836
0.000930829
0.00117477
0.00143211
0.0017023
0.00198466
0.00227846
0.00258291
0.00289723
0.00322063
0.00355221
0.00389101
0.00423598
0.00458601
0.00493997
0.0052967
0.00565502
0.00601367
0.00637135
0.00672667
0.00707822
0.00742459
0.00776435
0.0080961
0.00841844
0.00872995
0.00902919
0.00931473
0.0095852
0.00983931
0.0100759
0.0102938
0.0104921
0.01067
0.0108266
0.0109613
0.0110738
0.0111639
0.0112316
0.0112772
0.0113014
0.0113051
0.0112895
0.0112562
0.0112073
0.0111452
0.0110727
0.0109933
0.0109111
0.0108305
0.0107568
0.0106952
0.0106519
0.0106311
3.5705e-05
-1.3621e-05
-7.81297e-05
-0.000153969
-0.000236565
-0.000320957
-0.000403144
-0.000479814
-0.000548221
-0.000606115
-0.000651667
-0.000683452
-0.000700354
-0.000701488
-0.000686213
-0.000654154
-0.00060513
-0.000539039
-0.000455842
-0.00035563
-0.000238629
-0.00010514
4.45444e-05
0.000210142
0.000391305
0.000587585
0.00079848
0.00102349
0.00126212
0.00151386
0.00177815
0.00205431
0.00234162
0.00263932
0.00294667
0.00326288
0.00358709
0.00391832
0.00425552
0.00459762
0.00494353
0.00529214
0.00564228
0.00599271
0.00634214
0.00668923
0.0070326
0.00737088
0.0077027
0.0080267
0.00834151
0.00864573
0.00893797
0.00921686
0.00948108
0.0097294
0.0099607
0.010174
0.0103683
0.0105428
0.0106969
0.0108299
0.0109416
0.0110318
0.0111006
0.0111484
0.0111758
0.0111838
0.0111735
0.0111465
0.0111046
0.0110502
0.0109857
0.0109142
0.0108393
0.0107645
0.0106942
0.0106327
0.010583
0.0105471
0.000104082
3.86744e-05
-3.15942e-05
-0.000106863
-0.000186254
-0.000265855
-0.000342243
-0.000412659
-0.000474765
-0.000526558
-0.000566435
-0.00059315
-0.000605668
-0.000603154
-0.000585029
-0.000550941
-0.000500648
-0.000433978
-0.000350877
-0.000251436
-0.000135846
-4.33027e-06
0.000142897
0.000305593
0.000483418
0.000675933
0.000882679
0.00110321
0.00133709
0.00158381
0.00184279
0.00211337
0.00239485
0.00268651
0.00298764
0.00329747
0.00361513
0.00393964
0.00426997
0.00460509
0.00494395
0.00528548
0.00562852
0.00597186
0.0063142
0.00665424
0.00699065
0.00732209
0.00764722
0.00796473
0.00827324
0.0085714
0.00885784
0.00913122
0.00939028
0.00963384
0.00986083
0.0100703
0.0102613
0.0104331
0.0105851
0.0107167
0.0108277
0.010918
0.0109876
0.011037
0.0110669
0.0110781
0.0110717
0.0110493
0.0110124
0.0109632
0.010904
0.0108374
0.0107662
0.0106936
0.0106229
0.0105576
0.0104978
0.0104428
0.000186915
0.000102342
2.23992e-05
-5.6238e-05
-0.000136017
-0.000213926
-0.000287169
-0.000353587
-0.00041128
-0.000458606
-0.000494209
-0.000516958
-0.000525933
-0.000520432
-0.000499961
-0.000464167
-0.00041277
-0.000345583
-0.00026257
-0.000163822
-4.94761e-05
8.03225e-05
0.000225411
0.000385555
0.000560415
0.000749581
0.000952651
0.00116924
0.00139893
0.00164121
0.00189549
0.00216114
0.00243748
0.00272385
0.00301955
0.00332381
0.00363576
0.00395442
0.00427882
0.00460795
0.00494081
0.00527634
0.0056134
0.00595078
0.00628721
0.00662142
0.0069521
0.00727796
0.00759768
0.00790995
0.00821341
0.00850672
0.00878853
0.00905755
0.00931254
0.00955236
0.00977597
0.00998243
0.0101709
0.0103406
0.0104909
0.0106214
0.0107319
0.0108221
0.0108923
0.0109429
0.0109744
0.0109878
0.0109842
0.0109648
0.0109311
0.0108851
0.0108288
0.0107643
0.0106942
0.0106208
0.0105469
0.0104752
0.0104031
0.0103272
0.000275395
0.000170773
7.90542e-05
-5.55468e-06
-8.83196e-05
-0.000167016
-0.000239391
-0.000303819
-0.000358852
-0.000403217
-0.000435795
-0.000455612
-0.000461901
-0.000454108
-0.000431804
-0.000394634
-0.000342325
-0.000274727
-0.000191835
-9.37177e-05
1.95512e-05
0.000147885
0.000291134
0.000449057
0.000621322
0.000807569
0.00100746
0.00122066
0.00144673
0.00168516
0.00193537
0.00219677
0.00246871
0.00275057
0.00304166
0.00334119
0.00364831
0.00396206
0.0042815
0.00460569
0.00493363
0.00526429
0.00559652
0.00592913
0.00626087
0.00659049
0.00691672
0.00723828
0.00755387
0.00786217
0.00816184
0.00845153
0.00872991
0.00899572
0.00924773
0.00948485
0.00970603
0.00991034
0.010097
0.0102652
0.0104143
0.010544
0.010654
0.0107442
0.0108147
0.010866
0.0108986
0.0109134
0.0109113
0.0108935
0.0108615
0.0108169
0.0107613
0.0106969
0.0106254
0.0105489
0.0104697
0.0103899
0.0103043
0.0102075
0.000362947
0.000238457
0.000134023
4.18947e-05
-4.56063e-05
-0.000126877
-0.000200123
-0.000264198
-0.000318071
-0.000360765
-0.000391387
-0.000409188
-0.000413592
-0.000404149
-0.000380472
-0.000342238
-0.000289232
-0.000221366
-0.000138647
-4.11015e-05
7.12518e-05
0.000198343
0.000340008
0.000495999
0.000666021
0.000849774
0.00104697
0.00125729
0.00148027
0.00171542
0.00196218
0.00221999
0.00248826
0.00276636
0.00305362
0.00334926
0.00365241
0.00396217
0.00427764
0.0045979
0.00492199
0.00524887
0.00557741
0.00590641
0.00623465
0.0065609
0.00688391
0.00720242
0.00751512
0.00782068
0.00811776
0.008405
0.00868111
0.0089448
0.0091949
0.00943029
0.00964995
0.00985295
0.0100385
0.0102057
0.0103542
0.0104834
0.0105931
0.0106833
0.010754
0.0108056
0.0108388
0.0108541
0.0108526
0.0108353
0.0108036
0.0107587
0.0107024
0.0106362
0.0105617
0.0104804
0.0103944
0.0103054
0.0102061
0.0100892
0.000444498
0.000300927
0.000183609
8.31024e-05
-1.02911e-05
-9.53811e-05
-0.000170783
-0.000235792
-0.0002897
-0.000331774
-0.000361376
-0.000377998
-0.000381223
-0.000370677
-0.000346027
-0.000307032
-0.000253566
-0.000185585
-0.000103079
-6.03284e-06
0.000105551
0.000231582
0.00037188
0.000526213
0.00069434
0.000876018
0.00107098
0.00127889
0.0014993
0.00173171
0.00197562
0.00223049
0.00249579
0.00277088
0.00305508
0.00334762
0.00364766
0.00395435
0.00426682
0.00458418
0.00490547
0.00522966
0.00555561
0.00588214
0.00620805
0.00653213
0.00685314
0.0071698
0.0074808
0.0077848
0.00808045
0.00836639
0.00864132
0.00890399
0.00915319
0.00938781
0.00960683
0.0098093
0.00999438
0.0101613
0.0103096
0.0104387
0.0105483
0.0106385
0.0107092
0.0107609
0.0107941
0.0108094
0.0108077
0.0107899
0.0107573
0.0107111
0.0106526
0.0105833
0.0105044
0.0104173
0.0103236
0.0102248
0.010112
0.00997615
0.000516075
0.000354545
0.000224605
0.000115358
1.5389e-05
-7.44089e-05
-0.000152941
-0.000219844
-0.000274688
-0.000317003
-0.000346407
-0.000362579
-0.000365212
-0.000354015
-0.000328758
-0.00028931
-0.000235616
-0.000167645
-8.53616e-05
1.12597e-05
0.000122192
0.000247317
0.00038645
0.000539404
0.000705989
0.000885993
0.00107915
0.0012851
0.00150342
0.00173364
0.00197529
0.0022279
0.00249091
0.00276371
0.00304561
0.00333586
0.00363366
0.0039382
0.00424864
0.00456411
0.00488365
0.00520622
0.00553069
0.0058559
0.00618064
0.00650372
0.0068239
0.0071399
0.00745037
0.00775397
0.00804933
0.00833508
0.00860993
0.0088726
0.0091219
0.0093567
0.00957594
0.00977867
0.00996402
0.0101312
0.0102797
0.010409
0.0105188
0.010609
0.0106798
0.0107314
0.0107642
0.0107789
0.0107763
0.0107573
0.010723
0.0106743
0.0106127
0.0105392
0.010455
0.0103611
0.0102592
0.0101505
0.0100245
0.00987123
0.000574646
0.000396355
0.000254265
0.000136237
2.93231e-05
-6.57768e-05
-0.000148121
-0.000217609
-0.000274095
-0.000317374
-0.000347262
-0.000363562
-0.000366071
-0.000354617
-0.000329102
-0.00028949
-0.00023576
-0.000167878
-8.58063e-05
1.04509e-05
0.000120826
0.000245184
0.000383365
0.000535229
0.00070062
0.000879329
0.00107108
0.00127552
0.00149223
0.0017208
0.0019608
0.00221177
0.00247318
0.0027444
0.00302476
0.00331354
0.00360998
0.0039133
0.00422269
0.00453728
0.00485611
0.00517814
0.00550224
0.00582724
0.00615197
0.00647522
0.00679575
0.00711224
0.00742335
0.00772768
0.00802387
0.00831054
0.00858637
0.00885009
0.00910047
0.00933636
0.00955668
0.00976044
0.00994675
0.0101148
0.010264
0.0103939
0.0105041
0.0105945
0.0106652
0.0107165
0.0107487
0.0107624
0.0107584
0.0107375
0.0107005
0.0106487
0.010583
0.0105046
0.0104144
0.0103132
0.0102027
0.0100841
0.00994575
0.00977638
0.000617891
0.000423965
0.000270266
0.000143556
2.95435e-05
-7.11735e-05
-0.000157759
-0.000230352
-0.00028906
-0.000333882
-0.000364767
-0.000381632
-0.000384405
-0.000373059
-0.000347604
-0.000308062
-0.000254428
-0.000186675
-0.000104804
-8.86615e-06
0.000101037
0.000224778
0.000362237
0.000513305
0.000677836
0.000855609
0.00104634
0.00124969
0.00146528
0.00169275
0.00193169
0.00218167
0.00244214
0.00271249
0.00299207
0.0032802
0.00357616
0.0038792
0.00418853
0.00450326
0.00482243
0.00514499
0.00546981
0.00579575
0.00612161
0.00644619
0.00676822
0.00708637
0.00739925
0.00770545
0.00800358
0.00829226
0.00857014
0.00883593
0.00908838
0.00932629
0.00954854
0.00975411
0.00994205
0.0101116
0.010262
0.0103928
0.0105036
0.0105944
0.0106651
0.0107159
0.0107472
0.0107596
0.0107537
0.0107303
0.0106903
0.0106346
0.0105642
0.0104802
0.0103834
0.0102747
0.0101555
0.0100272
0.00987702
0.00969292
0.000643904
0.000435385
0.000270619
0.000135408
1.43146e-05
-9.2146e-05
-0.000183254
-0.000259352
-0.000320728
-0.000367507
-0.000399758
-0.000417535
-0.000420917
-0.000409999
-0.000384861
-0.000345553
-0.000292093
-0.000224496
-0.000142821
-4.71659e-05
6.23625e-05
0.000185661
0.000322641
0.000473202
0.000637187
0.000814364
0.00100445
0.00120714
0.00142211
0.00164902
0.00188749
0.00213709
0.00239729
0.00266748
0.00294706
0.00323537
0.00353175
0.00383546
0.0041457
0.00446157
0.00478212
0.00510628
0.00543293
0.00576093
0.00608907
0.00641614
0.00674083
0.00706178
0.00737758
0.0076868
0.007988
0.00827978
0.00856079
0.00882969
0.00908518
0.00932603
0.00955107
0.00975922
0.00994949
0.010121
0.0102731
0.0104053
0.0105171
0.0106083
0.010679
0.0107294
0.0107597
0.0107705
0.0107623
0.010736
0.0106923
0.0106322
0.0105567
0.0104666
0.0103629
0.0102463
0.0101185
0.00998067
0.00981937
0.00962174
0.000651074
0.000428925
0.000253648
0.000110204
-1.78717e-05
-0.000130138
-0.000225971
-0.000305851
-0.000370179
-0.000419191
-0.00045309
-0.000472084
-0.000476375
-0.000466137
-0.00044149
-0.000402515
-0.000349281
-0.000281868
-0.00020039
-0.000104965
4.31201e-06
0.000127364
0.000264109
0.000414437
0.000578172
0.00075508
0.000944902
0.00114737
0.00136221
0.0015891
0.00182768
0.00207752
0.0023381
0.00260885
0.00288921
0.00317856
0.00347625
0.00378156
0.00409368
0.0044117
0.00473466
0.00506149
0.00539107
0.00572224
0.00605381
0.00638452
0.00671303
0.00703794
0.00735782
0.00767119
0.0079766
0.00827261
0.00855784
0.00883089
0.00909044
0.00933517
0.00956386
0.00977538
0.00996869
0.0101429
0.0102972
0.0104311
0.0105442
0.0106361
0.010707
0.0107568
0.010786
0.0107949
0.0107842
0.0107546
0.0107069
0.010642
0.0105608
0.0104644
0.0103535
0.010229
0.0100925
0.00994541
0.00977356
0.00956339
0.000638109
0.000403185
0.000217943
6.65613e-05
-6.83904e-05
-0.000186501
-0.000287174
-0.000370982
-0.000438426
-0.00048987
-0.000525661
-0.000546132
-0.000551562
-0.000542171
-0.000518119
-0.000479543
-0.000426583
-0.000359383
-0.000278088
-0.000182812
-7.36339e-05
4.93746e-05
0.000186121
0.00033647
0.000500239
0.000677207
0.000867149
0.00106984
0.00128504
0.00151245
0.0017517
0.00200239
0.00226401
0.00253605
0.00281797
0.00310919
0.00340909
0.00371693
0.00403189
0.00435305
0.00467944
0.00501
0.0053436
0.00567907
0.0060152
0.0063507
0.00668418
0.00701423
0.00733935
0.00765804
0.00796882
0.00827022
0.00856078
0.00883907
0.00910369
0.00935327
0.00958652
0.00980223
0.00999931
0.0101768
0.0103339
0.01047
0.0105847
0.0106776
0.0107487
0.0107981
0.0108261
0.010833
0.0108196
0.0107864
0.0107343
0.0106643
0.0105772
0.0104741
0.0103559
0.0102233
0.0100781
0.00992206
0.00974012
0.00951819
0.00060401
0.000357021
0.000162276
3.20005e-06
-0.000138517
-0.000262448
-0.000367979
-0.000455773
-0.00052645
-0.000580505
-0.000618398
-0.000640537
-0.00064725
-0.0006388
-0.000615409
-0.000577292
-0.000524656
-0.000457683
-0.000376524
-0.000281284
-0.00017204
-4.88778e-05
8.80856e-05
0.000238698
0.00040278
0.000580142
0.0007706
0.000973967
0.00119001
0.00141845
0.00165894
0.00191107
0.00217441
0.00244846
0.00273273
0.00302667
0.00332965
0.00364092
0.00395966
0.00428494
0.00461577
0.0049511
0.00528981
0.0056307
0.00597252
0.00631396
0.00665359
0.00698994
0.0073215
0.00764671
0.00796406
0.00827201
0.00856906
0.00885371
0.00912447
0.00937991
0.00961864
0.00983941
0.010041
0.0102225
0.0103831
0.0105219
0.0106386
0.0107327
0.0108043
0.0108533
0.0108801
0.010885
0.0108686
0.0108317
0.010775
0.0106996
0.0106063
0.0104964
0.0103705
0.0102298
0.010076
0.00991108
0.00971936
0.00948622
0.000547941
0.000289433
8.55324e-05
-8.10367e-05
-0.000229381
-0.00035904
-0.000469403
-0.000561227
-0.000635252
-0.000692073
-0.000732218
-0.000756135
-0.000764205
-0.000756755
-0.000734089
-0.000696493
-0.000644214
-0.000577449
-0.000496346
-0.000401011
-0.000291539
-0.000168042
-3.06608e-05
0.000120449
0.000285132
0.000463234
0.000654609
0.00085909
0.00107646
0.00130644
0.00154871
0.00180291
0.00206862
0.00234541
0.00263282
0.0029303
0.00323721
0.0035528
0.00387624
0.00420659
0.00454286
0.00488401
0.0052289
0.00557632
0.00592498
0.00627351
0.00662046
0.00696433
0.00730354
0.0076365
0.00796164
0.00827738
0.00858212
0.00887428
0.0091523
0.00941465
0.00965987
0.00988661
0.0100936
0.0102799
0.0104445
0.0105866
0.0107057
0.0108015
0.0108738
0.0109227
0.0109483
0.0109511
0.0109317
0.0108909
0.0108294
0.0107483
0.0106487
0.0105316
0.010398
0.0102489
0.0100866
0.00991273
0.00971139
0.00946735
0.000469126
0.000199509
-1.32737e-05
-0.00018714
-0.00034196
-0.00047726
-0.000592445
-0.000688367
-0.000765848
-0.000825539
-0.000868007
-0.000893753
-0.000903227
-0.00089684
-0.000874967
-0.000837937
-0.000786016
-0.000719404
-0.000638252
-0.00054269
-0.000432842
-0.000308848
-0.000170857
-1.90072e-05
0.000146576
0.000325773
0.000518462
0.000724487
0.000943642
0.00117567
0.00142028
0.00167714
0.0019459
0.00222617
0.00251748
0.00281929
0.00313097
0.00345175
0.00378078
0.00411715
0.00445986
0.00480787
0.00516001
0.00551506
0.00587169
0.00622849
0.00658397
0.00693658
0.00728469
0.00762668
0.0079609
0.00828568
0.00859936
0.00890025
0.0091867
0.00945707
0.00970983
0.00994354
0.0101569
0.0103487
0.0105181
0.0106641
0.0107863
0.0108841
0.0109575
0.0110063
0.011031
0.0110317
0.0110093
0.0109644
0.0108979
0.010811
0.0107047
0.0105802
0.0104387
0.0102811
0.0101099
0.0099271
0.00971612
0.00946127
0.000366852
8.64409e-05
-0.000134992
-0.00031599
-0.00047718
-0.000618089
-0.000738133
-0.000838221
-0.000919222
-0.000981822
-0.00102664
-0.00105425
-0.00106519
-0.00105994
-0.00103891
-0.00100246
-0.000950857
-0.000884316
-0.000803012
-0.000707105
-0.000596753
-0.000472107
-0.000333305
-0.000180462
-1.36699e-05
0.000166977
0.000361366
0.000569351
0.000790743
0.00102531
0.00127281
0.00153296
0.00180544
0.00208989
0.00238585
0.00269278
0.00301002
0.00333683
0.00367235
0.00401567
0.00436581
0.00472171
0.00508218
0.00544598
0.00581174
0.006178
0.00654324
0.00690585
0.00726417
0.00761651
0.00796112
0.00829627
0.00862018
0.00893108
0.00922719
0.00950678
0.00976822
0.01001
0.0102306
0.0104289
0.0106039
0.0107546
0.0108804
0.0109808
0.0110555
0.0111047
0.0111284
0.0111272
0.0111017
0.0110526
0.010981
0.0108879
0.0107747
0.0106425
0.0104927
0.0103264
0.0101461
0.00995407
0.00973326
0.00946751
0.000240506
-5.04913e-05
-0.000280416
-0.000468461
-0.000635999
-0.000782543
-0.000907489
-0.00101178
-0.00109632
-0.00116184
-0.00120904
-0.00123857
-0.00125104
-0.00124698
-0.00122682
-0.00119092
-0.00113957
-0.00107302
-0.000991471
-0.000895121
-0.000784144
-0.000658685
-0.000518861
-0.000364757
-0.000196446
-1.40083e-05
0.000182451
0.000392798
0.000616871
0.000854482
0.00110543
0.00136947
0.00164632
0.00193563
0.00223696
0.00254974
0.00287334
0.003207
0.00354988
0.00390109
0.00425964
0.00462446
0.00499435
0.00536803
0.00574408
0.00612103
0.0064973
0.00687124
0.00724112
0.00760516
0.00796155
0.00830845
0.00864397
0.00896621
0.00927329
0.00956337
0.00983469
0.0100856
0.0103147
0.0105205
0.0107019
0.0108581
0.0109882
0.0110917
0.0111683
0.0112181
0.0112411
0.011238
0.0112093
0.0111559
0.0110789
0.0109795
0.010859
0.0107188
0.0105603
0.0103848
0.010195
0.00999342
0.00976246
0.00948551
8.94964e-05
-0.000212009
-0.000450384
-0.000645481
-0.000819403
-0.000971619
-0.00110149
-0.00120999
-0.00129807
-0.00136654
-0.00141618
-0.00144772
-0.00146178
-0.00145893
-0.00143961
-0.00140421
-0.00135305
-0.00128641
-0.00120455
-0.00110766
-0.000995933
-0.000869485
-0.000728412
-0.000572782
-0.000402653
-0.000218102
-1.92225e-05
0.000193874
0.000421063
0.000662205
0.000917137
0.00118566
0.00146751
0.00176234
0.00206971
0.00238906
0.00271976
0.00306108
0.0034122
0.00377221
0.00414015
0.00451492
0.00489532
0.00528002
0.00566758
0.00605648
0.00644509
0.00683171
0.00721454
0.00759172
0.00796133
0.00832142
0.00866998
0.00900499
0.00932444
0.00962637
0.00990889
0.0101703
0.0104089
0.0106233
0.0108123
0.0109747
0.0111099
0.0112171
0.0112961
0.0113468
0.0113695
0.0113645
0.0113327
0.0112749
0.0111923
0.0110861
0.010958
0.0108093
0.0106415
0.0104563
0.0102565
0.0100449
0.00980336
0.00951475
-8.68253e-05
-0.000398889
-0.000645777
-0.000847986
-0.00102834
-0.00118626
-0.00132106
-0.00143379
-0.00152546
-0.00159696
-0.00164912
-0.00168271
-0.00169839
-0.00169673
-0.00167821
-0.00164325
-0.00159224
-0.00152547
-0.00144321
-0.0013457
-0.00123307
-0.00110545
-0.000962896
-0.000805485
-0.000633265
-0.000446302
-0.000244672
-2.84533e-05
0.000202277
0.000447426
0.000706866
0.000980423
0.00126785
0.00156881
0.00188285
0.00220945
0.00254798
0.00289774
0.00325793
0.00362766
0.00400596
0.00439171
0.00478371
0.00518058
0.00558088
0.00598302
0.00638533
0.00678604
0.00718328
0.00757508
0.00795942
0.00833421
0.00869733
0.00904662
0.00937994
0.00969518
0.00999034
0.0102635
0.010513
0.0107372
0.0109348
0.0111046
0.0112457
0.0113573
0.0114393
0.0114914
0.0115138
0.0115072
0.0114722
0.0114098
0.0113213
0.0112081
0.0110717
0.010914
0.0107365
0.010541
0.0103306
0.0101084
0.00985566
0.00955476
-0.000289164
-0.000611937
-0.00086746
-0.00107686
-0.0012637
-0.00142736
-0.00156716
-0.00168419
-0.00177954
-0.00185416
-0.00190891
-0.00194458
-0.00196185
-0.00196135
-0.00194359
-0.00190905
-0.00185814
-0.00179119
-0.00170848
-0.00161021
-0.00149653
-0.00136754
-0.0012233
-0.00106388
-0.000889327
-0.000699682
-0.000494992
-0.000275295
-4.06203e-05
0.00020898
0.000473407
0.000752502
0.00104603
0.00135366
0.00167497
0.00200945
0.00235651
0.00271546
0.00308554
0.00346587
0.00385547
0.00425324
0.00465792
0.00506816
0.00548243
0.00589914
0.00631654
0.00673279
0.00714593
0.0075539
0.00795454
0.00834564
0.00872493
0.00909012
0.00943891
0.00976906
0.0100784
0.0103649
0.0106267
0.0108621
0.0110695
0.0112477
0.0113956
0.0115126
0.0115981
0.011652
0.0116747
0.0116664
0.0116282
0.0115611
0.0114664
0.0113457
0.0112007
0.0110334
0.0108455
0.010639
0.0104173
0.0101838
0.00991917
0.00960515
-0.000518228
-0.000851939
-0.00111625
-0.00133296
-0.00152639
-0.00169589
-0.0018408
-0.00196225
-0.00206139
-0.00213919
-0.00219656
-0.00223429
-0.00225315
-0.00225378
-0.00223677
-0.00220263
-0.00215179
-0.00208461
-0.00200135
-0.00190221
-0.00178733
-0.0016568
-0.00151069
-0.00134907
-0.00117197
-0.000979395
-0.00077136
-0.000547856
-0.000308869
-5.44188e-05
0.000215415
0.000500487
0.000800577
0.00111538
0.00144449
0.00178744
0.00214367
0.00251253
0.00289329
0.00328508
0.00368691
0.00409769
0.00451616
0.00494092
0.00537043
0.00580304
0.00623695
0.00667024
0.00710083
0.00752657
0.00794516
0.00835425
0.00875142
0.00913424
0.00950024
0.00984703
0.0101723
0.0104737
0.0107494
0.0109974
0.011216
0.0114039
0.0115598
0.0116829
0.0117728
0.0118292
0.0118523
0.0118428
0.0118014
0.0117294
0.0116282
0.0114996
0.0113454
0.0111678
0.0109688
0.0107505
0.0105168
0.0102712
0.00999373
0.00966552
-0.000774718
-0.00111966
-0.00139298
-0.00161717
-0.00181734
-0.00199287
-0.00214304
-0.00226904
-0.00237205
-0.00245308
-0.00251307
-0.00255288
-0.00257331
-0.00257509
-0.00255883
-0.00252508
-0.00247429
-0.0024068
-0.00232289
-0.00222275
-0.00210654
-0.00197434
-0.00182623
-0.00166225
-0.00148242
-0.0012867
-0.00107506
-0.000847461
-0.000603846
-0.000344211
-6.86201e-05
0.000222796
0.000529844
0.000852247
0.00118964
0.0015416
0.00190761
0.00228706
0.00267924
0.00308331
0.00349828
0.00392306
0.00435639
0.00479684
0.00524286
0.00569272
0.00614457
0.0065964
0.00704604
0.0074912
0.00792946
0.00835833
0.00877522
0.00917752
0.00956263
0.00992794
0.0102709
0.0105892
0.0108805
0.0111428
0.0113741
0.011573
0.0117382
0.0118685
0.0119636
0.0120231
0.0120473
0.0120367
0.0119922
0.0119152
0.0118073
0.0116703
0.0115064
0.0113179
0.0111069
0.010876
0.0106293
0.0103705
0.0100791
0.00973542
-0.00105935
-0.0014159
-0.00169852
-0.00193044
-0.00213761
-0.00231935
-0.00247495
-0.00260561
-0.00271256
-0.00279686
-0.00285949
-0.0029014
-0.00292345
-0.00292639
-0.0029109
-0.00287752
-0.00282672
-0.00275886
-0.00267422
-0.00257299
-0.00245535
-0.00232139
-0.00217117
-0.00200471
-0.001822
-0.00162295
-0.00140751
-0.00117557
-0.00092708
-0.000661999
-0.000380377
-8.23208e-05
0.000232011
0.000562388
0.0009085
0.00126996
0.00164631
0.00203698
0.00244129
0.00285842
0.0032874
0.00372715
0.00417639
0.00463369
0.00509746
0.00556592
0.00603716
0.00650907
0.00697939
0.00744569
0.00790543
0.00835595
0.0087945
0.0092183
0.00962455
0.0100104
0.0103732
0.0107103
0.0110192
0.0112976
0.0115434
0.0117549
0.0119307
0.0120695
0.0121708
0.0122343
0.0122601
0.0122488
0.0122014
0.0121194
0.0120045
0.0118587
0.0116844
0.0114841
0.0112604
0.0110158
0.0107549
0.0104819
0.0101751
0.0098143
-0.00137294
-0.00174157
-0.00203386
-0.00227381
-0.00248823
-0.00267641
-0.00283757
-0.002973
-0.00308397
-0.0031716
-0.00323695
-0.00328103
-0.00330474
-0.00330888
-0.00329415
-0.00326112
-0.00321026
-0.00314197
-0.00305652
-0.00295416
-0.00283505
-0.00269927
-0.00254688
-0.00237785
-0.00219214
-0.00198963
-0.00177021
-0.00153378
-0.00128024
-0.00100953
-0.000721682
-0.000416764
-9.48866e-05
0.000243778
0.000598976
0.000970374
0.00135756
0.00176003
0.00217713
0.00260807
0.00305189
0.00350753
0.00397372
0.004449
0.00493176
0.00542017
0.00591224
0.00640579
0.00689845
0.00738768
0.00787078
0.00834494
0.00880724
0.00925469
0.00968429
0.010093
0.0104778
0.0108359
0.0111645
0.0114611
0.0117233
0.0119492
0.0121372
0.012286
0.0123947
0.0124631
0.0124912
0.0124797
0.0124297
0.0123427
0.0122205
0.0120655
0.0118801
0.0116673
0.0114297
0.0111703
0.0108938
0.010605
0.0102813
0.00990151
-0.00171638
-0.00209763
-0.00240002
-0.00264833
-0.00287027
-0.00306508
-0.00323199
-0.00337231
-0.00348742
-0.00357849
-0.00364666
-0.00369298
-0.00371841
-0.00372377
-0.00370978
-0.00367707
-0.00362612
-0.00355736
-0.00347111
-0.0033676
-0.00324701
-0.0031094
-0.00295479
-0.00278314
-0.00259436
-0.0023883
-0.00216482
-0.0019238
-0.00166512
-0.00138869
-0.00109449
-0.000782562
-0.000452945
-0.000105745
0.000258846
0.000640555
0.00103903
0.00145381
0.00188429
0.00232971
0.00278916
0.00326157
0.00374568
0.00424004
0.00474299
0.00525268
0.00576703
0.0062838
0.00680052
0.00731452
0.00782296
0.00832286
0.00881112
0.00928455
0.00973988
0.0101738
0.0105832
0.0109647
0.0113154
0.0116324
0.0119132
0.0121556
0.0123577
0.012518
0.0126356
0.0127101
0.0127415
0.0127304
0.012678
0.012586
0.0124564
0.0122916
0.0120944
0.011868
0.0116153
0.0113396
0.0110461
0.0107398
0.0103973
0.00999636
-0.00209062
-0.00248511
-0.00279805
-0.00305507
-0.00328481
-0.0034865
-0.00365935
-0.00380475
-0.00392416
-0.00401882
-0.00408991
-0.00413855
-0.00416572
-0.0041723
-0.00415906
-0.00412664
-0.00407561
-0.00400641
-0.00391937
-0.00381474
-0.00369268
-0.00355324
-0.00339642
-0.00322213
-0.00303026
-0.00282063
-0.00259308
-0.00234747
-0.00208364
-0.00180147
-0.00150089
-0.00118187
-0.00084439
-0.000488481
-0.000114266
0.000278045
0.000688163
0.00111569
0.00156006
0.00202058
0.00249635
0.00298633
0.00348928
0.00400375
0.00452806
0.00506032
0.0055984
0.00613997
0.00668249
0.00722317
0.00775902
0.00828689
0.00880347
0.00930534
0.00978897
0.0102508
0.0106873
0.0110949
0.0114704
0.0118105
0.0121123
0.0123735
0.0125918
0.0127656
0.0128938
0.0129757
0.0130114
0.0130016
0.0129473
0.0128504
0.0127131
0.012538
0.0123282
0.012087
0.0118179
0.0115243
0.0112119
0.0108862
0.0105228
0.0100983
-0.00249666
-0.00290504
-0.00322903
-0.00349514
-0.00373301
-0.00394187
-0.00412093
-0.00427164
-0.00439554
-0.00449392
-0.00456802
-0.00461902
-0.00464796
-0.00465578
-0.00464329
-0.00461121
-0.00456013
-0.00449052
-0.00440275
-0.00429705
-0.00417357
-0.00403234
-0.00387333
-0.00369644
-0.00350153
-0.00328839
-0.00305686
-0.00280674
-0.00253784
-0.00224999
-0.00194306
-0.00161696
-0.00127157
-0.000906871
-0.000522895
-0.000119787
0.00030223
0.000742826
0.00120151
0.00167761
0.0021703
0.00267855
0.00320117
0.0037367
0.00428346
0.00483953
0.00540274
0.00597071
0.0065408
0.00711011
0.00767553
0.00823369
0.00878109
0.00931403
0.00982873
0.0103213
0.0107879
0.0112246
0.0116277
0.0119937
0.0123195
0.0126021
0.0128391
0.0130286
0.0131693
0.0132604
0.0133018
0.0132941
0.0132386
0.013137
0.0129917
0.0128058
0.0125824
0.0123252
0.0120381
0.0117247
0.0113915
0.0110444
0.0106576
0.0102067
-0.00293556
-0.00335855
-0.00369413
-0.00396977
-0.00421617
-0.00443256
-0.00461811
-0.00477437
-0.00490292
-0.00500514
-0.00508234
-0.00513575
-0.00516649
-0.00517557
-0.00516388
-0.00513219
-0.00508113
-0.00501119
-0.00492275
-0.00481605
-0.00469122
-0.00454827
-0.00438716
-0.00420778
-0.00400995
-0.00379346
-0.00355809
-0.00330363
-0.00302983
-0.00273645
-0.0024233
-0.0020902
-0.00173698
-0.0013635
-0.000969744
-0.000555766
-0.000121717
0.000332148
0.000805414
0.00129747
0.00180753
0.00233463
0.0028776
0.00343502
0.00400522
0.00458626
0.00517597
0.00577189
0.00637132
0.00697127
0.00756846
0.00815934
0.00874017
0.00930699
0.00985571
0.0103821
0.0108819
0.011351
0.0117851
0.0121803
0.0125331
0.0128401
0.0130987
0.0133066
0.0134621
0.0135643
0.0136131
0.0136088
0.0135527
0.0134468
0.0132936
0.0130962
0.0128582
0.0125838
0.0122769
0.0119418
0.0115856
0.0112146
0.0108019
0.0103213
-0.00340846
-0.00384685
-0.00419465
-0.00448032
-0.0047357
-0.00495998
-0.00515233
-0.00531436
-0.00544773
-0.0055539
-0.00563426
-0.00569013
-0.00572273
-0.00573314
-0.00572232
-0.0056911
-0.00564013
-0.00556996
-0.00548094
-0.00537332
-0.00524724
-0.0051027
-0.00493964
-0.00475793
-0.0045574
-0.00433778
-0.00409883
-0.00384028
-0.00356183
-0.00326316
-0.002944
-0.00260411
-0.00224323
-0.00186113
-0.00145769
-0.00103291
-0.000586851
-0.000119671
0.000368292
0.000876505
0.00140424
0.0019506
0.00251445
0.00309446
0.00368896
0.00429604
0.00491351
0.0055389
0.00616942
0.006802
0.00743321
0.0080593
0.00867629
0.00927994
0.00986583
0.0104294
0.010966
0.0114709
0.0119396
0.0123677
0.0127511
0.0130861
0.0133696
0.0135989
0.013772
0.0138878
0.0139458
0.0139464
0.0138909
0.0137811
0.0136199
0.0134106
0.0131571
0.0128639
0.0125355
0.0121767
0.0117949
0.0113975
0.0109557
0.0104418
-0.00391662
-0.00437129
-0.00473201
-0.00502826
-0.00529307
-0.00552562
-0.00572504
-0.00589305
-0.00603139
-0.00614162
-0.00622524
-0.00628366
-0.0063182
-0.00633003
-0.00632018
-0.00628951
-0.00623873
-0.0061684
-0.00607891
-0.0059705
-0.00584332
-0.00569737
-0.00553259
-0.00534882
-0.00514587
-0.00492344
-0.00468123
-0.00441893
-0.00413616
-0.00383253
-0.00350769
-0.00316133
-0.00279308
-0.00240265
-0.0019898
-0.00155445
-0.00109655
-0.000616186
-0.000113591
0.000410791
0.000956317
0.00152216
0.00210727
0.00271039
0.00332991
0.00396396
0.00461037
0.00526663
0.00592994
0.00659712
0.00726459
0.00792843
0.0085844
0.00922797
0.00985438
0.0104587
0.0110358
0.0115806
0.012088
0.012553
0.0129711
0.0133381
0.0136503