/*--------------------------------*- C++ -*----------------------------------*\
  =========                 |
  \\      /  F ield         | OpenFOAM: The Open Source CFD Toolbox
   \\    /   O peration     | Website:  https://openfoam.org
    \\  /    A nd           | Version:  7
     \\/     M anipulation  |
\*---------------------------------------------------------------------------*/
FoamFile
{
    version     2.0;
    format      ascii;
    class       surfaceScalarField;
    location    "0.475";
    object      phi;
}
// * * * * * * * * * * * * * * * * * * * * * * * * * * * * * * * * * * * * * //

dimensions      [0 3 -1 0 0 0 0];

internalField   nonuniform List<scalar> 
12640
(
1.87932e-10
-1.87907e-10
2.42545e-10
-5.46043e-11
-2.45685e-13
2.42777e-10
-5.49213e-10
5.48966e-10
-1.38089e-09
8.31657e-10
-2.44957e-09
1.06868e-09
-3.70822e-09
1.25865e-09
-5.11466e-09
1.40644e-09
-6.63302e-09
1.51837e-09
-8.23374e-09
1.60071e-09
-9.89293e-09
1.65918e-09
-1.15916e-08
1.69867e-09
-1.33149e-08
1.72326e-09
-1.50511e-08
1.73626e-09
-1.67914e-08
1.74027e-09
-1.85287e-08
1.73726e-09
-2.02573e-08
1.72867e-09
-2.19729e-08
1.71553e-09
-2.36713e-08
1.69848e-09
-2.53492e-08
1.67784e-09
-2.70029e-08
1.6537e-09
-2.86288e-08
1.62595e-09
-3.02232e-08
1.59434e-09
-3.17816e-08
1.55849e-09
-3.32996e-08
1.51793e-09
-3.47717e-08
1.47213e-09
-3.61922e-08
1.42052e-09
-3.75548e-08
1.36253e-09
-3.88523e-08
1.29759e-09
-4.00775e-08
1.22516e-09
-4.12222e-08
1.14472e-09
-4.22781e-08
1.05583e-09
-4.32362e-08
9.58141e-10
-4.40876e-08
8.5138e-10
-4.4823e-08
7.35413e-10
-4.54332e-08
6.10238e-10
-4.59093e-08
4.76016e-10
-4.62423e-08
3.33074e-10
-4.64242e-08
1.8193e-10
-4.64476e-08
2.33296e-11
-4.63057e-08
-1.41855e-10
-4.59933e-08
-3.12411e-10
-4.55063e-08
-4.87012e-10
-4.48422e-08
-6.64096e-10
-4.40003e-08
-8.41919e-10
-4.29817e-08
-1.01857e-09
-4.17897e-08
-1.192e-09
-4.04296e-08
-1.36006e-09
-3.89091e-08
-1.52055e-09
-3.72378e-08
-1.67125e-09
-3.54278e-08
-1.81e-09
-3.34931e-08
-1.9347e-09
-3.14497e-08
-2.04342e-09
-2.93153e-08
-2.13439e-09
-2.71092e-08
-2.2061e-09
-2.48519e-08
-2.2573e-09
-2.25649e-08
-2.28706e-09
-2.02701e-08
-2.29476e-09
-1.799e-08
-2.28011e-09
-1.57469e-08
-2.24317e-09
-1.35626e-08
-2.18431e-09
-1.14584e-08
-2.10421e-09
-9.45453e-09
-2.00384e-09
-7.57012e-09
-1.88441e-09
-5.82279e-09
-1.74734e-09
-4.22857e-09
-1.59423e-09
-2.80173e-09
-1.42684e-09
-1.55464e-09
-1.24709e-09
-4.97608e-10
-1.05703e-09
3.61356e-10
-8.58965e-10
1.01687e-09
-6.55522e-10
1.46647e-09
-4.49609e-10
1.71172e-09
-2.45251e-10
1.75958e-09
-4.78688e-11
1.62457e-09
1.35011e-10
1.33329e-09
2.91274e-10
9.30418e-10
4.02868e-10
4.89541e-10
4.40881e-10
1.29205e-10
3.60339e-10
1.29203e-10
5.44502e-11
-2.42349e-10
-3.30255e-10
3.30065e-10
-1.36558e-09
1.27812e-09
-3.09862e-09
2.282e-09
-5.48259e-09
3.21563e-09
-8.43879e-09
4.02486e-09
-1.18751e-08
4.69497e-09
-1.57005e-08
5.23188e-09
-1.98322e-08
5.64999e-09
-2.41978e-08
5.96639e-09
-2.87367e-08
6.19801e-09
-3.33983e-08
6.36029e-09
-3.81417e-08
6.46664e-09
-4.29337e-08
6.52827e-09
-4.77477e-08
6.55422e-09
-5.2562e-08
6.55158e-09
-5.7359e-08
6.52568e-09
-6.21238e-08
6.48036e-09
-6.68435e-08
6.41816e-09
-7.15062e-08
6.34053e-09
-7.61005e-08
6.24802e-09
-8.06151e-08
6.14049e-09
-8.50379e-08
6.01722e-09
-8.93565e-08
5.87701e-09
-9.35569e-08
5.71839e-09
-9.76244e-08
5.5396e-09
-1.01543e-07
5.33878e-09
-1.05294e-07
5.11401e-09
-1.0886e-07
4.86335e-09
-1.1222e-07
4.58498e-09
-1.15352e-07
4.27724e-09
-1.18235e-07
3.93868e-09
-1.20845e-07
3.56816e-09
-1.23159e-07
3.16489e-09
-1.25152e-07
2.72855e-09
-1.26801e-07
2.25928e-09
-1.28083e-07
1.75782e-09
-1.28975e-07
1.2255e-09
-1.29457e-07
6.64332e-10
-1.29511e-07
7.70469e-11
-1.2912e-07
-5.32937e-10
-1.28271e-07
-1.16141e-09
-1.26955e-07
-1.80345e-09
-1.25165e-07
-2.45347e-09
-1.22902e-07
-3.10522e-09
-1.20169e-07
-3.75192e-09
-1.16974e-07
-4.3863e-09
-1.13334e-07
-5.00081e-09
-1.09266e-07
-5.58769e-09
-1.04799e-07
-6.13916e-09
-9.99609e-08
-6.64759e-09
-9.479e-08
-7.10567e-09
-8.93268e-08
-7.50659e-09
-8.36171e-08
-7.84416e-09
-7.77101e-08
-8.11305e-09
-7.16586e-08
-8.30881e-09
-6.55177e-08
-8.42804e-09
-5.9344e-08
-8.46846e-09
-5.31952e-08
-8.42892e-09
-4.71289e-08
-8.3094e-09
-4.12022e-08
-8.11102e-09
-3.54705e-08
-7.83595e-09
-2.9987e-08
-7.48738e-09
-2.4802e-08
-7.06936e-09
-1.99626e-08
-6.58677e-09
-1.55116e-08
-6.04521e-09
-1.14875e-08
-5.45096e-09
-7.92365e-09
-4.81097e-09
-4.84772e-09
-4.13297e-09
-2.28102e-09
-3.42568e-09
-2.37347e-10
-2.6992e-09
1.27874e-09
-1.9657e-09
2.27394e-09
-1.24046e-09
2.76973e-09
-5.43673e-10
2.80794e-09
9.67955e-11
2.45659e-09
6.42625e-10
1.82061e-09
1.03885e-09
1.05169e-09
1.20981e-09
3.55759e-10
1.05627e-09
4.84959e-10
-2.44827e-10
2.46392e-12
-1.2957e-09
1.38093e-09
-3.30123e-09
3.28362e-09
-6.27894e-09
5.25972e-09
-1.01699e-08
7.10657e-09
-1.48737e-08
8.72866e-09
-2.02725e-08
1.00938e-08
-2.62466e-08
1.12059e-08
-3.26831e-08
1.20865e-08
-3.94809e-08
1.27642e-08
-4.65523e-08
1.32694e-08
-5.38228e-08
1.36308e-08
-6.12302e-08
1.3874e-08
-6.8723e-08
1.40211e-08
-7.62588e-08
1.409e-08
-8.38024e-08
1.40951e-08
-9.13243e-08
1.40476e-08
-9.87995e-08
1.39555e-08
-1.06206e-07
1.38243e-08
-1.13522e-07
1.36572e-08
-1.2073e-07
1.34558e-08
-1.2781e-07
1.322e-08
-1.34741e-07
1.29486e-08
-1.41503e-07
1.26394e-08
-1.48074e-07
1.22895e-08
-1.5443e-07
1.18956e-08
-1.60546e-07
1.1454e-08
-1.66393e-07
1.09609e-08
-1.71942e-07
1.04126e-08
-1.77162e-07
9.80539e-09
-1.82021e-07
9.13614e-09
-1.86484e-07
8.40205e-09
-1.90517e-07
7.601e-09
-1.94084e-07
6.73162e-09
-1.97149e-07
5.79345e-09
-1.99677e-07
4.7871e-09
-2.01633e-07
3.71431e-09
-2.02986e-07
2.57813e-09
-2.03704e-07
1.38296e-09
-2.03762e-07
1.34697e-10
-2.03136e-07
-1.15939e-09
-2.01807e-07
-2.4904e-09
-1.99762e-07
-3.84805e-09
-1.96995e-07
-5.22066e-09
-1.93505e-07
-6.59528e-09
-1.89299e-07
-7.95788e-09
-1.84392e-07
-9.29352e-09
-1.78806e-07
-1.05867e-08
-1.72572e-07
-1.18214e-08
-1.65729e-07
-1.29819e-08
-1.58325e-07
-1.40524e-08
-1.50412e-07
-1.50182e-08
-1.42053e-07
-1.58653e-08
-1.33316e-07
-1.65811e-08
-1.24275e-07
-1.71546e-08
-1.15007e-07
-1.75767e-08
-1.05594e-07
-1.78406e-08
-9.61217e-08
-1.79412e-08
-8.66745e-08
-1.78761e-08
-7.73387e-08
-1.76452e-08
-6.81993e-08
-1.72504e-08
-5.93392e-08
-1.66961e-08
-5.08382e-08
-1.59884e-08
-4.2772e-08
-1.51355e-08
-3.52115e-08
-1.41473e-08
-2.82216e-08
-1.30352e-08
-2.18603e-08
-1.18123e-08
-1.61782e-08
-1.04931e-08
-1.1217e-08
-9.09412e-09
-7.00859e-09
-7.63412e-09
-3.57287e-09
-6.13494e-09
-9.15711e-10
-4.62286e-09
9.74422e-10
-3.13059e-09
2.13086e-09
-1.70012e-09
2.61413e-09
-3.8648e-10
2.52011e-09
7.36649e-10
1.9877e-09
1.57126e-09
1.20832e-09
1.98919e-09
4.3338e-10
1.83121e-09
9.18343e-10
-5.68361e-10
5.70839e-10
-2.3626e-09
3.17515e-09
-5.40185e-09
6.32287e-09
-9.64758e-09
9.50544e-09
-1.50085e-08
1.24675e-08
-2.13616e-08
1.50818e-08
-2.85695e-08
1.73017e-08
-3.64927e-08
1.91292e-08
-4.49989e-08
2.05927e-08
-5.39674e-08
2.17327e-08
-6.32914e-08
2.25934e-08
-7.28788e-08
2.32182e-08
-8.2651e-08
2.36462e-08
-9.25416e-08
2.39118e-08
-1.02495e-07
2.40434e-08
-1.12464e-07
2.40644e-08
-1.22409e-07
2.39926e-08
-1.32295e-07
2.38414e-08
-1.42091e-07
2.36201e-08
-1.51768e-07
2.33342e-08
-1.61299e-07
2.29865e-08
-1.70656e-07
2.25774e-08
-1.79813e-07
2.2105e-08
-1.88739e-07
2.15662e-08
-1.97406e-07
2.09566e-08
-2.05782e-07
2.02707e-08
-2.13831e-07
1.9503e-08
-2.21517e-07
1.86473e-08
-2.28802e-07
1.76978e-08
-2.35646e-07
1.66488e-08
-2.42005e-07
1.54954e-08
-2.47836e-07
1.42332e-08
-2.53094e-07
1.28592e-08
-2.57734e-07
1.13713e-08
-2.6171e-07
9.76925e-09
-2.64977e-07
8.05441e-09
-2.67493e-07
6.23007e-09
-2.69216e-07
4.30164e-09
-2.7011e-07
2.27679e-09
-2.70141e-07
1.65598e-10
-2.69281e-07
-2.01959e-09
-2.67507e-07
-4.26378e-09
-2.64806e-07
-6.54977e-09
-2.61168e-07
-8.85808e-09
-2.56596e-07
-1.11672e-08
-2.511e-07
-1.3454e-08
-2.447e-07
-1.56938e-08
-2.37425e-07
-1.78611e-08
-2.29317e-07
-1.99297e-08
-2.20425e-07
-2.18736e-08
-2.1081e-07
-2.36674e-08
-2.00542e-07
-2.52867e-08
-1.89699e-07
-2.67087e-08
-1.78367e-07
-2.7913e-08
-1.6664e-07
-2.88816e-08
-1.54617e-07
-2.95998e-08
-1.42401e-07
-3.00559e-08
-1.301e-07
-3.02421e-08
-1.17822e-07
-3.01543e-08
-1.05676e-07
-2.97918e-08
-9.37681e-08
-2.9158e-08
-8.22047e-08
-2.82595e-08
-7.10866e-08
-2.71065e-08
-6.05098e-08
-2.57122e-08
-5.05643e-08
-2.40928e-08
-4.13325e-08
-2.22671e-08
-3.28881e-08
-2.02567e-08
-2.52951e-08
-1.80861e-08
-1.86062e-08
-1.5783e-08
-1.28611e-08
-1.33792e-08
-8.08419e-09
-1.09118e-08
-4.282e-09
-8.42507e-09
-1.43933e-09
-5.97326e-09
4.85129e-10
-3.62458e-09
1.56474e-09
-1.46609e-09
1.91099e-09
3.90392e-10
1.68152e-09
1.80073e-09
1.08784e-09
2.58287e-09
4.05091e-10
2.51395e-09
1.32345e-09
-8.85369e-10
1.45619e-09
-3.41522e-09
5.70502e-09
-7.48455e-09
1.03922e-08
-1.29773e-08
1.49982e-08
-1.97566e-08
1.92468e-08
-2.76707e-08
2.29959e-08
-3.65617e-08
2.61927e-08
-4.6274e-08
2.88416e-08
-5.66607e-08
3.09793e-08
-6.7587e-08
3.2659e-08
-7.89329e-08
3.39393e-08
-9.05931e-08
3.48784e-08
-1.02477e-07
3.55299e-08
-1.14506e-07
3.59411e-08
-1.26615e-07
3.6152e-08
-1.38746e-07
3.61953e-08
-1.50849e-07
3.60965e-08
-1.62883e-07
3.5875e-08
-1.74807e-07
3.5544e-08
-1.86585e-07
3.51122e-08
-1.98182e-07
3.45839e-08
-2.09565e-07
3.39596e-08
-2.20697e-07
3.32373e-08
-2.31543e-07
3.24126e-08
-2.42066e-07
3.14794e-08
-2.52226e-07
3.04303e-08
-2.6198e-07
2.92572e-08
-2.71284e-07
2.79519e-08
-2.80093e-07
2.6506e-08
-2.88355e-07
2.49116e-08
-2.96022e-07
2.31619e-08
-3.0304e-07
2.12511e-08
-3.09355e-07
1.91749e-08
-3.14915e-07
1.69311e-08
-3.19666e-07
1.45197e-08
-3.23555e-07
1.19432e-08
-3.26531e-07
9.20686e-09
-3.28549e-07
6.3192e-09
-3.29564e-07
3.29193e-09
-3.29539e-07
1.40262e-10
-3.28441e-07
-3.11727e-09
-3.26246e-07
-6.45839e-09
-3.22939e-07
-9.85756e-09
-3.18511e-07
-1.32861e-08
-3.12966e-07
-1.67123e-08
-3.06317e-07
-2.01023e-08
-2.98591e-07
-2.342e-08
-2.89824e-07
-2.66282e-08
-2.80065e-07
-2.96888e-08
-2.69374e-07
-3.25642e-08
-2.57825e-07
-3.52172e-08
-2.45499e-07
-3.76126e-08
-2.3249e-07
-3.97176e-08
-2.189e-07
-4.15026e-08
-2.0484e-07
-4.29416e-08
-1.90427e-07
-4.40133e-08
-1.75782e-07
-4.4701e-08
-1.6103e-07
-4.49935e-08
-1.463e-07
-4.48846e-08
-1.31718e-07
-4.43736e-08
-1.17411e-07
-4.34652e-08
-1.03501e-07
-4.21692e-08
-9.01076e-08
-4.05002e-08
-7.73423e-08
-3.84775e-08
-6.53104e-08
-3.61247e-08
-5.41079e-08
-3.34695e-08
-4.38208e-08
-3.05438e-08
-3.45231e-08
-2.73837e-08
-2.62757e-08
-2.40305e-08
-1.91237e-08
-2.05312e-08
-1.30945e-08
-1.6941e-08
-8.1948e-09
-1.33248e-08
-4.40652e-09
-9.76155e-09
-1.68284e-09
-6.34827e-09
5.70214e-11
-3.20595e-09
9.33764e-10
-4.86354e-10
1.11396e-09
1.62054e-09
8.17123e-10
2.8797e-09
3.24777e-10
3.0063e-09
1.64823e-09
-1.17429e-09
2.63049e-09
-4.40155e-09
8.93228e-09
-9.4579e-09
1.54486e-08
-1.61461e-08
2.16864e-08
-2.42763e-08
2.7377e-08
-3.36623e-08
3.23819e-08
-4.41237e-08
3.66541e-08
-5.54886e-08
4.02064e-08
-6.7597e-08
4.30878e-08
-8.03034e-08
4.53654e-08
-9.34775e-08
4.71134e-08
-1.07005e-07
4.84054e-08
-1.20784e-07
4.93098e-08
-1.3473e-07
4.98872e-08
-1.48768e-07
5.01894e-08
-1.62832e-07
5.0259e-08
-1.76865e-07
5.01295e-08
-1.90816e-07
4.98264e-08
-2.0464e-07
4.93677e-08
-2.18292e-07
4.87649e-08
-2.31732e-07
4.80239e-08
-2.44919e-07
4.7146e-08
-2.5781e-07
4.61285e-08
-2.70363e-07
4.4966e-08
-2.82534e-07
4.36504e-08
-2.94277e-07
4.21724e-08
-3.05541e-07
4.05214e-08
-3.16275e-07
3.86864e-08
-3.26426e-07
3.66568e-08
-3.35937e-07
3.44224e-08
-3.44749e-07
3.19742e-08
-3.52803e-07
2.9305e-08
-3.60038e-07
2.64097e-08
-3.66393e-07
2.32858e-08
-3.71807e-07
1.99338e-08
-3.76221e-07
1.63577e-08
-3.7958e-07
1.25654e-08
-3.8183e-07
8.56909e-09
-3.82923e-07
4.3852e-09
-3.82818e-07
3.5014e-11
-3.81479e-07
-4.45592e-09
-3.78881e-07
-9.05672e-09
-3.75006e-07
-1.37324e-08
-3.69848e-07
-1.84437e-08
-3.63413e-07
-2.31475e-08
-3.55718e-07
-2.77975e-08
-3.46793e-07
-3.2345e-08
-3.36682e-07
-3.67393e-08
-3.25442e-07
-4.09291e-08
-3.13142e-07
-4.48635e-08
-2.99867e-07
-4.84926e-08
-2.8571e-07
-5.1769e-08
-2.70779e-07
-5.46485e-08
-2.5519e-07
-5.70915e-08
-2.39069e-07
-5.90633e-08
-2.22547e-07
-6.05353e-08
-2.05762e-07
-6.14855e-08
-1.88857e-07
-6.18987e-08
-1.71975e-07
-6.1767e-08
-1.55258e-07
-6.10898e-08
-1.3885e-07
-5.98736e-08
-1.22887e-07
-5.81318e-08
-1.07503e-07
-5.58844e-08
-9.28229e-08
-5.31579e-08
-7.89634e-08
-4.99842e-08
-6.60314e-08
-4.64015e-08
-5.4122e-08
-4.24533e-08
-4.33166e-08
-3.81892e-08
-3.36814e-08
-3.36656e-08
-2.52653e-08
-2.89473e-08
-1.80973e-08
-2.4109e-08
-1.21832e-08
-1.92388e-08
-7.50294e-09
-1.44419e-08
-4.00562e-09
-9.84559e-09
-1.60574e-09
-5.60584e-09
-1.78092e-10
-1.914e-09
4.47248e-10
9.95204e-10
4.90185e-10
2.83677e-09
2.27051e-10
3.26944e-09
1.87528e-09
-1.43235e-09
4.06283e-09
-5.30307e-09
1.2803e-08
-1.12828e-08
2.14283e-08
-1.90959e-08
2.94996e-08
-2.84974e-08
3.67784e-08
-3.92636e-08
4.31482e-08
-5.11888e-08
4.85792e-08
-6.40836e-08
5.31012e-08
-7.77756e-08
5.67798e-08
-9.21094e-08
5.96991e-08
-1.06946e-07
6.19503e-08
-1.22164e-07
6.36233e-08
-1.37656e-07
6.48016e-08
-1.53328e-07
6.55595e-08
-1.69099e-07
6.59607e-08
-1.84898e-07
6.60578e-08
-2.00661e-07
6.58925e-08
-2.16332e-07
6.54967e-08
-2.31857e-07
6.4893e-08
-2.47188e-07
6.40959e-08
-2.62277e-07
6.3113e-08
-2.77077e-07
6.19461e-08
-2.91541e-07
6.05922e-08
-3.05619e-07
5.90445e-08
-3.19262e-07
5.72932e-08
-3.32416e-07
5.53264e-08
-3.45026e-07
5.31312e-08
-3.57033e-07
5.06939e-08
-3.68378e-07
4.80012e-08
-3.78996e-07
4.50407e-08
-3.88823e-07
4.18013e-08
-3.97792e-07
3.82743e-08
-4.05836e-07
3.44537e-08
-4.12888e-07
3.0337e-08
-4.18879e-07
2.59255e-08
-4.23747e-07
2.12251e-08
-4.27428e-07
1.62467e-08
-4.29865e-07
1.10065e-08
-4.31007e-07
5.52661e-09
-4.30807e-07
-1.64676e-10
-4.29228e-07
-6.03454e-09
-4.26243e-07
-1.20418e-08
-4.21834e-07
-1.81413e-08
-4.15996e-07
-2.42818e-08
-4.08736e-07
-3.04075e-08
-4.00075e-07
-3.64585e-08
-3.90049e-07
-4.23716e-08
-3.78706e-07
-4.80819e-08
-3.66112e-07
-5.35232e-08
-3.52346e-07
-5.86299e-08
-3.375e-07
-6.33381e-08
-3.21682e-07
-6.75871e-08
-3.0501e-07
-7.13205e-08
-2.87614e-07
-7.44876e-08
-2.69633e-07
-7.70442e-08
-2.51214e-07
-7.89542e-08
-2.3251e-07
-8.01896e-08
-2.13677e-07
-8.07317e-08
-1.94873e-07
-8.05707e-08
-1.76257e-07
-7.97064e-08
-1.57982e-07
-7.81478e-08
-1.40202e-07
-7.59127e-08
-1.23058e-07
-7.30276e-08
-1.0669e-07
-6.95267e-08
-9.12214e-08
-6.54524e-08
-7.67689e-08
-6.0854e-08
-6.34337e-08
-5.57884e-08
-5.13024e-08
-5.03204e-08
-4.04448e-08
-4.45233e-08
-3.09113e-08
-3.84808e-08
-2.27312e-08
-3.22892e-08
-1.59092e-08
-2.60608e-08
-1.04225e-08
-1.99286e-08
-6.2172e-09
-1.40509e-08
-3.20454e-09
-8.6185e-09
-1.25688e-09
-3.86167e-09
-2.0398e-10
-5.76929e-11
1.70577e-10
2.46222e-09
1.32928e-10
3.30708e-09
2.00821e-09
-1.66185e-09
5.72469e-09
-6.11819e-09
1.72593e-08
-1.29492e-08
2.82593e-08
-2.18073e-08
3.83576e-08
-3.23935e-08
4.73647e-08
-4.44459e-08
5.52006e-08
-5.77317e-08
6.1865e-08
-7.20431e-08
6.74126e-08
-8.71946e-08
7.19313e-08
-1.03021e-07
7.55257e-08
-1.19377e-07
7.83061e-08
-1.36134e-07
8.03798e-08
-1.53178e-07
8.18462e-08
-1.70412e-07
8.27936e-08
-1.8775e-07
8.32977e-08
-2.05113e-07
8.34212e-08
-2.22435e-07
8.32141e-08
-2.39652e-07
8.27144e-08
-2.56709e-07
8.19494e-08
-2.73549e-07
8.09366e-08
-2.90122e-07
7.96854e-08
-3.06374e-07
7.81979e-08
-3.22252e-07
7.64705e-08
-3.37703e-07
7.44952e-08
-3.52669e-07
7.226e-08
-3.67094e-07
6.97508e-08
-3.80915e-07
6.69519e-08
-3.94068e-07
6.38468e-08
-4.06486e-07
6.04197e-08
-4.18101e-07
5.66554e-08
-4.28841e-07
5.2541e-08
-4.38633e-07
4.80663e-08
-4.47403e-07
4.32244e-08
-4.55079e-07
3.80127e-08
-4.61587e-07
3.24338e-08
-4.66858e-07
2.64955e-08
-4.70823e-07
2.02122e-08
-4.73422e-07
1.36048e-08
-4.74596e-07
6.70142e-09
-4.74299e-07
-4.62461e-10
-4.72489e-07
-7.84429e-09
-4.69137e-07
-1.53934e-08
-4.64226e-07
-2.30524e-08
-4.57751e-07
-3.07573e-08
-4.4972e-07
-3.84383e-08
-4.40158e-07
-4.60204e-08
-4.29104e-07
-5.34251e-08
-4.16615e-07
-6.05711e-08
-4.02762e-07
-6.73764e-08
-3.87632e-07
-7.37595e-08
-3.71329e-07
-7.9641e-08
-3.53971e-07
-8.49458e-08
-3.35687e-07
-8.96041e-08
-3.16621e-07
-9.35533e-08
-2.96926e-07
-9.67394e-08
-2.76763e-07
-9.91179e-08
-2.56297e-07
-1.00655e-07
-2.35701e-07
-1.01328e-07
-2.15147e-07
-1.01125e-07
-1.94804e-07
-1.00049e-07
-1.74843e-07
-9.81095e-08
-1.55424e-07
-9.53312e-08
-1.36704e-07
-9.17475e-08
-1.18829e-07
-8.74025e-08
-1.01931e-07
-8.23494e-08
-8.61345e-08
-7.6651e-08
-7.15441e-08
-7.03789e-08
-5.82501e-08
-6.36144e-08
-4.63241e-08
-5.64493e-08
-3.58169e-08
-4.8988e-08
-2.67565e-08
-4.13496e-08
-1.91455e-08
-3.36718e-08
-1.29582e-08
-2.61159e-08
-8.13737e-09
-1.88717e-08
-4.59127e-09
-1.21646e-08
-2.19036e-09
-6.26258e-09
-7.64688e-10
-1.48337e-09
-1.01749e-10
1.79929e-09
5.4665e-11
3.15066e-09
2.06287e-09
-1.86609e-09
7.59079e-09
-6.85202e-09
2.22453e-08
-1.44612e-08
3.58685e-08
-2.42814e-08
4.81778e-08
-3.59636e-08
5.90468e-08
-4.92078e-08
6.84448e-08
-6.37543e-08
7.64115e-08
-7.93758e-08
8.30342e-08
-9.58734e-08
8.84289e-08
-1.13073e-07
9.27248e-08
-1.3082e-07
9.60538e-08
-1.48982e-07
9.8542e-08
-1.67442e-07
1.00306e-07
-1.86096e-07
1.01448e-07
-2.04854e-07
1.02056e-07
-2.23635e-07
1.02203e-07
-2.42368e-07
1.01947e-07
-2.60987e-07
1.01333e-07
-2.79429e-07
1.00392e-07
-2.97636e-07
9.91442e-08
-3.15552e-07
9.76012e-08
-3.3312e-07
9.57652e-08
-3.50281e-07
9.36319e-08
-3.66977e-07
9.11916e-08
-3.83148e-07
8.84304e-08
-3.98729e-07
8.53316e-08
-4.13653e-07
8.18765e-08
-4.27852e-07
7.80458e-08
-4.41253e-07
7.38206e-08
-4.53781e-07
6.91835e-08
-4.65359e-07
6.41192e-08
-4.75909e-07
5.86158e-08
-4.8535e-07
5.26658e-08
-4.93604e-07
4.62667e-08
-5.00592e-07
3.9422e-08
-5.06239e-07
3.21421e-08
-5.10472e-07
2.44448e-08
-5.13223e-07
1.63561e-08
-5.14432e-07
7.91082e-09
-5.14047e-07
-8.47569e-10
-5.12025e-07
-9.86659e-09
-5.08334e-07
-1.90845e-08
-5.02955e-07
-2.84313e-08
-4.95883e-07
-3.78288e-08
-4.8713e-07
-4.71919e-08
-4.76721e-07
-5.64294e-08
-4.647e-07
-6.54458e-08
-4.51129e-07
-7.41423e-08
-4.36086e-07
-8.24194e-08
-4.19667e-07
-9.01782e-08
-4.01985e-07
-9.73228e-08
-3.83169e-07
-1.03762e-07
-3.63361e-07
-1.09412e-07
-3.42717e-07
-1.14197e-07
-3.21404e-07
-1.18052e-07
-2.99597e-07
-1.20925e-07
-2.77477e-07
-1.22775e-07
-2.5523e-07
-1.23575e-07
-2.33041e-07
-1.23315e-07
-2.11095e-07
-1.21995e-07
-1.89573e-07
-1.19632e-07
-1.68648e-07
-1.16255e-07
-1.48487e-07
-1.11909e-07
-1.29244e-07
-1.06646e-07
-1.1106e-07
-1.00534e-07
-9.40609e-08
-9.36496e-08
-7.83582e-08
-8.60816e-08
-6.40432e-08
-7.79293e-08
-5.11878e-08
-6.93047e-08
-3.98418e-08
-6.03341e-08
-3.00308e-08
-5.11605e-08
-2.17543e-08
-4.19484e-08
-1.49825e-08
-3.28876e-08
-9.65438e-09
-2.41998e-08
-5.67424e-09
-1.61447e-08
-2.90976e-09
-9.02705e-09
-1.18995e-09
-3.20319e-09
-3.04023e-10
9.13351e-10
-1.78315e-12
2.84841e-09
2.06109e-09
-2.04828e-09
9.63906e-09
-7.51195e-09
2.77089e-08
-1.58289e-08
4.41854e-08
-2.65302e-08
5.88792e-08
-3.92206e-08
7.17372e-08
-5.35645e-08
8.27887e-08
-6.92753e-08
9.21223e-08
-8.61067e-08
9.98655e-08
-1.03846e-07
1.06168e-07
-1.22308e-07
1.11187e-07
-1.41334e-07
1.1508e-07
-1.60785e-07
1.17992e-07
-1.80538e-07
1.20059e-07
-2.00489e-07
1.21398e-07
-2.20543e-07
1.2211e-07
-2.40617e-07
1.22277e-07
-2.60636e-07
1.21966e-07
-2.8053e-07
1.21227e-07
-3.00235e-07
1.20097e-07
-3.1969e-07
1.18599e-07
-3.38833e-07
1.16744e-07
-3.57604e-07
1.14536e-07
-3.75941e-07
1.11969e-07
-3.93782e-07
1.09032e-07
-4.11061e-07
1.05709e-07
-4.27709e-07
1.0198e-07
-4.43657e-07
9.78238e-08
-4.58828e-07
9.32173e-08
-4.73146e-07
8.81388e-08
-4.86531e-07
8.25681e-08
-4.98899e-07
7.64876e-08
-5.10167e-07
6.98837e-08
-5.20249e-07
6.27478e-08
-5.2906e-07
5.50775e-08
-5.36515e-07
4.68775e-08
-5.42534e-07
3.81605e-08
-5.47037e-07
2.89483e-08
-5.49953e-07
1.92721e-08
-5.51216e-07
9.17367e-09
-5.50769e-07
-1.29476e-09
-5.48565e-07
-1.20703e-08
-5.44571e-07
-2.30792e-08
-5.38764e-07
-3.42377e-08
-5.3114e-07
-4.54525e-08
-5.21711e-07
-5.66218e-08
-5.10503e-07
-6.76369e-08
-4.97565e-07
-7.83836e-08
-4.82963e-07
-8.87445e-08
-4.66782e-07
-9.86006e-08
-4.49126e-07
-1.07834e-07
-4.30117e-07
-1.16331e-07
-4.09896e-07
-1.23984e-07
-3.88617e-07
-1.30691e-07
-3.66449e-07
-1.36365e-07
-3.43574e-07
-1.40928e-07
-3.20181e-07
-1.44318e-07
-2.96468e-07
-1.46489e-07
-2.72633e-07
-1.4741e-07
-2.48879e-07
-1.47069e-07
-2.25404e-07
-1.4547e-07
-2.02401e-07
-1.42634e-07
-1.80057e-07
-1.38599e-07
-1.58547e-07
-1.33418e-07
-1.38034e-07
-1.27159e-07
-1.18667e-07
-1.19901e-07
-1.00576e-07
-1.1174e-07
-8.3875e-08
-1.02783e-07
-6.86566e-08
-9.31477e-08
-5.4992e-08
-8.29694e-08
-4.29288e-08
-7.23973e-08
-3.24891e-08
-6.16002e-08
-2.36678e-08
-5.07696e-08
-1.64302e-08
-4.01252e-08
-1.07095e-08
-2.99205e-08
-6.40487e-09
-2.04494e-08
-3.37895e-09
-1.2053e-08
-1.4568e-09
-5.12534e-09
-4.25118e-10
-1.1834e-10
-3.31156e-11
2.45641e-09
2.02797e-09
-2.21133e-09
1.18504e-08
-8.10575e-09
3.36034e-08
-1.7065e-08
5.31447e-08
-2.85702e-08
7.03844e-08
-4.21847e-08
8.53516e-08
-5.75397e-08
9.81438e-08
-7.43233e-08
1.08906e-07
-9.22702e-08
1.17812e-07
-1.11154e-07
1.25052e-07
-1.30781e-07
1.30814e-07
-1.50983e-07
1.35282e-07
-1.71618e-07
1.38627e-07
-1.9256e-07
1.41001e-07
-2.137e-07
1.42538e-07
-2.34942e-07
1.43352e-07
-2.56201e-07
1.43536e-07
-2.77399e-07
1.43164e-07
-2.98465e-07
1.42293e-07
-3.19331e-07
1.40963e-07
-3.39933e-07
1.39201e-07
-3.60208e-07
1.37019e-07
-3.80093e-07
1.3442e-07
-3.99521e-07
1.31398e-07
-4.18428e-07
1.27939e-07
-4.36743e-07
1.24025e-07
-4.54395e-07
1.19632e-07
-4.71308e-07
1.14737e-07
-4.87404e-07
1.09312e-07
-5.02598e-07
1.03334e-07
-5.16808e-07
9.67773e-08
-5.29943e-07
8.9623e-08
-5.41915e-07
8.18554e-08
-5.52632e-07
7.34645e-08
-5.62002e-07
6.44479e-08
-5.69936e-07
5.48112e-08
-5.76344e-07
4.45694e-08
-5.81144e-07
3.37483e-08
-5.84257e-07
2.23846e-08
-5.85611e-07
1.05274e-08
-5.85143e-07
-1.76209e-09
-5.82804e-07
-1.44098e-08
-5.78554e-07
-2.73292e-08
-5.7237e-07
-4.04219e-08
-5.64244e-07
-5.3578e-08
-5.54188e-07
-6.66782e-08
-5.4223e-07
-7.95944e-08
-5.28421e-07
-9.21925e-08
-5.12832e-07
-1.04334e-07
-4.95552e-07
-1.1588e-07
-4.76695e-07
-1.26691e-07
-4.56392e-07
-1.36634e-07
-4.34795e-07
-1.45581e-07
-4.1207e-07
-1.53415e-07
-3.88402e-07
-1.60033e-07
-3.63987e-07
-1.65343e-07
-3.3903e-07
-1.69275e-07
-3.13744e-07
-1.71775e-07
-2.88345e-07
-1.72808e-07
-2.63052e-07
-1.72362e-07
-2.38078e-07
-1.70444e-07
-2.13631e-07
-1.67081e-07
-1.8991e-07
-1.62321e-07
-1.67102e-07
-1.56227e-07
-1.45378e-07
-1.48882e-07
-1.24894e-07
-1.40385e-07
-1.05786e-07
-1.30848e-07
-8.81701e-08
-1.20399e-07
-7.21394e-08
-1.09178e-07
-5.77635e-08
-9.73452e-08
-4.5087e-08
-8.50739e-08
-3.41273e-08
-7.25599e-08
-2.48735e-08
-6.00235e-08
-1.72839e-08
-4.77148e-08
-1.12846e-08
-3.59198e-08
-6.7669e-09
-2.49671e-08
-3.58559e-09
-1.52343e-08
-1.55774e-09
-7.1532e-09
-4.62028e-10
-1.21406e-09
-3.94301e-11
2.03381e-09
1.98853e-09
-2.35771e-09
1.42081e-08
-8.64075e-09
3.98864e-08
-1.81821e-08
6.2686e-08
-3.04195e-08
8.26218e-08
-4.48788e-08
9.9811e-08
-6.11614e-08
1.14426e-07
-7.89315e-08
1.26676e-07
-9.79058e-08
1.36787e-07
-1.17845e-07
1.44991e-07
-1.38545e-07
1.51514e-07
-1.59832e-07
1.5657e-07
-1.81559e-07
1.60354e-07
-2.03596e-07
1.63039e-07
-2.25833e-07
1.64775e-07
-2.48171e-07
1.6569e-07
-2.70523e-07
1.65888e-07
-2.9281e-07
1.65451e-07
-3.1496e-07
1.64443e-07
-3.36903e-07
1.62907e-07
-3.58573e-07
1.60871e-07
-3.79905e-07
1.58351e-07
-4.00832e-07
1.55347e-07
-4.21288e-07
1.51854e-07
-4.41203e-07
1.47854e-07
-4.60505e-07
1.43326e-07
-4.79117e-07
1.38245e-07
-4.96961e-07
1.32581e-07
-5.13954e-07
1.26305e-07
-5.30008e-07
1.19388e-07
-5.45034e-07
1.11803e-07
-5.58937e-07
1.03526e-07
-5.71622e-07
9.45403e-08
-5.82991e-07
8.4834e-08
-5.92947e-07
7.44041e-08
-6.01393e-07
6.32569e-08
-6.08233e-07
5.14099e-08
-6.13377e-07
3.88923e-08
-6.16739e-07
2.57466e-08
-6.18241e-07
1.20292e-08
-6.17814e-07
-2.18902e-09
-6.15402e-07
-1.68226e-08
-6.1096e-07
-3.17713e-08
-6.0446e-07
-4.6921e-08
-5.95894e-07
-6.21446e-08
-5.85269e-07
-7.73032e-08
-5.72615e-07
-9.22484e-08
-5.57983e-07
-1.06824e-07
-5.41448e-07
-1.2087e-07
-5.23105e-07
-1.34222e-07
-5.03075e-07
-1.46721e-07
-4.81499e-07
-1.5821e-07
-4.58538e-07
-1.68542e-07
-4.34374e-07
-1.77579e-07
-4.09206e-07
-1.85202e-07
-3.83243e-07
-1.91305e-07
-3.56711e-07
-1.95807e-07
-3.2984e-07
-1.98646e-07
-3.02865e-07
-1.99784e-07
-2.76019e-07
-1.99207e-07
-2.49536e-07
-1.96927e-07
-2.23639e-07
-1.92978e-07
-1.98541e-07
-1.87418e-07
-1.74443e-07
-1.80326e-07
-1.51525e-07
-1.718e-07
-1.29953e-07
-1.61958e-07
-1.09867e-07
-1.50934e-07
-9.13857e-08
-1.38879e-07
-7.46037e-08
-1.2596e-07
-5.95884e-08
-1.12361e-07
-4.63802e-08
-9.8282e-08
-3.49909e-08
-8.39492e-08
-2.54022e-08
-6.96122e-08
-1.75639e-08
-5.55531e-08
-1.13923e-08
-4.20914e-08
-6.76806e-09
-2.95913e-08
-3.53454e-09
-1.84678e-08
-1.49599e-09
-9.19175e-09
-4.16844e-10
-2.29321e-09
-2.16522e-11
1.63862e-09
1.96686e-09
-2.4895e-09
1.66976e-08
-9.1235e-09
4.65204e-08
-1.91925e-08
7.2755e-08
-3.20958e-08
9.55251e-08
-4.73265e-08
1.15042e-07
-6.44587e-08
1.31558e-07
-8.31347e-08
1.45352e-07
-1.03055e-07
1.56707e-07
-1.23966e-07
1.65902e-07
-1.45657e-07
1.73205e-07
-1.67947e-07
1.7886e-07
-1.90683e-07
1.8309e-07
-2.13733e-07
1.86089e-07
-2.36986e-07
1.88027e-07
-2.6034e-07
1.89044e-07
-2.83708e-07
1.89256e-07
-3.0701e-07
1.88753e-07
-3.30172e-07
1.87605e-07
-3.53124e-07
1.85859e-07
-3.75799e-07
1.83546e-07
-3.98129e-07
1.80681e-07
-4.20047e-07
1.77266e-07
-4.41485e-07
1.73291e-07
-4.62369e-07
1.68739e-07
-4.82626e-07
1.63583e-07
-5.02177e-07
1.57796e-07
-5.20938e-07
1.51343e-07
-5.38823e-07
1.4419e-07
-5.55741e-07
1.36306e-07
-5.71596e-07
1.27657e-07
-5.86289e-07
1.18219e-07
-5.99719e-07
1.0797e-07
-6.11782e-07
9.6897e-08
-6.22374e-07
8.49953e-08
-6.31389e-07
7.22719e-08
-6.38725e-07
5.8746e-08
-6.44283e-07
4.44504e-08
-6.47969e-07
2.94331e-08
-6.49698e-07
1.37581e-08
-6.49393e-07
-2.49411e-09
-6.4699e-07
-1.92261e-08
-6.42438e-07
-3.63232e-08
-6.35704e-07
-5.3655e-08
-6.26773e-07
-7.10755e-08
-6.15651e-07
-8.84254e-08
-6.02365e-07
-1.05534e-07
-5.86968e-07
-1.22221e-07
-5.69536e-07
-1.38302e-07
-5.50169e-07
-1.53589e-07
-5.28993e-07
-1.67897e-07
-5.06159e-07
-1.81044e-07
-4.8184e-07
-1.92861e-07
-4.5623e-07
-2.03189e-07
-4.29543e-07
-2.11889e-07
-4.02007e-07
-2.18841e-07
-3.73864e-07
-2.2395e-07
-3.45365e-07
-2.27145e-07
-3.16764e-07
-2.28385e-07
-2.88317e-07
-2.27654e-07
-2.60275e-07
-2.2497e-07
-2.3288e-07
-2.20373e-07
-2.06363e-07
-2.13935e-07
-1.80939e-07
-2.0575e-07
-1.56802e-07
-1.95936e-07
-1.34127e-07
-1.84633e-07
-1.13061e-07
-1.72e-07
-9.37272e-08
-1.58213e-07
-7.62202e-08
-1.43467e-07
-6.06059e-08
-1.27975e-07
-4.692e-08
-1.11968e-07
-3.51676e-08
-9.57016e-08
-2.53214e-08
-7.94584e-08
-1.73206e-08
-6.35538e-08
-1.10694e-08
-4.83426e-08
-6.43441e-09
-3.42263e-08
-3.24327e-09
-2.1659e-08
-1.28231e-09
-1.11527e-08
-2.95031e-10
-3.2805e-09
1.90283e-11
1.32455e-09
1.98588e-09
-2.60844e-09
1.9306e-08
-9.55976e-09
5.34717e-08
-2.01071e-08
8.33024e-08
-3.3616e-08
1.09034e-07
-4.95504e-08
1.30976e-07
-6.74599e-08
1.49468e-07
-8.69674e-08
1.64859e-07
-1.07757e-07
1.77497e-07
-1.29566e-07
1.87711e-07
-1.52172e-07
1.95811e-07
-1.75389e-07
2.02077e-07
-1.99061e-07
2.06761e-07
-2.23054e-07
2.10082e-07
-2.47251e-07
2.12225e-07
-2.71554e-07
2.13347e-07
-2.95873e-07
2.13575e-07
-3.20127e-07
2.13008e-07
-3.44243e-07
2.11721e-07
-3.68151e-07
2.09766e-07
-3.91781e-07
2.07176e-07
-4.15068e-07
2.03967e-07
-4.37941e-07
2.00139e-07
-4.60331e-07
1.95681e-07
-4.82164e-07
1.90572e-07
-5.03363e-07
1.84783e-07
-5.23848e-07
1.7828e-07
-5.43531e-07
1.71026e-07
-5.62323e-07
1.62983e-07
-5.80129e-07
1.54111e-07
-5.96848e-07
1.44376e-07
-6.12375e-07
1.33747e-07
-6.26604e-07
1.22199e-07
-6.39424e-07
1.09717e-07
-6.50722e-07
9.62934e-08
-6.60386e-07
8.19361e-08
-6.68305e-07
6.66652e-08
-6.74371e-07
5.05165e-08
-6.78482e-07
3.35434e-08
-6.80541e-07
1.58171e-08
-6.80463e-07
-2.57185e-09
-6.78175e-07
-2.1514e-08
-6.73619e-07
-4.08796e-08
-6.66753e-07
-6.05208e-08
-6.57557e-07
-8.0272e-08
-6.4603e-07
-9.99519e-08
-6.32198e-07
-1.19366e-07
-6.16111e-07
-1.38308e-07
-5.97845e-07
-1.56568e-07
-5.77504e-07
-1.7393e-07
-5.5522e-07
-1.90181e-07
-5.3115e-07
-2.05114e-07
-5.05477e-07
-2.18533e-07
-4.78411e-07
-2.30256e-07
-4.50178e-07
-2.40122e-07
-4.21026e-07
-2.47993e-07
-3.91216e-07
-2.5376e-07
-3.6102e-07
-2.57341e-07
-3.30715e-07
-2.58689e-07
-3.0058e-07
-2.5779e-07
-2.70888e-07
-2.54662e-07
-2.41904e-07
-2.49357e-07
-2.1388e-07
-2.4196e-07
-1.87047e-07
-2.32582e-07
-1.61618e-07
-2.21365e-07
-1.37778e-07
-2.08473e-07
-1.15685e-07
-1.94093e-07
-9.54668e-08
-1.78432e-07
-7.72199e-08
-1.61714e-07
-6.10088e-08
-1.44186e-07
-4.68646e-08
-1.26112e-07
-3.47847e-08
-1.07782e-07
-2.47316e-08
-8.95116e-08
-1.66315e-08
-7.16538e-08
-1.03735e-08
-5.46006e-08
-5.80699e-09
-3.87929e-08
-2.73922e-09
-2.47267e-08
-9.33195e-10
-1.29587e-08
-1.04854e-10
-4.10885e-09
7.90932e-11
1.14059e-09
2.06497e-09
-2.71598e-09
2.2022e-08
-9.95452e-09
6.07102e-08
-2.09356e-08
9.42835e-08
-3.49952e-08
1.23094e-07
-5.15713e-08
1.47552e-07
-7.01919e-08
1.68089e-07
-9.04622e-08
1.8513e-07
-1.12053e-07
1.99087e-07
-1.34689e-07
2.10347e-07
-1.58142e-07
2.19263e-07
-1.8222e-07
2.26155e-07
-2.06762e-07
2.31304e-07
-2.31633e-07
2.34952e-07
-2.56715e-07
2.37307e-07
-2.81908e-07
2.3854e-07
-3.07123e-07
2.3879e-07
-3.32279e-07
2.38164e-07
-3.57304e-07
2.36745e-07
-3.82125e-07
2.34588e-07
-4.06677e-07
2.31728e-07
-4.3089e-07
2.2818e-07
-4.54696e-07
2.23945e-07
-4.78024e-07
2.19009e-07
-5.00799e-07
2.13347e-07
-5.22944e-07
2.06927e-07
-5.44375e-07
1.9971e-07
-5.65003e-07
1.91654e-07
-5.84734e-07
1.82714e-07
-6.0347e-07
1.72847e-07
-6.21106e-07
1.62012e-07
-6.37533e-07
1.50173e-07
-6.52635e-07
1.37302e-07
-6.66296e-07
1.23378e-07
-6.78396e-07
1.08393e-07
-6.88813e-07
9.23534e-08
-6.97428e-07
7.52795e-08
-7.04121e-07
5.721e-08
-7.08781e-07
3.82029e-08
-7.113e-07
1.83365e-08
-7.11583e-07
-2.28869e-09
-7.09546e-07
-2.35509e-08
-7.05121e-07
-4.53051e-08
-6.98256e-07
-6.73852e-08
-6.88923e-07
-8.9605e-08
-6.77115e-07
-1.1176e-07
-6.62851e-07
-1.3363e-07
-6.46177e-07
-1.54982e-07
-6.27168e-07
-1.75577e-07
-6.05928e-07
-1.9517e-07
-5.82592e-07
-2.13517e-07