/*--------------------------------*- C++ -*----------------------------------*\
  =========                 |
  \\      /  F ield         | OpenFOAM: The Open Source CFD Toolbox
   \\    /   O peration     | Website:  https://openfoam.org
    \\  /    A nd           | Version:  7
     \\/     M anipulation  |
\*---------------------------------------------------------------------------*/
FoamFile
{
    version     2.0;
    format      ascii;
    class       volScalarField;
    location    "1.875";
    object      p;
}
// * * * * * * * * * * * * * * * * * * * * * * * * * * * * * * * * * * * * * //

dimensions      [0 2 -2 0 0 0 0];

internalField   nonuniform List<scalar> 
6400
(
-1.8015e-08
9.37987e-06
-3.88442e-06
-4.16526e-05
-0.000101177
-0.000179212
-0.000272475
-0.000378108
-0.000493869
-0.000618134
-0.000749756
-0.000887948
-0.00103215
-0.0011819
-0.00133675
-0.00149618
-0.00165954
-0.00182599
-0.00199449
-0.00216377
-0.00233229
-0.00249831
-0.00265981
-0.00281456
-0.00296011
-0.00309386
-0.00321307
-0.00331491
-0.00339656
-0.00345526
-0.00348842
-0.00349369
-0.00346912
-0.00341321
-0.00332508
-0.00320454
-0.00305218
-0.00286951
-0.00265895
-0.00242391
-0.00216873
-0.00189883
-0.00162026
-0.00133994
-0.0010653
-0.000804134
-0.000564332
-0.00035363
-0.000179318
-4.79677e-05
3.48441e-05
6.47757e-05
3.89182e-05
-4.40599e-05
-0.000183835
-0.000378424
-0.000624252
-0.000916301
-0.00124833
-0.00161308
-0.00200263
-0.00240871
-0.00282296
-0.00323726
-0.00364398
-0.00403617
-0.00440771
-0.00475337
-0.00506883
-0.00535063
-0.00559609
-0.00580314
-0.00597029
-0.00609653
-0.00618142
-0.00622551
-0.00623122
-0.00620468
-0.00615774
-0.0061081
-1.10612e-05
-1.5167e-06
-1.52499e-05
-5.04582e-05
-0.000103983
-0.000173667
-0.000257239
-0.000352557
-0.000457829
-0.000571674
-0.000693024
-0.000821109
-0.000955328
-0.00109516
-0.00124012
-0.00138966
-0.00154313
-0.00169972
-0.00185848
-0.00201822
-0.00217757
-0.00233493
-0.00248848
-0.0026362
-0.00277588
-0.00290514
-0.00302148
-0.00312231
-0.00320504
-0.00326712
-0.00330613
-0.00331988
-0.00330652
-0.00326461
-0.00319326
-0.00309222
-0.00296196
-0.00280378
-0.00261984
-0.00241323
-0.00218795
-0.00194871
-0.00170128
-0.00145198
-0.00120767
-0.000975539
-0.000762898
-0.000576908
-0.000424323
-0.000311227
-0.000242777
-0.000222979
-0.000254498
-0.000338529
-0.000474724
-0.000661193
-0.000894572
-0.00117016
-0.00148213
-0.00182377
-0.00218772
-0.00256634
-0.00295194
-0.00333706
-0.00371474
-0.00407863
-0.00442317
-0.00474366
-0.00503624
-0.00529786
-0.00552625
-0.00571978
-0.00587743
-0.00599874
-0.00608389
-0.00613391
-0.00615138
-0.00614111
-0.00610809
-0.00605839
1.04661e-06
1.06831e-05
-3.51287e-06
-3.77366e-05
-8.82319e-05
-0.000153154
-0.000230707
-0.000319148
-0.000417016
-0.000523153
-0.000636666
-0.000756869
-0.000883218
-0.00101524
-0.00115247
-0.0012944
-0.00144043
-0.00158985
-0.00174175
-0.00189509
-0.0020486
-0.00220083
-0.00235012
-0.00249459
-0.00263221
-0.00276074
-0.00287784
-0.00298105
-0.00306787
-0.00313586
-0.00318264
-0.00320603
-0.00320416
-0.00317552
-0.00311913
-0.00303456
-0.00292212
-0.00278287
-0.00261874
-0.00243251
-0.00222783
-0.0020093
-0.00178223
-0.00155265
-0.00132712
-0.00111255
-0.000915984
-0.000744349
-0.000604188
-0.000501404
-0.000441008
-0.000426892
-0.000461645
-0.000546418
-0.000680858
-0.000863106
-0.00108987
-0.00135655
-0.00165749
-0.00198614
-0.0023354
-0.00269789
-0.00306623
-0.00343331
-0.00379252
-0.00413791
-0.0044643
-0.00476739
-0.00504372
-0.00529065
-0.0055063
-0.00568944
-0.00583942
-0.0059561
-0.00603984
-0.00609157
-0.00611333
-0.00610824
-0.00607524
-0.00601153
3.95144e-05
4.5098e-05
2.82498e-05
-6.92854e-06
-5.6698e-05
-0.00011931
-0.000193199
-0.000276927
-0.000369319
-0.000469462
-0.000576662
-0.000690394
-0.000810239
-0.000935829
-0.0010668
-0.00120273
-0.00134311
-0.00148734
-0.00163462
-0.00178402
-0.00193441
-0.00208446
-0.00223265
-0.00237722
-0.00251625
-0.00264761
-0.00276902
-0.00287809
-0.00297232
-0.00304925
-0.00310644
-0.00314163
-0.00315279
-0.00313827
-0.00309686
-0.00302794
-0.00293156
-0.00280854
-0.00266056
-0.00249016
-0.00230072
-0.00209668
-0.00188315
-0.00166601
-0.00145169
-0.00124705
-0.00105906
-0.000894635
-0.000760335
-0.00066209
-0.000604956
-0.000592873
-0.000628478
-0.000712962
-0.000845998
-0.00102574
-0.0012489
-0.00151088
-0.00180598
-0.00212766
-0.00246884
-0.00282216
-0.00318033
-0.00353633
-0.00388372
-0.00421678
-0.00453058
-0.00482114
-0.00508534
-0.00532092
-0.00552638
-0.00570086
-0.00584403
-0.00595598
-0.00603706
-0.00608789
-0.00610978
-0.00610435
-0.006066
-0.00598594
0.000102581
9.91546e-05
7.67674e-05
3.86537e-05
-1.21202e-05
-7.39939e-05
-0.000145631
-0.000225899
-0.000313929
-0.000409086
-0.000510915
-0.000619093
-0.000733379
-0.000853558
-0.000979403
-0.00111063
-0.00124688
-0.00138763
-0.00153227
-0.00167999
-0.00182978
-0.00198047
-0.00213062
-0.00227861
-0.00242257
-0.00256045
-0.00268996
-0.0028087
-0.00291411
-0.00300361
-0.00307462
-0.00312469
-0.00315157
-0.00315334
-0.00312853
-0.00307624
-0.00299622
-0.00288901
-0.00275604
-0.00259963
-0.00242294
-0.00223026
-0.00202658
-0.00181772
-0.00161011
-0.00141062
-0.00122633
-0.00106426
-0.000931108
-0.000832973
-0.000775083
-0.000761546
-0.00079515
-0.000877207
-0.00100748
-0.00118416
-0.00140396
-0.00166223
-0.00195321
-0.00227027
-0.00260619
-0.00295352
-0.00330495
-0.00365336
-0.00399239
-0.00431639
-0.00462061
-0.00490129
-0.00515561
-0.00538166
-0.00557828
-0.00574497
-0.00588173
-0.00598882
-0.00606664
-0.00611553
-0.00613623
-0.00612929
-0.00608609
-0.00599422
0.000187307
0.000170741
0.000140159
9.72974e-05
4.38873e-05
-1.86831e-05
-8.93555e-05
-0.00016736
-0.000252167
-0.00034345
-0.00044103
-0.00054483
-0.000654823
-0.000770989
-0.000893284
-0.00102159
-0.00115571
-0.0012953
-0.00143988
-0.00158881
-0.00174121
-0.00189603
-0.00205196
-0.00220742
-0.0023606
-0.00250942
-0.00265157
-0.00278453
-0.0029056
-0.00301199
-0.00310089
-0.00316955
-0.00321543
-0.00323626
-0.00323025
-0.00319614
-0.00313336
-0.00304213
-0.00292363
-0.00278003
-0.00261414
-0.00243024
-0.00223326
-0.00202898
-0.00182392
-0.00162507
-0.00143967
-0.00127497
-0.00113792
-0.00103491
-0.000971464
-0.00095197
-0.000979482
-0.00105554
-0.00118007
-0.00135139
-0.00156626
-0.00181999
-0.00210674
-0.00241973
-0.00275158
-0.00309466
-0.00344143
-0.0037847
-0.00411797
-0.00443555
-0.00473278
-0.00500601
-0.00525264
-0.00547101
-0.00566031
-0.00582035
-0.00595142
-0.00605401
-0.00612858
-0.00617535
-0.0061947
-0.0061865
-0.00614058
-0.00604272
0.000290102
0.000256956
0.000216001
0.000166751
0.000109315
4.4794e-05
-2.60894e-05
-0.00010298
-0.000185733
-0.000274368
-0.000369019
-0.000469887
-0.000577197
-0.000691163
-0.000811952
-0.000939652
-0.00107425
-0.0012156
-0.0013634
-0.00151715
-0.00167614
-0.00183942
-0.00200574
-0.00217359
-0.00234112
-0.00250619
-0.00266637
-0.00281894
-0.00296097
-0.00308938
-0.00320102
-0.00329278
-0.00336171
-0.00340515
-0.00342088
-0.00340727
-0.00336337
-0.00328906
-0.00318527
-0.00305412
-0.00289764
-0.00272054
-0.00252759
-0.00232459
-0.00211817
-0.00191549
-0.00172404
-0.00155136
-0.00140478
-0.00129108
-0.00121619
-0.00118491
-0.0012007
-0.00126546
-0.00137942
-0.00154112
-0.00174743
-0.00199374
-0.00227415
-0.00258174
-0.00290894
-0.00324788
-0.00359075
-0.00393013
-0.00425929
-0.00457242
-0.00486475
-0.00513267
-0.00537369
-0.00558632
-0.00577
-0.00592482
-0.00605133
-0.00615026
-0.0062222
-0.00626737
-0.006286
-0.00627764
-0.00623162
-0.00613332
0.000406699
0.000354361
0.000301185
0.000244214
0.000181614
0.000114095
4.19731e-05
-3.48768e-05
-0.000116752
-0.000204056
-0.00029727
-0.000396907
-0.00050348
-0.000617459
-0.000739258
-0.000869196
-0.00100748
-0.00115418
-0.00130918
-0.00147214
-0.0016425
-0.00181939
-0.00200162
-0.00218766
-0.0023756
-0.00256315
-0.00274767
-0.00292618
-0.00309542
-0.00325191
-0.0033921
-0.0035124
-0.0036094
-0.00367996
-0.0037214
-0.00373162
-0.00370927
-0.00365388
-0.00356611
-0.00344807
-0.00330033
-0.0031288
-0.00293789
-0.00273338
-0.00252199
-0.00231109
-0.00210847
-0.00192205
-0.00175959
-0.00162837
-0.00153486
-0.00148444
-0.00148111
-0.0015273
-0.00162371
-0.00176925
-0.00196108
-0.00219477
-0.00246444
-0.00276311
-0.00308304
-0.0034161
-0.00375416
-0.0040895
-0.00441505
-0.00472474
-0.00501362
-0.00527794
-0.00551519
-0.00572397
-0.00590385
-0.00605514
-0.00617859
-0.00627517
-0.00634565
-0.00639036
-0.00640952
-0.00640261
-0.00635922
-0.0062653
0.000532619
0.000458937
0.000392088
0.00032637
0.00025771
0.000186332
0.000112063
3.42211e-05
-4.79881e-05
-0.0001354
-0.000228878
-0.00032928
-0.000437426
-0.00055408
-0.000679922
-0.000815534
-0.000961373
-0.00111772
-0.00128468
-0.00146207
-0.00164945
-0.00184603
-0.00205063
-0.00226164
-0.00247702
-0.00269428
-0.00291048
-0.00312229
-0.00332601
-0.00351772
-0.00369333
-0.00384873
-0.00397994
-0.00408329
-0.00415555
-0.00419412
-0.00419718
-0.00416386
-0.00409412
-0.0039887
-0.00385215
-0.00368622
-0.0034961
-0.00328777
-0.00306807
-0.00284458
-0.00262541
-0.00241891
-0.00223335
-0.00207662
-0.00195587
-0.0018772
-0.00184536
-0.0018635
-0.001933
-0.00205336
-0.00222225
-0.00243555
-0.00268759
-0.00297144
-0.00327925
-0.00360266
-0.00393323
-0.00426283
-0.004584
-0.00489029
-0.00517639
-0.00543831
-0.00567337
-0.00588011
-0.00605811
-0.00620777
-0.00633002
-0.006426
-0.00649667
-0.00654252
-0.00656387
-0.00656026
-0.00652208
-0.00643645
0.000663153
0.000566245
0.000484601
0.000409371
0.000333971
0.000258026
0.000180781
0.000100913
1.70748e-05
-7.20463e-05
-0.000167733
-0.000271216
-0.00038365
-0.000506115
-0.000639593
-0.000784948
-0.000942898
-0.00111397
-0.00129847
-0.00149638
-0.00170737
-0.00193067
-0.00216508
-0.00240887
-0.00265979
-0.00291507
-0.00317138
-0.00342495
-0.00367159
-0.00390681
-0.00412592
-0.0043242
-0.00449704
-0.00464015
-0.00474968
-0.00482245
-0.00485609
-0.00484923
-0.00480141
-0.00471319
-0.00458773
-0.00442763
-0.00423767
-0.00402371
-0.00379264
-0.00355222
-0.00331087
-0.00307739
-0.00286063
-0.00266919
-0.00251104
-0.00239319
-0.00232132
-0.00229957
-0.00233025
-0.00241373
-0.00254841
-0.00273077
-0.00295555
-0.00321604
-0.00350442
-0.00381216
-0.00413053
-0.00445098
-0.00476556
-0.00506731
-0.00535046
-0.00561059
-0.00584467
-0.00605102
-0.00622907
-0.00637921
-0.00650241
-0.0065999
-0.00667279
-0.00672175
-0.00674722
-0.00674885
-0.00671816
-0.00664384
0.000792784
0.000671349
0.000574092
0.000488814
0.000406172
0.000325064
0.00024405
0.000161089
7.42111e-05
-1.8417e-05
-0.000118529
-0.000227756
-0.00034762
-0.000479539
-0.00062482
-0.000784634
-0.000959977
-0.00115163
-0.00136009
-0.00158552
-0.00182764
-0.0020857
-0.00235839
-0.00264383
-0.00293948
-0.00324218
-0.00354818
-0.00385318
-0.00415238
-0.00444066
-0.00471265
-0.00496294
-0.00518622
-0.00537747
-0.00553216
-0.00564643
-0.00571724
-0.00574262
-0.00572159
-0.00565441
-0.00554309
-0.00539047
-0.00520096
-0.00498024
-0.00473518
-0.00447365
-0.00420437
-0.00393657
-0.00367976
-0.00344332
-0.00323618
-0.00306641
-0.00294092
-0.00286505
-0.00284235
-0.00287438
-0.00296062
-0.00309845
-0.00328333
-0.00350899
-0.00376784
-0.00405135
-0.00435051
-0.00465638
-0.00496047
-0.0052552
-0.00553415
-0.00579231
-0.00602613
-0.00623346
-0.00641345
-0.00656625
-0.00669273
-0.0067941
-0.00687155
-0.00692585
-0.00695754
-0.0069664
-0.00694519
-0.00688435
0.000915929
0.000768865
0.000655418
0.000559752
0.000469498
0.000382699
0.000297122
0.000209917
0.000118437
2.0281e-05
-8.67699e-05
-0.000204773
-0.000335647
-0.000481178
-0.000643019
-0.000822663
-0.0010214
-0.00124028
-0.00147998
-0.00174081
-0.00202253
-0.00232436
-0.00264485
-0.00298185
-0.0033325
-0.00369319
-0.00405963
-0.00442691
-0.00478957
-0.00514177
-0.00547738
-0.00579021
-0.00607416
-0.0063234
-0.00653261
-0.00669715
-0.00681324
-0.00687813
-0.00689021
-0.00684915
-0.00675622
-0.00661388
-0.00642612
-0.00619835
-0.00593732
-0.00565093
-0.00534813
-0.00503857
-0.00473241
-0.00443988
-0.00417098
-0.00393505
-0.0037404
-0.0035939
-0.00350068
-0.00346384
-0.00348434
-0.00356084
-0.00368989
-0.00386603
-0.00408215
-0.00432992
-0.00460023
-0.00488375
-0.00517144
-0.00545497
-0.00572717
-0.0059822
-0.00621575
-0.00642503
-0.0066086
-0.0067662
-0.0068984
-0.00700622
-0.00709077
-0.00715282
-0.00719294
-0.00721096
-0.00720094
-0.00715511
0.00102637
0.000852914
0.000722939
0.000616699
0.000518557
0.000425562
0.000334578
0.000241864
0.000144035
3.80843e-05
-7.87277e-05
-0.000208922
-0.000354837
-0.000518651
-0.000702387
-0.00090788
-0.00113673
-0.00139024
-0.00166928
-0.00197426
-0.00230498
-0.00266055
-0.00303932
-0.00343884
-0.00385582
-0.00428614
-0.00472491
-0.00516652
-0.00560477
-0.00603302
-0.00644429
-0.00683153
-0.00718773
-0.00750621
-0.00778072
-0.00800572
-0.00817657
-0.00828965
-0.00834253
-0.00833416
-0.00826498
-0.00813687
-0.00795329
-0.00771922
-0.00744114
-0.0071269
-0.00678553
-0.00642708
-0.00606229
-0.00570229
-0.00535821
-0.0050408
-0.00475999
-0.00452445
-0.00434124
-0.00421542
-0.00414984
-0.00414496
-0.00419885
-0.0043073
-0.00446408
-0.00466134
-0.00489009
-0.00514076
-0.00540372
-0.00566989
-0.00593112
-0.00618058
-0.00641294
-0.00662447
-0.00681289
-0.00697725
-0.00711755
-0.00723444
-0.00732872
-0.00740106
-0.00745188
-0.00748097
-0.0074836
-0.00745376
0.00111744
0.000917167
0.000770541
0.000653669
0.000547422
0.000447709
0.000350388
0.000250752
0.000144625
2.83466e-05
-0.000101376
-0.000247557
-0.000412982
-0.000600251
-0.000811776
-0.00104976
-0.00131611
-0.00161238
-0.00193962
-0.00229833
-0.00268828
-0.00310843
-0.00355689
-0.00403082
-0.00452645
-0.00503907
-0.00556309
-0.00609215
-0.00661921
-0.00713674
-0.00763685
-0.00811152
-0.00855276
-0.00895286
-0.0093046
-0.00960144
-0.0098377
-0.0100088
-0.0101114
-0.0101434
-0.0101046
-0.00999587
-0.0098201
-0.00958168
-0.00928667
-0.00894268
-0.00855874
-0.00814513
-0.00771311
-0.00727465
-0.00684204
-0.00642751
-0.00604275
-0.00569851
-0.00540408
-0.00516691
-0.00499223
-0.00488282
-0.00483882
-0.00485783
-0.00493499
-0.00506338
-0.00523445
-0.00543858
-0.00566569
-0.00590588
-0.00614992
-0.00638975
-0.00661876
-0.00683194
-0.00702587
-0.00719857
-0.00734919
-0.00747769
-0.00758438
-0.00766955
-0.00773334
-0.00777537
-0.00779196
-0.00777873
0.00118207
0.000954912
0.000791718
0.00066425
0.000549697
0.000442692
0.000337991
0.00022985
0.000113248
-1.61624e-05
-0.000162267
-0.000328599
-0.000518423
-0.000734786
-0.000980518
-0.00125819
-0.00157004
-0.00191785
-0.00230286
-0.00272558
-0.00318573
-0.00368209
-0.00421243
-0.00477348
-0.00536089
-0.00596929
-0.00659234
-0.00722281
-0.00785275
-0.00847366
-0.00907661
-0.00965253
-0.0101924
-0.0106873
-0.0111289
-0.0115097
-0.0118228
-0.0120626
-0.0122245
-0.0123057
-0.0123047
-0.0122217
-0.0120586
-0.0118191
-0.0115087
-0.0111346
-0.0107056
-0.0102321
-0.00972564
-0.009199
-0.0086655
-0.00813885
-0.00763259
-0.00715968
-0.00673195
-0.0063596
-0.00605074
-0.00581101
-0.00564331
-0.00554765
-0.0055212
-0.00555855
-0.00565205
-0.00579239
-0.00596926
-0.00617197
-0.00639014
-0.00661428
-0.00683618
-0.00704925
-0.0072485
-0.00743055
-0.00759334
-0.0077358
-0.00785745
-0.00795797
-0.008037
-0.00809379
-0.00812554
-0.00812934
0.00121289
0.000959131
0.000779643
0.000641686
0.000518614
0.000403665
0.000290405
0.000171989
4.25089e-05
-0.00010311
-0.000269372
-0.000460365
-0.000679862
-0.000931383
-0.0012182
-0.00154326
-0.00190913
-0.00231783
-0.00277071
-0.00326833
-0.00381026
-0.00439504
-0.00502006
-0.00568152
-0.00637444
-0.00709269
-0.00782907
-0.00857541
-0.00932277
-0.0100615
-0.0107817
-0.011473
-0.0121252
-0.0127283
-0.0132728
-0.0137498
-0.0141513
-0.0144706
-0.0147021
-0.0148416
-0.0148866
-0.0148364
-0.0146919
-0.014456
-0.0141333
-0.0137304
-0.0132559
-0.0127199
-0.0121341
-0.0115118
-0.0108671
-0.0102152
-0.00957136
-0.00895081
-0.00836808
-0.00783642
-0.00736726
-0.0069697
-0.00665002
-0.00641141
-0.00625385
-0.00617415
-0.00616625
-0.00622168
-0.00633022
-0.00648061
-0.00666131
-0.00686123
-0.00707032
-0.00727995
-0.0074832
-0.00767482
-0.0078511
-0.00800954
-0.0081485
-0.00826678
-0.00836327
-0.00843661
-0.00848467
-0.00850588
0.00120231
0.000922611
0.000727283
0.000578992
0.00044716
0.000323521
0.000200372
6.97201e-05
-7.5268e-05
-0.000240424
-0.0004309
-0.000651368
-0.000906143
-0.00119924
-0.00153439
-0.00191494
-0.00234376
-0.0028231
-0.00335441
-0.0039382
-0.0045739
-0.0052597
-0.00599255
-0.00676803
-0.00758044
-0.00842279
-0.00928693
-0.0101637
-0.0110429
-0.0119139
-0.0127653
-0.0135858
-0.0143637
-0.0150878
-0.0157474
-0.0163324
-0.0168335
-0.0172428
-0.0175535
-0.0177604
-0.01786
-0.0178502
-0.017731
-0.0175044
-0.0171741
-0.0167459
-0.0162278
-0.0156293
-0.0149622
-0.0142398
-0.013477
-0.0126898
-0.0118952
-0.0111106
-0.0103531
-0.00963925
-0.00898413
-0.00840075
-0.00789945
-0.00748742
-0.0071683
-0.00694204
-0.006805
-0.00675032
-0.00676844
-0.00684789
-0.00697613
-0.0071404
-0.00732852
-0.00752951
-0.00773398
-0.00793432
-0.00812465
-0.0083006
-0.00845895
-0.00859723
-0.00871329
-0.00880495
-0.00887055
-0.00890963
0.00114268
0.00083808
0.000627543
0.00046911
0.000328229
0.000195043
6.05207e-05
-8.4514e-05
-0.000247844
-0.000436084
-0.000655067
-0.00091008
-0.001206
-0.00154737
-0.00193838
-0.00238278
-0.00288375
-0.00344374
-0.00406425
-0.0047457
-0.00548729
-0.00628681
-0.00714065
-0.00804371
-0.00898943
-0.00996988
-0.0109758
-0.0119969
-0.0130218
-0.0140385
-0.0150343
-0.0159965
-0.0169123
-0.017769
-0.0185546
-0.0192579
-0.0198684
-0.0203769
-0.0207758
-0.0210585
-0.0212204
-0.0212586
-0.021172
-0.0209613
-0.0206295
-0.0201814
-0.019624
-0.0189662
-0.0182194
-0.0173965
-0.0165126
-0.0155846
-0.0146304
-0.0136694
-0.0127212
-0.0118054
-0.010941
-0.0101451
-0.00943276
-0.00881596
-0.00830292
-0.00789777
-0.00760036
-0.00740641
-0.00730787
-0.00729368
-0.00735063
-0.0074644
-0.00762054
-0.00780533
-0.00800642
-0.00821328
-0.00841728
-0.00861162
-0.00879101
-0.0089513
-0.00908894
-0.00920069
-0.00928513
-0.00934278
0.00102644
0.00069837
0.000473419
0.000305058
0.000154782
1.10805e-05
-0.000136444
-0.000298169
-0.00048285
-0.000697904
-0.000949871
-0.00124467
-0.00158778
-0.00198427
-0.00243882
-0.00295557
-0.00353799
-0.00418868
-0.00490915
-0.00569969
-0.00655914
-0.00748484
-0.00847249
-0.00951619
-0.0106084
-0.0117401
-0.0129009
-0.0140791
-0.0152621
-0.0164363
-0.0175879
-0.0187026
-0.0197662
-0.0207648
-0.0216853
-0.022515
-0.0232425
-0.0238577
-0.0243516
-0.0247171
-0.0249483
-0.0250414
-0.0249942
-0.0248067
-0.0244805
-0.0240195
-0.0234296
-0.0227188
-0.0218975
-0.0209781
-0.0199754
-0.0189063
-0.0177895
-0.0166456
-0.0154961
-0.0143638
-0.0132709
-0.0122392
-0.0112888
-0.0104368
-0.00969717
-0.00907923
-0.00858757
-0.00822171
-0.00797627
-0.0078415
-0.0078042
-0.00784881
-0.00795858
-0.00811679
-0.00830769
-0.0085172
-0.0087333
-0.00894609
-0.00914764
-0.00933163
-0.00949274
-0.00962636
-0.00973108
-0.00980832
0.000846326
0.000496589
0.000258175
8.0111e-05
-7.99647e-05
-0.000235249
-0.000397529
-0.000578388
-0.000787562
-0.00103329
-0.00132282
-0.00166275
-0.00205915
-0.00251766
-0.00304342
-0.00364097
-0.00431403
-0.0050653
-0.00589624
-0.00680691
-0.00779573
-0.00885942
-0.00999292
-0.0111894
-0.0124401
-0.0137349
-0.015062
-0.0164082
-0.0177595
-0.0191009
-0.0204169
-0.021692
-0.0229107
-0.0240577
-0.0251187
-0.0260801
-0.0269296
-0.027656
-0.0282498
-0.0287027
-0.0290084
-0.0291619
-0.0291605
-0.029003
-0.0286901
-0.0282244
-0.0276108
-0.026856
-0.0259692
-0.0249619
-0.0238479
-0.0226435
-0.0213675
-0.020041
-0.0186871
-0.0173303
-0.0159965
-0.0147115
-0.0135004
-0.0123862
-0.011389
-0.0105245
-0.00980349
-0.0092306
-0.00880456
-0.00851825
-0.00835948
-0.00831207
-0.00835731
-0.00847534
-0.0086466
-0.00885285
-0.00907797
-0.00930824
-0.00953242
-0.00974144
-0.00992776
-0.010085
-0.0102116
-0.0103099
0.000595547
0.000226306
-2.44783e-05
-0.000212007
-0.000382338
-0.000550359
-0.000729243
-0.000931773
-0.00116866
-0.00144896
-0.00178068
-0.00217106
-0.00262681
-0.00315413
-0.00375862
-0.00444518
-0.00521773
-0.00607903
-0.00703041
-0.00807157
-0.00920039
-0.0104129
-0.011703
-0.0130628
-0.0144824
-0.0159501
-0.0174526
-0.0189753
-0.0205024
-0.0220175
-0.0235036
-0.0249438
-0.0263211
-0.0276194
-0.0288232
-0.0299181
-0.0308911
-0.0317302
-0.0324254
-0.0329681
-0.0333511
-0.0335687
-0.033618
-0.0334967
-0.0332045
-0.0327431
-0.0321158
-0.0313283
-0.0303882
-0.0293055
-0.0280927
-0.0267649
-0.0253401
-0.0238391
-0.0222854
-0.020705
-0.0191261
-0.017578
-0.0160906
-0.0146928
-0.0134114
-0.0122693
-0.0112845
-0.0104684
-0.00982574
-0.0093535
-0.00904196
-0.00887545
-0.00883387
-0.00889445
-0.00903354
-0.00922822
-0.00945749
-0.00970304
-0.00994951
-0.0101844
-0.0103975
-0.0105802
-0.0107305
-0.0108516
0.000267973
-0.000118265
-0.000380191
-0.000576935
-0.000758011
-0.000939981
-0.00113738
-0.00136416
-0.00163199
-0.00195076
-0.00232919
-0.00277524
-0.00329622
-0.00389888
-0.00458927
-0.0053726
-0.00625295
-0.00723303
-0.00831394
-0.00949491
-0.0107732
-0.0121438
-0.0135996
-0.0151315
-0.016728
-0.0183758
-0.0200602
-0.0217647
-0.0234719
-0.0251638
-0.0268219
-0.0284279
-0.0299638
-0.0314123
-0.0327573
-0.0339838
-0.035078
-0.036028
-0.0368232
-0.0374547
-0.0379151
-0.038198
-0.0383016
-0.0382213
-0.0379565
-0.0375078
-0.0368776
-0.0360699
-0.0350908
-0.0339485
-0.0326537
-0.0312198
-0.0296631
-0.0280032
-0.0262631
-0.024469
-0.0226504
-0.0208392
-0.0190691
-0.0173746
-0.0157891
-0.0143433
-0.0130635
-0.0119694
-0.0110733
-0.0103784
-0.00987938
-0.00956261
-0.00940773
-0.0093896
-0.00948053
-0.0096525
-0.00987894
-0.0101361
-0.0104035
-0.0106647
-0.0109058
-0.0111156
-0.0112917
-0.0114378
-0.000141664
-0.000542077
-0.000813787
-0.00101948
-0.00121181
-0.00140897
-0.0016268
-0.0018804
-0.00218235
-0.00254336
-0.00297288
-0.00347956
-0.00407131
-0.00475542
-0.00553835
-0.00642556
-0.0074212
-0.00852785
-0.00974624
-0.011075
-0.0125105
-0.0140467
-0.0156753
-0.0173855
-0.0191643
-0.0209968
-0.0228661
-0.0247543
-0.0266422
-0.0285102
-0.0303383
-0.0321069
-0.0337972
-0.0353911
-0.0368719
-0.038224
-0.0394339
-0.0404893
-0.0413798
-0.0420963
-0.042632
-0.0429815
-0.0431384
-0.0431017
-0.0428694
-0.0424412
-0.0418183
-0.0410033
-0.0400005
-0.0388164
-0.0374594
-0.0359407
-0.0342744
-0.032478
-0.0305728
-0.028584
-0.0265411
-0.0244772
-0.0224289
-0.0204349
-0.0185349
-0.0167672
-0.015167
-0.0137638
-0.0125789
-0.0116241
-0.0109007
-0.0103991
-0.0101004
-0.00997814
-0.0100012
-0.0101361
-0.0103503
-0.0106135
-0.0108995
-0.0111865
-0.0114566
-0.0116952
-0.0118992
-0.0120732
-0.000637586
-0.00104907
-0.00132909
-0.00154344
-0.00174753
-0.0019611
-0.00220126
-0.00248414
-0.00282326
-0.00323007
-0.00371479
-0.00428669
-0.0049543
-0.00572539
-0.00660677
-0.00760409
-0.00872148
-0.00996125
-0.0113236
-0.0128065
-0.0144051
-0.0161123
-0.0179182
-0.0198103
-0.0217739
-0.0237921
-0.0258462
-0.0279165
-0.0299819
-0.0320213
-0.0340135
-0.0359378
-0.0377746
-0.0395052
-0.0411126
-0.0425814
-0.043898
-0.0450504
-0.0460285
-0.0468238
-0.0474293
-0.0478399
-0.0480507
-0.0480589
-0.0478626
-0.0474611
-0.0468545
-0.0460443
-0.0450332
-0.0438256
-0.0424277
-0.0408481
-0.0390981
-0.0371925
-0.03515
-0.0329936
-0.0307513
-0.0284558
-0.0261449
-0.0238603
-0.0216465
-0.019549
-0.0176119
-0.0158748
-0.01437
-0.0131198
-0.0121344
-0.0114111
-0.0109346
-0.0106791
-0.0106105
-0.0106907
-0.0108803
-0.011142
-0.0114427
-0.0117545
-0.0120541
-0.0123231
-0.0125573
-0.0127621
-0.00122281
-0.00164202
-0.00192878
-0.00215144
-0.00236776
-0.00259892
-0.00286319
-0.0031777
-0.00355679
-0.0040127
-0.00455631
-0.00519754
-0.00594547
-0.00680831
-0.00779317
-0.00890577
-0.0101501
-0.0115281
-0.0130393
-0.0146806
-0.0164461
-0.0183272
-0.0203123
-0.022387
-0.0245347
-0.0267364
-0.0289717
-0.0312187
-0.0334548
-0.0356575
-0.0378043
-0.0398739
-0.0418458
-0.0437013
-0.0454233
-0.0469968
-0.0484085
-0.0496471
-0.0507029
-0.0515682
-0.0522367
-0.0527032
-0.0529639
-0.0530159
-0.0528572
-0.0524865
-0.0519035
-0.0511085
-0.050103
-0.0488893
-0.0474716
-0.0458556
-0.0440496
-0.0420653
-0.0399177
-0.0376268
-0.0352175
-0.0327209
-0.030174
-0.0276194
-0.025105
-0.0226819
-0.0204023
-0.018316
-0.0164671
-0.0148902
-0.0136071
-0.0126246
-0.0119341
-0.0115124
-0.0113248
-0.0113288
-0.0114786
-0.011729
-0.0120389
-0.0123731
-0.0127023
-0.0130032
-0.01327
-0.0135089
-0.00189901
-0.00232241
-0.00261423
-0.00284481
-0.00307377
-0.00332359
-0.0036136
-0.00396185
-0.00438345
-0.00489133
-0.00549705
-0.0062111
-0.00704308
-0.00800156
-0.00909385
-0.0103257
-0.0117007
-0.0132203
-0.0148833
-0.0166853
-0.0186192
-0.0206745
-0.0228378
-0.0250929
-0.0274208
-0.0298008
-0.0322101
-0.0346252
-0.0370221
-0.0393766
-0.0416657
-0.043867
-0.0459602
-0.0479263
-0.0497488
-0.051413
-0.0529063
-0.0542184
-0.0553405
-0.0562655
-0.0569881
-0.0575038
-0.0578093
-0.057902
-0.0577803
-0.0574426
-0.0568883
-0.0561168
-0.0551285
-0.0539243
-0.0525059
-0.0508768
-0.0490421
-0.0470099
-0.0447915
-0.0424026
-0.0398645
-0.0372045
-0.0344571
-0.0316642
-0.0288744
-0.0261426
-0.0235275
-0.0210882
-0.0188807
-0.0169531
-0.0153408
-0.0140633
-0.0131217
-0.0124988
-0.0121614
-0.0120643
-0.0121556
-0.0123821
-0.0126939
-0.0130472
-0.0134053
-0.0137391
-0.0140409
-0.0143175
-0.00266642
-0.00309032
-0.00338546
-0.00362349
-0.00386539
-0.00413478
-0.00445197
-0.00483578
-0.00530204
-0.00586431
-0.00653476
-0.0073244
-0.00824329
-0.00930027
-0.0105028
-0.0118563
-0.0133642
-0.0150272
-0.0168428
-0.0188057
-0.0209068
-0.0231341
-0.0254721
-0.0279023
-0.0304037
-0.0329534
-0.0355269
-0.0380987
-0.0406434
-0.043136
-0.0455524
-0.0478701
-0.0500687
-0.0521297
-0.054037
-0.0557768
-0.0573374
-0.0587095
-0.0598854
-0.0608592
-0.0616262
-0.062183
-0.062527
-0.0626562
-0.0625692
-0.0622647
-0.0617418
-0.0609996
-0.0600375
-0.0588551
-0.0574526
-0.0558309
-0.0539924
-0.0519417
-0.049686
-0.0472366
-0.0446099
-0.0418288
-0.0389233
-0.0359323
-0.0329032
-0.0298919
-0.0269612
-0.024178
-0.0216092
-0.0193166
-0.0173509
-0.0157467
-0.0145183
-0.0136581
-0.0131375
-0.0129111
-0.0129222
-0.0131096
-0.0134137
-0.0137814
-0.014167
-0.0145345
-0.0148735
-0.0151914
-0.00352376
-0.0039444
-0.004241
-0.00448594
-0.00474095
-0.00503065
-0.00537617
-0.00579702
-0.00630964
-0.00692817
-0.00766528
-0.00853249
-0.00954017
-0.0106974
-0.0120115
-0.0134879
-0.0151292
-0.0169352
-0.0189025
-0.0210239
-0.023289
-0.0256835
-0.0281898
-0.0307873
-0.0334528
-0.0361614
-0.0388865
-0.0416013
-0.044279
-0.0468938
-0.0494213
-0.0518388
-0.0541262
-0.0562655
-0.0582416
-0.0600416
-0.061655
-0.0630736
-0.0642909
-0.0653021
-0.0661037
-0.0666932
-0.0670687
-0.0672291
-0.0671734
-0.0669006
-0.0664098
-0.0657
-0.0647701
-0.0636187
-0.0622447
-0.0606472
-0.0588261
-0.0567827
-0.0545204
-0.0520461
-0.0493708
-0.0465119
-0.0434942
-0.0403513
-0.0371272
-0.0338761
-0.0306622
-0.0275574
-0.0246378
-0.0219778
-0.019644
-0.0176882
-0.016141
-0.0150083
-0.0142701
-0.0138837
-0.0137898
-0.01392
-0.0142047
-0.0145802
-0.014991
-0.0153923
-0.0157707
-0.0161336
-0.00446819
-0.00488176
-0.00517795
-0.00542913
-0.00569724
-0.00600775
-0.00638245
-0.00684142
-0.00740159
-0.00807761
-0.0088826
-0.00982844
-0.0109258
-0.0121838
-0.0136097
-0.0152083
-0.0169818
-0.0189288
-0.0210445
-0.0233203
-0.0257436
-0.0282982
-0.0309642
-0.0337189
-0.0365369
-0.0393912
-0.0422537
-0.0450961
-0.0478907
-0.0506111
-0.0532325
-0.0557328
-0.0580922
-0.0602936
-0.0623227
-0.0641681
-0.0658204
-0.0672726
-0.0685196
-0.0695576
-0.0703843
-0.0709982
-0.0713983
-0.0715841
-0.0715552
-0.0713113
-0.0708515
-0.070175
-0.0692803
-0.0681658
-0.0668292
-0.0652683
-0.0634811
-0.0614662
-0.0592236
-0.0567557
-0.0540687
-0.0511739
-0.0480899
-0.0448439
-0.0414742
-0.0380308
-0.0345764
-0.0311846
-0.0279376
-0.0249208
-0.0222161
-0.0198931
-0.0180015
-0.0165642
-0.0155742
-0.0149957
-0.0147695
-0.0148216
-0.0150729
-0.0154482
-0.0158805
-0.0163153
-0.0167347
-0.0171464
-0.00549537
-0.00589809
-0.00619192
-0.00644855
-0.00672959
-0.00706112
-0.00746549
-0.00796319
-0.00857157
-0.00930565
-0.0101789
-0.0112035
-0.0123903
-0.0137484
-0.0152848
-0.0170037
-0.0189064
-0.0209905
-0.0232497
-0.0256734
-0.0282472
-0.0309527
-0.0337679
-0.0366677
-0.0396249
-0.0426104
-0.0455948
-0.0485485
-0.0514433
-0.0542522
-0.0569507
-0.0595171
-0.0619323
-0.0641803
-0.066248
-0.0681251
-0.0698036
-0.0712778
-0.0725438
-0.0735991
-0.0744423
-0.0750729
-0.0754908
-0.0756963
-0.0756896
-0.0754708
-0.0750396
-0.0743953
-0.0735365
-0.0724614
-0.0711674
-0.0696513
-0.0679096
-0.065939
-0.0637366
-0.0613012
-0.0586341
-0.0557411
-0.0526339
-0.0493328
-0.0458686
-0.042285
-0.03864
-0.0350057
-0.0314671
-0.0281174
-0.0250516
-0.0223571
-0.0201039
-0.0183356
-0.0170622
-0.0162593
-0.0158719
-0.0158228
-0.0160243
-0.0163893
-0.0168382
-0.0173052
-0.0177672
-0.018231
-0.00659948
-0.00698763
-0.00727713
-0.0075383
-0.00783185
-0.00818432
-0.00861846
-0.00915503
-0.00981166
-0.0106037
-0.0115448
-0.0126474
-0.0139223
-0.0153786
-0.0170227
-0.0188584
-0.0208859
-0.0231015
-0.0254972
-0.0280607
-0.0307756
-0.0336212
-0.0365733
-0.0396049
-0.0426866
-0.045788
-0.0488782
-0.0519268
-0.0549049
-0.0577858
-0.0605453
-0.0631621
-0.0656183
-0.0678989
-0.0699921
-0.0718889
-0.0735826
-0.0750688
-0.0763448
-0.077409
-0.0782613
-0.078902
-0.0793317
-0.0795515
-0.0795621
-0.0793643
-0.0789583
-0.0783438
-0.0775196
-0.076484
-0.0752343
-0.073767
-0.0720779
-0.070162
-0.0680146
-0.0656314
-0.0630097
-0.0601499
-0.0570576
-0.0537455
-0.0502362
-0.0465655
-0.0427839
-0.0389589
-0.0351744
-0.0315275
-0.0281234
-0.0250654
-0.0224443
-0.0203261
-0.0187421
-0.0176843
-0.0171062
-0.016931
-0.0170641
-0.0174069
-0.0178662
-0.0183634
-0.0188689
-0.0193881
-0.00777331
-0.00814332
-0.00842649
-0.00869114
-0.00899657
-0.00936957
-0.00983315
-0.0104082
-0.0111125
-0.0119616
-0.0129693
-0.0141481
-0.0155088
-0.0170601
-0.0188081
-0.0207557
-0.0229019
-0.0252418
-0.0277656
-0.0304593
-0.0333043
-0.0362778
-0.0393536
-0.0425027
-0.0456939
-0.0488954
-0.0520753
-0.0552026
-0.0582482
-0.0611855
-0.0639909
-0.0666441
-0.069128
-0.071429
-0.0735366
-0.0754429
-0.0771427
-0.0786327
-0.0799112
-0.0809778
-0.0818331
-0.0824782