/*--------------------------------*- C++ -*----------------------------------*\
  =========                 |
  \\      /  F ield         | OpenFOAM: The Open Source CFD Toolbox
   \\    /   O peration     | Website:  https://openfoam.org
    \\  /    A nd           | Version:  7
     \\/     M anipulation  |
\*---------------------------------------------------------------------------*/
FoamFile
{
    version     2.0;
    format      ascii;
    class       surfaceScalarField;
    location    "1.875";
    object      phi;
}
// * * * * * * * * * * * * * * * * * * * * * * * * * * * * * * * * * * * * * //

dimensions      [0 3 -1 0 0 0 0];

internalField   nonuniform List<scalar> 
12640
(
3.75668e-10
-3.75419e-10
1.36263e-09
-9.86965e-10
2.52451e-09
-1.16188e-09
3.54902e-09
-1.02455e-09
4.26713e-09
-7.18092e-10
4.59942e-09
-3.32319e-10
4.51948e-09
7.99736e-11
4.02957e-09
4.89895e-10
3.14547e-09
8.84106e-10
1.88651e-09
1.25897e-09
2.70417e-10
1.61608e-09
-1.68968e-09
1.96009e-09
-3.98614e-09
2.29645e-09
-6.61646e-09
2.63033e-09
-9.58244e-09
2.96599e-09
-1.28888e-08
3.30638e-09
-1.65417e-08
3.65291e-09
-2.05472e-08
4.00544e-09
-2.49095e-08
4.36233e-09
-2.963e-08
4.72051e-09
-3.47057e-08
5.07562e-09
-4.01278e-08
5.42214e-09
-4.58813e-08
5.75346e-09
-5.19433e-08
6.06203e-09
-5.82828e-08
6.33949e-09
-6.48596e-08
6.57678e-09
-7.16239e-08
6.76434e-09
-7.85163e-08
6.89231e-09
-8.5467e-08
6.95076e-09
-9.2397e-08
6.92996e-09
-9.92177e-08
6.82068e-09
-1.05832e-07
6.61457e-09
-1.12137e-07
6.30447e-09
-1.18022e-07
5.88483e-09
-1.23374e-07
5.35205e-09
-1.28079e-07
4.70487e-09
-1.32023e-07
3.94472e-09
-1.35099e-07
3.07597e-09
-1.37205e-07
2.10626e-09
-1.38252e-07
1.04683e-09
-1.38161e-07
-9.12716e-11
-1.36876e-07
-1.28475e-09
-1.34358e-07
-2.51811e-09
-1.30592e-07
-3.76615e-09
-1.25588e-07
-5.00359e-09
-1.19385e-07
-6.20347e-09
-1.12047e-07
-7.33796e-09
-1.03668e-07
-8.37925e-09
-9.4367e-08
-9.30061e-09
-8.42897e-08
-1.00773e-08
-7.3602e-08
-1.06877e-08
-6.24879e-08
-1.11141e-08
-5.11439e-08
-1.13439e-08
-3.9774e-08
-1.137e-08
-2.85828e-08
-1.11912e-08
-1.777e-08
-1.08128e-08
-7.52379e-09
-1.02462e-08
1.98487e-09
-9.50866e-09
1.06076e-08
-8.62269e-09
1.82216e-08
-7.61404e-09
2.47341e-08
-6.51246e-09
3.00828e-08
-5.34877e-09
3.42369e-08
-4.15405e-09
3.71952e-08
-2.95835e-09
3.89846e-08
-1.78938e-09
3.96563e-08
-6.71676e-10
3.92823e-08
3.74014e-10
3.79514e-08
1.33089e-09
3.57655e-08
2.18582e-09
3.28371e-08
2.92842e-09
2.92876e-08
3.54951e-09
2.52486e-08
4.03898e-09
2.08659e-08
4.38271e-09
1.63071e-08
4.55883e-09
1.17739e-08
4.53323e-09
7.5178e-09
4.25606e-09
3.85517e-09
3.66263e-09
1.17413e-09
2.68102e-09
-1.11248e-10
1.28536e-09
-1.11262e-10
9.99091e-10
-1.37451e-09
2.86478e-09
-2.85266e-09
4.83813e-09
-3.13524e-09
6.38975e-09
-2.57614e-09
7.17797e-09
-1.50635e-09
7.00994e-09
-1.64246e-10
5.79699e-09
1.29289e-09
3.51427e-09
2.77263e-09
1.72597e-10
4.2258e-09
-4.20202e-09
5.63357e-09
-9.58191e-09
6.996e-09
-1.59444e-08
8.32261e-09
-2.32752e-08
9.62724e-09
-3.15687e-08
1.09237e-08
-4.0826e-08
1.22234e-08
-5.10528e-08
1.35332e-08
-6.22551e-08
1.48552e-08
-7.4436e-08
1.61864e-08
-8.75921e-08
1.75184e-08
-1.0171e-07
1.88379e-08
-1.16761e-07
2.01272e-08
-1.32703e-07
2.13644e-08
-1.49474e-07
2.25239e-08
-1.66989e-07
2.35772e-08
-1.85143e-07
2.44932e-08
-2.03805e-07
2.52387e-08
-2.2282e-07
2.57798e-08
-2.4201e-07
2.60819e-08
-2.6117e-07
2.61111e-08
-2.80076e-07
2.58354e-08
-2.9848e-07
2.52252e-08
-3.16121e-07
2.42553e-08
-3.32722e-07
2.29053e-08
-3.47998e-07
2.11615e-08
-3.61664e-07
1.90174e-08
-3.73434e-07
1.64752e-08
-3.83036e-07
1.35467e-08
-3.90213e-07
1.02535e-08
-3.94735e-07
6.62813e-09
-3.96402e-07
2.71368e-09
-3.95057e-07
-1.43642e-09
-3.90581e-07
-5.76109e-09
-3.82914e-07
-1.01844e-08
-3.72053e-07
-1.46273e-08
-3.58053e-07
-1.90035e-08
-3.41034e-07
-2.32227e-08
-3.21179e-07
-2.71933e-08
-2.98733e-07
-3.08246e-08
-2.74004e-07
-3.40303e-08
-2.4735e-07
-3.67309e-08
-2.1918e-07
-3.88573e-08
-1.89941e-07
-4.03532e-08
-1.60107e-07
-4.11781e-08
-1.30169e-07
-4.13087e-08
-1.00619e-07
-4.0741e-08
-7.19409e-08
-3.94906e-08
-4.45943e-08
-3.75929e-08
-1.90015e-08
-3.51014e-08
4.46258e-09
-3.20868e-08
2.54817e-08
-2.86331e-08
4.38038e-08
-2.48346e-08
5.92479e-08
-2.07929e-08
7.1705e-08
-1.66111e-08
8.11378e-08
-1.23912e-08
8.7578e-08
-8.2295e-09
9.112e-08
-4.21369e-09
9.19151e-08
-4.21067e-10
9.01635e-08
3.08242e-09
8.61077e-08
6.24162e-09
8.00267e-08
9.00948e-09
7.22332e-08
1.13429e-08
6.30754e-08
1.31968e-08
5.29421e-08
1.4516e-08
4.22744e-08
1.52265e-08
3.15804e-08
1.52273e-08
2.14485e-08
1.4388e-08
1.25498e-08
1.25613e-08
5.60766e-09
9.62311e-09
1.29501e-09
5.59798e-09
1.18377e-09
1.18736e-09
-2.56187e-09
3.14908e-09
-4.8144e-09
4.94085e-09
-4.92697e-09
5.93791e-09
-3.57325e-09
5.72826e-09
-1.29666e-09
4.06576e-09
1.49822e-09
8.23322e-10
4.53534e-09
-4.04702e-09
7.64299e-09
-1.0548e-08
1.07268e-08
-1.86605e-08
1.3746e-08
-2.83591e-08
1.66946e-08
-3.96219e-08
1.95854e-08
-5.24347e-08
2.244e-08
-6.6791e-08
2.528e-08
-8.269e-08
2.81224e-08
-1.00133e-07
3.0976e-08
-1.19117e-07
3.38398e-08
-1.39634e-07
3.67024e-08
-1.61657e-07
3.9542e-08
-1.85146e-07
4.23266e-08
-2.10034e-07
4.50156e-08
-2.3623e-07
4.75599e-08
-2.63609e-07
4.99035e-08
-2.92017e-07
5.19847e-08
-3.21261e-07
5.37373e-08
-3.51115e-07
5.50926e-08
-3.81315e-07
5.59805e-08
-4.11565e-07
5.63317e-08
-4.41534e-07
5.60799e-08
-4.70862e-07
5.51637e-08
-4.99166e-07
5.35291e-08
-5.26043e-07
5.11319e-08
-5.51077e-07
4.79395e-08
-5.73849e-07
4.39337e-08
-5.93944e-07
3.91122e-08
-6.10959e-07
3.34904e-08
-6.24516e-07
2.71029e-08
-6.34266e-07
2.0004e-08
-6.39906e-07
1.22682e-08
-6.41183e-07
3.99075e-09
-6.37902e-07
-4.71759e-09
-6.29938e-07
-1.37247e-08
-6.17241e-07
-2.28814e-08
-5.9984e-07
-3.20284e-08
-5.77848e-07
-4.0996e-08
-5.51462e-07
-4.96087e-08
-5.20965e-07
-5.76898e-08
-4.86724e-07
-6.50659e-08
-4.49182e-07
-7.15725e-08
-4.08853e-07
-7.70591e-08
-3.66316e-07
-8.13945e-08
-3.22197e-07
-8.4472e-08
-2.77162e-07
-8.62135e-08
-2.31897e-07
-8.65738e-08
-1.87095e-07
-8.55428e-08
-1.43438e-07
-8.31473e-08
-1.0158e-07
-7.94507e-08
-6.21303e-08
-7.45516e-08
-2.56362e-08
-6.85809e-08
7.42742e-09
-6.16968e-08
3.66721e-08
-5.40793e-08
6.18019e-08
-4.59226e-08
8.26198e-08
-3.74291e-08
9.9029e-08
-2.88004e-08
1.1103e-07
-2.0231e-08
1.18719e-07
-1.19022e-08
1.22276e-07
-3.97797e-09
1.21961e-07
3.39727e-09
1.18105e-07
1.00982e-08
1.111e-07
1.60142e-08
1.01399e-07
2.10433e-08
8.95144e-08
2.50819e-08
7.60176e-08
2.80127e-08
6.15524e-08
2.96917e-08
4.68412e-08
2.99385e-08
3.26923e-08
2.85369e-08
1.99944e-08
2.52592e-08
9.68862e-09
1.99288e-08
2.71378e-09
1.25728e-08
3.89756e-09
1.02866e-09
-3.59056e-09
2.46251e-09
-6.24824e-09
3.29532e-09
-5.75983e-09
2.87817e-09
-3.15605e-09
7.89492e-10
7.91993e-10
-3.22561e-09
5.51333e-09
-9.30362e-09
1.06134e-08
-1.75029e-08
1.58423e-08
-2.78359e-08
2.10597e-08
-4.02922e-08
2.62023e-08
-5.48542e-08
3.12565e-08
-7.15059e-08
3.62372e-08
-9.02368e-08
4.11709e-08
-1.11041e-07
4.60844e-08
-1.33915e-07
5.09962e-08
-1.58851e-07
5.59119e-08
-1.85832e-07
6.08214e-08
-2.14827e-07
6.56974e-08
-2.45782e-07
7.04962e-08
-2.78613e-07
7.51582e-08
-3.13207e-07
7.96093e-08
-3.4941e-07
8.37628e-08
-3.87028e-07
8.75217e-08
-4.25824e-07
9.07808e-08
-4.65516e-07
9.3429e-08
-5.05776e-07
9.53528e-08
-5.46235e-07
9.64389e-08
-5.86481e-07
9.65777e-08
-6.26067e-07
9.56666e-08
-6.64517e-07
9.36138e-08
-7.0133e-07
9.0342e-08
-7.3599e-07
8.57915e-08
-7.67974e-07
7.99241e-08
-7.96766e-07
7.27255e-08
-8.21862e-07
6.42081e-08
-8.42785e-07
5.4413e-08
-8.59093e-07
4.34112e-08
-8.70393e-07
3.13044e-08
-8.7635e-07
1.82248e-08
-8.76694e-07
4.33516e-09
-8.71229e-07
-1.01831e-08
-8.59845e-07
-2.51092e-08
-8.42518e-07
-4.02077e-08
-8.19321e-07
-5.52259e-08
-7.90418e-07
-6.98985e-08
-7.56074e-07
-8.3953e-08
-7.16647e-07
-9.71169e-08
-6.72588e-07
-1.09124e-07
-6.24438e-07
-1.19723e-07
-5.72813e-07
-1.28683e-07
-5.18404e-07
-1.35804e-07
-4.61957e-07
-1.40919e-07
-4.04264e-07
-1.43907e-07
-3.46142e-07
-1.44695e-07
-2.88423e-07
-1.43262e-07
-2.31929e-07
-1.39641e-07
-1.77456e-07
-1.33924e-07
-1.25753e-07
-1.26254e-07
-7.75085e-08
-1.16826e-07
-3.33282e-08
-1.05877e-07
6.27554e-09
-9.3683e-08
4.08969e-08
-8.0544e-08
7.02429e-08
-6.67751e-08
9.41407e-08
-5.26982e-08
1.12536e-07
-3.86265e-08
1.25492e-07
-2.48584e-08
1.33184e-07
-1.16693e-08
1.35889e-07
6.91741e-10
1.33984e-07
1.20036e-08
1.27931e-07
2.20671e-08
1.18276e-07
3.06981e-08
1.05644e-07
3.77139e-08
9.07389e-08
4.2918e-08
7.43461e-08
4.60845e-08
5.73378e-08
4.69467e-08
4.06757e-08
4.5199e-08
2.54106e-08
4.05243e-08
1.26794e-08
3.266e-08
3.71716e-09
2.15351e-08
7.61471e-09
6.38435e-10
-4.22897e-09
1.04754e-09
-6.65739e-09
2.77824e-10
-4.99008e-09
-2.27455e-09
-6.03694e-10
-6.99413e-09
5.51157e-09
-1.4109e-08
1.26283e-08
-2.37404e-08
2.02447e-08
-3.59415e-08
2.80435e-08
-5.07271e-08
3.58454e-08
-6.80934e-08
4.35686e-08
-8.80309e-08
5.1194e-08
-1.10531e-07
5.87375e-08
-1.35589e-07
6.62284e-08
-1.63198e-07
7.3694e-08
-1.93351e-07
8.11489e-08
-2.26027e-07
8.85885e-08
-2.61191e-07
9.59852e-08
-2.98781e-07
1.03287e-07
-3.38704e-07
1.10419e-07
-3.8083e-07
1.17284e-07
-4.24984e-07
1.23764e-07
-4.70946e-07
1.29725e-07
-5.18443e-07
1.35019e-07
-5.67152e-07
1.3949e-07
-6.16697e-07
1.42974e-07
-6.66653e-07
1.45308e-07
-7.16546e-07
1.46332e-07
-7.65864e-07
1.45895e-07
-8.14056e-07
1.43859e-07
-8.60546e-07
1.40105e-07
-9.04742e-07
1.34538e-07
-9.46042e-07
1.27091e-07
-9.83849e-07
1.17731e-07
-1.01758e-06
1.06457e-07
-1.04668e-06
9.33089e-08
-1.07063e-06
7.83659e-08
-1.08897e-06
6.1748e-08
-1.10128e-06
4.3616e-08
-1.10723e-06
2.41715e-08
-1.10655e-06
3.65595e-09
-1.09906e-06
-1.76727e-08
-1.08467e-06
-3.94947e-08
-1.0634e-06
-6.14818e-08
-1.03534e-06
-8.32831e-08
-1.00071e-06
-1.04532e-07
-9.59806e-07
-1.24856e-07
-9.13041e-07
-1.43882e-07
-8.60918e-07
-1.61248e-07
-8.04032e-07
-1.76609e-07
-7.43065e-07
-1.89651e-07
-6.78772e-07
-2.00096e-07
-6.11976e-07
-2.07716e-07
-5.43546e-07
-2.12336e-07
-4.74393e-07
-2.13849e-07
-4.05441e-07
-2.12214e-07
-3.37616e-07
-2.07467e-07
-2.71823e-07
-1.99717e-07
-2.08927e-07
-1.8915e-07
-1.49732e-07
-1.7602e-07
-9.49629e-08
-1.60646e-07
-4.52474e-08
-1.43399e-07
-1.10214e-09
-1.24689e-07
3.70811e-08
-1.04958e-07
6.90382e-08
-8.46553e-08
9.46419e-08
-6.42302e-08
1.139e-07
-4.41168e-08
1.26954e-07
-2.47228e-08
1.34069e-07
-6.42351e-09
1.35632e-07
1.04403e-08
1.32141e-07
2.55587e-08
1.24195e-07
3.86437e-08
1.12494e-07
4.9415e-08
9.78303e-08
5.75817e-08
8.10899e-08
6.28249e-08
6.32532e-08
6.47834e-08
4.53992e-08
6.3053e-08
2.8715e-08
5.72085e-08
1.45182e-08
4.68568e-08
4.31511e-09
3.17383e-08
1.19298e-08
8.73288e-11
-4.31633e-09
-9.19718e-10
-5.6503e-09
-3.82152e-09
-2.08832e-09
-9.11796e-09
4.69275e-09
-1.71124e-08
1.3506e-08
-2.7975e-08
2.34909e-08
-4.179e-08
3.40597e-08
-5.85913e-08
4.48447e-08
-7.83867e-08
5.56408e-08
-1.01174e-07
6.63563e-08
-1.26951e-07
7.69708e-08
-1.55716e-07
8.75018e-08
-1.87466e-07
9.79789e-08
-2.22197e-07
1.08425e-07
-2.59892e-07
1.18844e-07
-3.00516e-07
1.29212e-07
-3.44007e-07
1.39476e-07
-3.90267e-07
1.49548e-07
-4.3916e-07
1.59312e-07
-4.90498e-07
1.68622e-07
-5.44042e-07
1.77308e-07
-5.99498e-07
1.85181e-07
-6.56513e-07
1.92034e-07
-7.14675e-07
1.97652e-07
-7.73518e-07
2.01817e-07
-8.32523e-07
2.04313e-07
-8.91126e-07
2.04935e-07
-9.48723e-07
2.03492e-07
-1.00468e-06
1.99817e-07
-1.05835e-06
1.93771e-07
-1.10906e-06
1.85251e-07
-1.15616e-06
1.74193e-07
-1.19901e-06
1.60577e-07
-1.23698e-06
1.44432e-07
-1.26951e-06
1.25833e-07
-1.29605e-06
1.04908e-07
-1.31614e-06
8.18368e-08
-1.32937e-06
5.68458e-08
-1.33541e-06
3.02125e-08
-1.33402e-06
2.2653e-09
-1.32502e-06
-2.6669e-08
-1.30836e-06
-5.61598e-08
-1.28405e-06
-8.57891e-08
-1.25223e-06
-1.15108e-07
-1.21311e-06
-1.43649e-07
-1.16703e-06
-1.70938e-07
-1.1144e-06
-1.96504e-07
-1.05577e-06
-2.19884e-07
-9.91736e-07
-2.40641e-07
-9.23018e-07
-2.58369e-07
-8.50404e-07
-2.72711e-07
-7.74756e-07
-2.83364e-07
-6.96997e-07
-2.90095e-07
-6.18096e-07
-2.9275e-07
-5.39049e-07
-2.91261e-07
-4.60863e-07
-2.85652e-07
-3.84537e-07
-2.76044e-07
-3.11034e-07
-2.62652e-07
-2.41269e-07
-2.45786e-07
-1.76077e-07
-2.25838e-07
-1.16201e-07
-2.03274e-07
-6.22718e-08
-1.78619e-07
-1.47909e-08
-1.52439e-07
2.58796e-08
-1.25326e-07
5.95242e-08
-9.78748e-08
8.60777e-08
-7.06703e-08
1.05626e-07
-4.42705e-08
1.18399e-07
-1.9197e-08
1.2477e-07
4.06931e-09
1.25242e-07
2.50869e-08
1.20442e-07
4.34441e-08
1.11112e-07
5.87449e-08
9.81037e-08
7.05896e-08
8.23752e-08
7.85534e-08
6.49889e-08
8.21697e-08
4.71193e-08
8.09226e-08
3.00709e-08
7.42569e-08
1.5316e-08
6.16117e-08
4.57248e-09
4.24818e-08
1.65023e-08
-5.88363e-10
-3.72795e-09
-3.32111e-09
-2.91759e-09
-8.79211e-09
3.38268e-09
-1.73437e-08
1.32444e-08
-2.91604e-08
2.53227e-08
-4.43266e-08
3.8657e-08
-6.28698e-08
5.26029e-08
-8.47907e-08
6.67655e-08
-1.10082e-07
8.09319e-08
-1.38738e-07
9.50123e-08
-1.70758e-07
1.08991e-07
-2.06147e-07
1.2289e-07
-2.44903e-07
1.36736e-07
-2.8702e-07
1.50542e-07
-3.32469e-07
1.64293e-07
-3.81195e-07
1.77938e-07
-4.33106e-07
1.91386e-07
-4.88063e-07
2.04506e-07
-5.45879e-07
2.17128e-07
-6.06307e-07
2.29049e-07
-6.69038e-07
2.40039e-07
-7.33701e-07
2.49844e-07
-7.99864e-07
2.58196e-07
-8.67031e-07
2.64819e-07
-9.34652e-07
2.69438e-07
-1.00213e-06
2.71787e-07
-1.06881e-06
2.71619e-07
-1.13403e-06
2.68711e-07
-1.19709e-06
2.62874e-07
-1.25728e-06
2.53961e-07
-1.31389e-06
2.41869e-07
-1.36625e-06
2.26549e-07
-1.41368e-06
2.08007e-07
-1.45555e-06
1.86307e-07
-1.49129e-06
1.61572e-07
-1.52037e-06
1.33984e-07
-1.54232e-06
1.03786e-07
-1.55675e-06
7.12749e-08
-1.56334e-06
3.68023e-08
-1.56187e-06
7.98426e-10
-1.55216e-06
-3.63809e-08
-1.53416e-06
-7.41618e-08
-1.50789e-06
-1.12053e-07
-1.47349e-06
-1.49511e-07
-1.43117e-06
-1.85972e-07
-1.38124e-06
-2.20864e-07
-1.32413e-06
-2.53614e-07
-1.26035e-06
-2.83661e-07
-1.19053e-06
-3.10469e-07
-1.11535e-06
-3.3354e-07
-1.03564e-06
-3.52425e-07
-9.52263e-07
-3.6674e-07
-8.66177e-07
-3.76181e-07
-7.78392e-07
-3.80535e-07
-6.89963e-07
-3.7969e-07
-6.01968e-07
-3.73647e-07
-5.15489e-07
-3.62522e-07
-4.31589e-07
-3.46552e-07
-3.51287e-07
-3.26088e-07
-2.75537e-07
-3.01589e-07
-2.05199e-07
-2.73612e-07
-1.41025e-07
-2.42792e-07
-8.36355e-08
-2.09829e-07
-3.35034e-08
-1.75458e-07
9.05427e-09
-1.40433e-07
4.38851e-08
-1.05501e-07
7.10026e-08
-7.13881e-08
9.05853e-08
-3.87798e-08
1.02971e-07
-8.31651e-09
1.0865e-07
1.94083e-08
1.08253e-07
4.38406e-08
1.02547e-07
6.44513e-08
9.24205e-08
8.07158e-08
7.88839e-08
9.209e-08
6.30648e-08
9.79888e-08
4.62173e-08
9.77701e-08
2.97437e-08
9.07305e-08
1.5237e-08
7.61184e-08
4.55828e-09
5.31605e-08
2.10606e-08
-1.3594e-09
-2.36857e-09
-6.07327e-09
1.79629e-09
-1.44764e-08
1.17858e-08
-2.67117e-08
2.54797e-08
-4.28117e-08
4.14226e-08
-6.27507e-08
5.85961e-08
-8.64823e-08
7.63345e-08
-1.13962e-07
9.42449e-08
-1.45158e-07
1.12128e-07
-1.80057e-07
1.29911e-07
-2.18657e-07
1.47592e-07
-2.60964e-07
1.65197e-07
-3.06977e-07
1.82749e-07
-3.56682e-07
2.00247e-07
-4.10036e-07
2.17647e-07
-4.66959e-07
2.34861e-07
-5.27324e-07
2.51751e-07
-5.90949e-07
2.6813e-07
-6.5759e-07
2.83768e-07
-7.26938e-07
2.98397e-07
-7.98614e-07
3.11716e-07
-8.72174e-07
3.23405e-07
-9.47108e-07
3.3313e-07
-1.02285e-06
3.40556e-07
-1.09876e-06
3.45355e-07
-1.17419e-06
3.47214e-07
-1.24842e-06
3.45853e-07
-1.32074e-06
3.41025e-07
-1.3904e-06
3.32531e-07
-1.45666e-06
3.20223e-07
-1.5188e-06
3.04012e-07
-1.57612e-06
2.83873e-07
-1.62796e-06
2.59847e-07
-1.6737e-06
2.32039e-07
-1.71275e-06
2.00625e-07
-1.74461e-06
1.65844e-07
-1.76882e-06
1.28002e-07
-1.78501e-06
8.74624e-08
-1.79285e-06
4.46425e-08
-1.79216e-06
1.04619e-10
-1.78269e-06
-4.58476e-08
-1.76443e-06
-9.24278e-08
-1.73736e-06
-1.39116e-07
-1.7016e-06
-1.85274e-07
-1.65733e-06
-2.30246e-07
-1.60483e-06
-2.73362e-07
-1.54449e-06
-3.13952e-07
-1.4768e-06
-3.51355e-07
-1.40233e-06
-3.84933e-07
-1.32179e-06
-4.14084e-07
-1.23595e-06
-4.38262e-07
-1.1457e-06
-4.56989e-07
-1.05201e-06
-4.69874e-07
-9.55917e-07
-4.76628e-07
-8.58525e-07
-4.77082e-07
-7.6098e-07
-4.71192e-07
-6.64447e-07
-4.59056e-07
-5.70087e-07
-4.40912e-07
-4.79033e-07
-4.17142e-07
-3.9236e-07
-3.88262e-07
-3.11061e-07
-3.54911e-07
-2.36018e-07
-3.17835e-07
-1.67982e-07
-2.77865e-07
-1.07553e-07
-2.35887e-07
-5.51613e-08
-1.92824e-07
-1.10627e-08
-1.496e-07
2.46709e-08
-1.07122e-07
5.21501e-08
-6.6259e-08
7.16643e-08
-2.78308e-08
8.36745e-08
7.39808e-09
8.88031e-08
3.8712e-08
8.78235e-08
6.54309e-08
8.16504e-08
8.68889e-08
7.13324e-08
1.02408e-07
5.80504e-08
1.11271e-07
4.31241e-08
1.12696e-07
2.80334e-08
1.05821e-07
1.44571e-08
8.96948e-08
4.33721e-09
6.32804e-08
2.53978e-08
-2.2122e-09
-1.5637e-10
-9.11734e-09
8.70142e-09
-2.07539e-08
2.34224e-08
-3.70284e-08
4.17542e-08
-5.7793e-08
6.21873e-08
-8.28916e-08
8.36946e-08
-1.12188e-07
1.05631e-07
-1.45583e-07
1.27639e-07
-1.83014e-07
1.49559e-07
-2.24453e-07
1.71351e-07
-2.69896e-07
1.93034e-07
-3.19344e-07
2.14645e-07
-3.72794e-07
2.362e-07
-4.30221e-07
2.57673e-07
-4.91563e-07
2.78989e-07
-5.56712e-07
3.0001e-07
-6.25502e-07
3.20541e-07
-6.97703e-07
3.40331e-07
-7.73014e-07
3.5908e-07
-8.51064e-07
3.76446e-07
-9.31406e-07
3.92058e-07
-1.01353e-06
4.05527e-07
-1.09685e-06
4.16453e-07
-1.18074e-06
4.24444e-07
-1.26451e-06
4.29124e-07
-1.34744e-06
4.30145e-07
-1.42879e-06
4.272e-07
-1.50779e-06
4.2003e-07
-1.5837e-06
4.08435e-07
-1.65575e-06
3.92279e-07
-1.72324e-06
3.71495e-07
-1.78545e-06
3.46089e-07
-1.84175e-06
3.16142e-07
-1.89151e-06
2.81806e-07
-1.9342e-06
2.43307e-07
-1.9693e-06
2.00943e-07
-1.99637e-06
1.55075e-07
-2.01504e-06
1.06132e-07
-2.025e-06
5.46007e-08
-2.02595e-06
1.05633e-09
-2.01779e-06
-5.40041e-08
-2.00037e-06
-1.09845e-07
-1.97367e-06
-1.65816e-07
-1.93774e-06
-2.21203e-07
-1.89273e-06
-2.75264e-07
-1.83885e-06
-3.27238e-07
-1.77645e-06
-3.76356e-07
-1.70594e-06
-4.21856e-07
-1.62788e-06
-4.62993e-07
-1.54291e-06
-4.99055e-07
-1.45179e-06
-5.29386e-07
-1.35538e-06
-5.53399e-07
-1.25465e-06
-5.70601e-07
-1.15067e-06
-5.8061e-07
-1.04458e-06
-5.83173e-07
-9.37586e-07
-5.78186e-07
-8.30939e-07
-5.65703e-07
-7.25903e-07
-5.45948e-07
-6.23731e-07
-5.19314e-07
-5.25632e-07
-4.86361e-07
-4.32742e-07
-4.47801e-07
-3.46092e-07
-4.04486e-07
-2.66579e-07
-3.57377e-07
-1.94945e-07
-3.07521e-07
-1.31754e-07
-2.56015e-07
-7.73792e-08
-2.03975e-07
-3.19932e-08
-1.52508e-07
4.43226e-09
-1.02684e-07
3.21254e-08
-5.55239e-08
5.15062e-08
-1.19827e-08
6.31766e-08
2.70416e-08
6.79085e-08
6.06991e-08
6.66318e-08
8.81656e-08
6.04257e-08
1.08614e-07
5.05146e-08
1.21182e-07
3.8272e-08
1.24939e-07
2.52369e-08
1.18856e-07
1.3143e-08
1.01789e-07
3.96585e-09
7.24576e-08
2.93636e-08
-3.13304e-09
2.97668e-09
-1.24071e-08
1.79754e-08
-2.75249e-08
3.85402e-08
-4.81276e-08
6.23569e-08
-7.38636e-08
8.79233e-08
-1.04428e-07
1.14259e-07
-1.39584e-07
1.40787e-07
-1.79168e-07
1.67223e-07
-2.23083e-07
1.93473e-07
-2.71281e-07
2.19549e-07
-3.23749e-07
2.45503e-07
-3.80485e-07
2.71381e-07
-4.41477e-07
2.97191e-07
-5.06685e-07
3.22881e-07
-5.76025e-07
3.48329e-07
-6.49357e-07
3.73342e-07
-7.26474e-07
3.97658e-07
-8.07096e-07
4.20953e-07
-8.90866e-07
4.4285e-07
-9.77351e-07
4.62931e-07
-1.06604e-06
4.80752e-07
-1.15637e-06
4.95853e-07
-1.24769e-06
5.07776e-07
-1.33932e-06
5.16076e-07
-1.43054e-06
5.20338e-07
-1.52058e-06
5.20187e-07
-1.60868e-06
5.15301e-07
-1.69407e-06
5.0542e-07
-1.77599e-06
4.90351e-07
-1.85369e-06
4.69981e-07
-1.92646e-06
4.4427e-07
-1.99364e-06
4.13261e-07
-2.05457e-06
3.77075e-07
-2.10867e-06
3.35912e-07
-2.15541e-06
2.90047e-07
-2.1943e-06
2.39826e-07
-2.22489e-06
1.85665e-07
-2.2468e-06
1.28044e-07
-2.25971e-06
6.75071e-08
-2.26331e-06
4.66218e-09
-2.25744e-06
-5.98726e-08
-2.24193e-06
-1.25359e-07
-2.21669e-06
-1.91056e-07
-2.18172e-06
-2.56177e-07
-2.13708e-06
-3.19898e-07
-2.08295e-06
-3.81372e-07
-2.01957e-06
-4.39734e-07
-1.94731e-06
-4.94117e-07
-1.86664e-06
-5.43665e-07
-1.77814e-06
-5.87551e-07
-1.68253e-06
-6.24995e-07
-1.58064e-06
-6.55288e-07
-1.47343e-06
-6.77815e-07
-1.36196e-06
-6.92077e-07
-1.24742e-06
-6.9772e-07
-1.13105e-06
-6.94549e-07
-1.0142e-06
-6.82552e-07
-8.9824e-07
-6.61912e-07
-7.84542e-07
-6.33013e-07
-6.74463e-07
-5.96439e-07
-5.69299e-07
-5.52965e-07
-4.70246e-07
-5.03538e-07
-3.78372e-07
-4.49252e-07
-2.9458e-07
-3.91313e-07
-2.19588e-07
-3.31006e-07
-1.53908e-07
-2.69655e-07
-9.78311e-08
-2.08584e-07
-5.14271e-08
-1.49088e-07
-1.45429e-08
-9.24081e-08
1.31897e-08
-3.97153e-08
3.23427e-08
7.88855e-09
4.36787e-08
4.93631e-08
4.81365e-08
8.37077e-08
4.68202e-08
1.0993e-07
4.09904e-08
1.27012e-07
3.20652e-08
1.33864e-07
2.16275e-08
1.29294e-07
1.14442e-08
1.11972e-07
3.49232e-09
8.04095e-08
3.2856e-08
-4.11567e-09
7.09234e-09
-1.59023e-08
2.97621e-08
-3.46999e-08
5.73377e-08
-5.98573e-08
8.75144e-08
-9.07993e-08
1.18865e-07
-1.27059e-07
1.50519e-07
-1.68288e-07
1.82017e-07
-2.14253e-07
2.13189e-07
-2.64816e-07
2.44036e-07
-3.19909e-07
2.74642e-07
-3.79506e-07
3.051e-07
-4.43596e-07
3.35471e-07
-5.12156e-07
3.65751e-07
-5.85127e-07
3.95852e-07
-6.624e-07
4.25602e-07
-7.438e-07
4.54742e-07
-8.29076e-07
4.82934e-07
-9.17898e-07
5.09775e-07
-1.00986e-06
5.34808e-07
-1.10446e-06
5.57536e-07
-1.20115e-06
5.77442e-07
-1.2993e-06
5.94001e-07
-1.39822e-06
6.067e-07
-1.4972e-06
6.15052e-07
-1.59547e-06
6.18612e-07
-1.69227e-06
6.16987e-07
-1.78682e-06
6.0985e-07
-1.87835e-06
5.9695e-07
-1.96611e-06
5.78113e-07
-2.04938e-06
5.53249e-07
-2.12747e-06
5.22354e-07
-2.19971e-06
4.85507e-07
-2.26551e-06
4.4287e-07
-2.32428e-06
3.94686e-07
-2.37551e-06
3.41272e-07
-2.4187e-06
2.83018e-07
-2.45342e-06
2.20384e-07
-2.47927e-06
1.53895e-07
-2.4959e-06
8.41368e-08
-2.50299e-06
1.17591e-08
-2.50032e-06
-6.25498e-08
-2.48766e-06
-1.38019e-07
-2.46487e-06
-2.13843e-07
-2.43188e-06
-2.89168e-07
-2.38868e-06
-3.63099e-07
-2.33534e-06
-4.34704e-07
-2.27205e-06
-5.03028e-07
-2.19907e-06
-5.671e-07
-2.11678e-06
-6.2595e-07
-2.0257e-06
-6.78628e-07
-1.92648e-06
-7.24222e-07
-1.81988e-06
-7.61886e-07
-1.70683e-06
-7.90865e-07
-1.58839e-06
-8.10521e-07
-1.46574e-06
-8.20367e-07
-1.34019e-06
-8.20094e-07
-1.21315e-06
-8.09591e-07
-1.08609e-06
-7.88972e-07
-9.60525e-07
-7.58582e-07
-8.37958e-07
-7.19006e-07
-7.19863e-07
-6.71061e-07
-6.07622e-07
-6.15778e-07
-5.02496e-07
-5.54378e-07
-4.05578e-07
-4.88231e-07
-3.17766e-07
-4.18819e-07
-2.39735e-07
-3.47687e-07
-1.71919e-07
-2.764e-07
-1.14506e-07
-2.06501e-07
-6.74353e-08
-1.39479e-07
-3.04028e-08
-7.67478e-08
-2.87638e-09
-1.96378e-08
1.58899e-08
3.05969e-08
2.68389e-08
7.27587e-08
3.10946e-08
1.05675e-07
2.995e-08
1.28156e-07
2.48607e-08
1.38954e-07
1.74447e-08
1.3671e-07
9.48883e-09
1.19928e-07
2.95681e-09
8.69415e-08
3.58128e-08
-5.14818e-09
1.22405e-08
-1.95626e-08
4.41765e-08
-4.21913e-08
7.99663e-08
-7.20692e-08
1.17392e-07
-1.08381e-07
1.55177e-07
-1.50488e-07
1.92625e-07
-1.97924e-07
2.29452e-07
-2.5038e-07
2.65645e-07
-3.07675e-07
3.01331e-07
-3.69716e-07
3.36683e-07
-4.36463e-07
3.71847e-07
-5.07893e-07
4.06901e-07
-5.83966e-07
4.41824e-07
-6.64604e-07
4.7649e-07
-7.49666e-07
5.10665e-07
-8.38942e-07
5.44018e-07
-9.32137e-07
5.76129e-07
-1.02887e-06
6.06512e-07
-1.12869e-06
6.34625e-07
-1.23105e-06
6.59896e-07
-1.33534e-06
6.81735e-07
-1.4409e-06
6.99561e-07
-1.54702e-06
7.12813e-07
-1.65293e-06
7.20969e-07
-1.75789e-06
7.23565e-07
-1.8611e-06
7.20201e-07
-1.96181e-06
7.10557e-07
-2.05925e-06
6.94394e-07
-2.1527e-06
6.71563e-07
-2.24146e-06
6.42006e-07
-2.32485e-06
6.0575e-07
-2.40226e-06
5.62912e-07
-2.47308e-06
5.13694e-07
-2.53677e-06
4.58373e-07
-2.5928e-06
3.97305e-07
-2.6407e-06
3.30916e-07
-2.68002e-06
2.59702e-07
-2.71034e-06
1.8422e-07
-2.7313e-06
1.05095e-07
-2.74255e-06
2.30092e-08
-2.7438e-06
-6.13006e-08
-2.73479e-06
-1.47028e-07
-2.71532e-06
-2.33318e-07
-2.68522e-06
-3.19261e-07
-2.64443e-06
-4.03896e-07
-2.59291e-06
-4.86219e-07
-2.53075e-06
-5.65187e-07
-2.45812e-06
-6.39731e-07
-2.3753e-06
-7.08769e-07
-2.28271e-06
-7.71225e-07
-2.18088e-06
-8.26048e-07
-2.07053e-06
-8.72242e-07
-1.9525e-06
-9.08893e-07
-1.82781e-06
-9.35204e-07
-1.69765e-06
-9.50528e-07
-1.56334e-06
-9.54404e-07
-1.42634e-06
-9.46592e-07
-1.28822e-06
-9.27095e-07
-1.15061e-06
-8.96189e-07
-1.01519e-06
-8.54425e-07
-8.83621e-07
-8.02634e-07
-7.57486e-07
-7.41913e-07
-6.38268e-07
-6.73596e-07
-5.2728e-07
-5.99218e-07
-4.25634e-07
-5.20465e-07
-3.34199e-07
-4.39121e-07
-2.53586e-07
-3.57014e-07
-1.84125e-07
-2.75962e-07
-1.2587e-07
-1.97735e-07
-7.8599e-08
-1.24018e-07
-4.18332e-08
-5.64036e-08
-1.4851e-08
3.61471e-09
3.28866e-09
5.4619e-08
1.37267e-08
9.52367e-08
1.77856e-08
1.24097e-07
1.69557e-08
1.39783e-07
1.28868e-08
1.40779e-07
7.382e-09
1.25433e-07
2.39164e-09
9.19319e-08
3.82044e-08
-6.21951e-09
1.846e-08
-2.33457e-08
6.13028e-08
-4.99091e-08
1.0653e-07
-8.46126e-08
1.52096e-07
-1.2639e-07
1.96955e-07
-1.7442e-07
2.40656e-07
-2.28117e-07
2.83149e-07
-2.87093e-07
3.24621e-07
-3.51122e-07
3.6536e-07
-4.20083e-07
4.05644e-07
-4.9392e-07
4.45684e-07
-5.72592e-07
4.85574e-07
-6.56044e-07
5.25276e-07
-7.4417e-07
5.64616e-07
-8.36801e-07
6.03296e-07
-9.33686e-07
6.40902e-07
-1.03449e-06
6.76932e-07
-1.13879e-06
7.10809e-07
-1.24607e-06
7.41912e-07
-1.35577e-06
7.69591e-07
-1.46723e-06
7.93194e-07
-1.57975e-06
8.12086e-07
-1.69261e-06
8.25668e-07
-1.80504e-06
8.33397e-07
-1.91627e-06
8.34795e-07
-2.02553e-06
8.29466e-07
-2.13208e-06
8.17101e-07
-2.23517e-06
7.97484e-07
-2.33409e-06
7.70493e-07
-2.42819e-06
7.36099e-07
-2.5168e-06
6.94366e-07
-2.59934e-06
6.45445e-07
-2.67521e-06
5.8957e-07
-2.74389e-06
5.27053e-07
-2.80487e-06
4.58281e-07
-2.85766e-06
3.8371e-07
-2.90183e-06
3.03864e-07
-2.93694e-06
2.1933e-07
-2.9626e-06
1.30758e-07
-2.97845e-06
3.88592e-08
-2.98415e-06
-5.55963e-08
-2.97941e-06
-1.51773e-07
-2.96395e-06
-2.48778e-07
-2.93756e-06
-3.45655e-07
-2.90006e-06
-4.41395e-07
-2.85135e-06
-5.34928e-07
-2.7914e-06
-6.25138e-07
-2.72026e-06
-7.10865e-07
-2.63811e-06
-7.90923e-07
-2.54522e-06
-8.6411e-07
-2.44204e-06
-9.29235e-07
-2.32913e-06
-9.85145e-07
-2.20728e-06
-1.03075e-06
-2.0774e-06
-1.06508e-06
-1.94065e-06
-1.08728e-06
-1.79833e-06
-1.09673e-06
-1.65192e-06
-1.09299e-06
-1.50308e-06
-1.07594e-06
-1.35355e-06
-1.04572e-06
-1.20516e-06
-1.00281e-06
-1.05977e-06
-9.48026e-07
-9.19189e-07
-8.82489e-07
-7.85153e-07
-8.07632e-07
-6.59226e-07
-7.25145e-07
-5.42771e-07
-6.3692e-07
-4.36896e-07
-5.44997e-07
-3.4242e-07
-4.51489e-07
-2.59858e-07
-3.58525e-07
-1.89405e-07
-2.68187e-07
-1.30948e-07
-1.82475e-07
-8.40772e-08
-1.03274e-07
-4.81084e-08
-3.23541e-08
-2.21088e-08
2.86194e-08
-4.9244e-09
7.80523e-08
4.79585e-09
1.14377e-07
8.57805e-09
1.36001e-07
8.10573e-09
1.41251e-07
5.20398e-09
1.28334e-07
1.82128e-09
9.53146e-08
4.00257e-08
-7.31736e-09
2.57774e-08
-2.7206e-08
8.11914e-08
-5.77582e-08
1.37082e-07
-9.73315e-08
1.91669e-07
-1.44599e-07
2.44223e-07
-1.98556e-07
2.94612e-07
-2.5849e-07
3.43082e-07
-3.23936e-07
3.90068e-07
-3.94619e-07
4.36043e-07
-4.70391e-07
4.81417e-07
-5.51176e-07
5.26468e-07
-6.36914e-07
5.71312e-07
-7.27528e-07
6.15889e-07
-8.22886e-07
6.59975e-07
-9.22785e-07
7.03195e-07
-1.02694e-06
7.45055e-07
-1.13497e-06
7.8496e-07
-1.2464e-06
8.22249e-07
-1.36071e-06
8.56217e-07
-1.47727e-06
8.86147e-07
-1.5954e-06
9.11328e-07
-1.71439e-06
9.3108e-07
-1.8335e-06
9.44777e-07
-1.95196e-06
9.51858e-07
-2.06901e-06
9.51847e-07
-2.1839e-06
9.44354e-07
-2.29589e-06
9.29089e-07
-2.40427e-06
9.05861e-07
-2.50835e-06
8.74577e-07
-2.60749e-06
8.3524e-07
-2.70107e-06
7.87947e-07
-2.78851e-06
7.32881e-07
-2.86925e-06
6.70308e-07
-2.94277e-06
6.0057e-07
-3.00857e-06
5.24082e-07
-3.06618e-06
4.41326e-07
-3.11517e-06
3.5285e-07
-3.1551e-06
2.59265e-07
-3.18558e-06
1.61241e-07
-3.20624e-06
5.95103e-08
-3.2167e-06
-4.51341e-08
-3.21663e-06
-1.51837e-07
-3.20573e-06
-2.59678e-07
-3.18371e-06
-3.67676e-07
-3.15033e-06
-4.74779e-07
-3.10538e-06
-5.79876e-07
-3.04873e-06
-6.81789e-07
-2.98031e-06
-7.79284e-07
-2.90015e-06
-8.7108e-07
-2.8084e-06
-9.55863e-07
-2.70533e-06
-1.0323e-06
-2.59139e-06
-1.09909e-06
-2.46719e-06
-1.15495e-06
-2.33356e-06
-1.19871e-06
-2.19153e-06
-1.22931e-06
-2.04237e-06
-1.24589e-06
-1.88755e-06
-1.24782e-06
-1.72874e-06
-1.23475e-06
-1.56778e-06
-1.20668e-06
-1.40665e-06
-1.16394e-06
-1.2474e-06
-1.10728e-06
-1.09209e-06
-1.0378e-06
-9.42705e-07
-9.57018e-07
-8.01109e-07
-8.6674e-07
-6.68959e-07
-7.6907e-07
-5.47649e-07
-6.66307e-07
-4.3826e-07
-5.60878e-07
-3.41532e-07
-4.55253e-07
-2.57846e-07
-3.51873e-07
-1.8723e-07
-2.53092e-07
-1.29368e-07
-1.61136e-07
-8.36313e-08
-7.80909e-08
-4.91061e-08
-5.90573e-09
-2.46296e-08
5.35757e-08
-8.82254e-09
9.85701e-08
-1.19427e-10
1.27298e-07
3.20462e-09
1.37927e-07
3.00927e-09
1.2853e-07
1.2622e-09
9.70616e-08
4.12879e-08
-8.42777e-09
3.42051e-08
-3.1094e-08
1.03858e-07
-6.56379e-08
1.71626e-07
-1.10063e-07
2.36094e-07
-1.62777e-07
2.96937e-07
-2.22588e-07
3.54423e-07
-2.8866e-07
4.09154e-07
-3.60448e-07
4.61856e-07
-4.37629e-07
5.13223e-07
-5.20024e-07
5.63812e-07
-6.07535e-07
6.13979e-07
-7.00082e-07
6.6386e-07
-7.97563e-07
7.1337e-07
-8.99818e-07
7.6223e-07
-1.00661e-06
8.09987e-07
-1.11761e-06
8.56057e-07
-1.23241e-06
8.99758e-07
-1.3505e-06
9.4034e-07
-1.47131e-06
9.77024e-07
-1.59419e-06
1.00903e-06
-1.71844e-06
1.03558e-06
-1.84335e-06
1.05598e-06
-1.96815e-06
1.06958e-06
-2.0921e-06
1.0758e-06
-2.21443e-06
1.07418e-06
-2.33441e-06
1.06434e-06
-2.45133e-06
1.04601e-06
-2.5645e-06
1.01903e-06
-2.67325e-06
9.83327e-07
-2.77696e-06
9.3895e-07
-2.87503e-06
8.86023e-07
-2.96691e-06
8.24761e-07
-3.05207e-06
7.55461e-07
-3.12999e-06
6.78494e-07
-3.20021e-06
5.94304e-07
-3.26228e-06
5.03398e-07
-3.31578e-06
4.06346e-07
-3.3603e-06
3.03779e-07
-3.39544e-06
1.96384e-07
-3.42084e-06
8.49079e-08
-3.43613e-06
-2.98454e-08
-3.44095e-06
-1.4701e-07
-3.43498e-06
-2.65655e-07
-3.41787e-06
-3.84785e-07
-3.38931e-06
-5.03334e-07
-3.34903e-06
-6.20159e-07
-3.29677e-06
-7.34049e-07
-3.23234e-06
-8.43713e-07
-3.15562e-06
-9.47799e-07
-3.06659e-06
-1.04489e-06
-2.96535e-06
-1.13354e-06
-2.85217e-06
-1.21228e-06
-2.72747e-06
-1.27965e-06
-2.59191e-06
-1.33426e-06
-2.44639e-06
-1.37483e-06
-2.29205e-06
-1.40023e-06
-2.13028e-06
-1.40958e-06
-1.96275e-06
-1.40228e-06
-1.79136e-06
-1.37807e-06
-1.61818e-06
-1.33712e-06