/*--------------------------------*- C++ -*----------------------------------*\
  =========                 |
  \\      /  F ield         | OpenFOAM: The Open Source CFD Toolbox
   \\    /   O peration     | Website:  https://openfoam.org
    \\  /    A nd           | Version:  7
     \\/     M anipulation  |
\*---------------------------------------------------------------------------*/
FoamFile
{
    version     2.0;
    format      ascii;
    class       surfaceScalarField;
    location    "0.525";
    object      phi;
}
// * * * * * * * * * * * * * * * * * * * * * * * * * * * * * * * * * * * * * //

dimensions      [0 3 -1 0 0 0 0];

internalField   nonuniform List<scalar> 
12640
(
2.0006e-10
-2.00031e-10
5.34968e-10
-3.34943e-10
7.88322e-10
-2.53343e-10
8.46743e-10
-5.84192e-11
6.61536e-10
1.8521e-10
2.18517e-10
4.43012e-10
-4.77724e-10
6.96256e-10
-1.41257e-09
9.34831e-10
-2.56618e-09
1.1536e-09
-3.91644e-09
1.35024e-09
-5.44055e-09
1.52411e-09
-7.11609e-09
1.67554e-09
-8.92152e-09
1.80543e-09
-1.08365e-08
1.91495e-09
-1.28419e-08
2.00544e-09
-1.49202e-08
2.07825e-09
-1.70548e-08
2.13466e-09
-1.92307e-08
2.17588e-09
-2.14336e-08
2.20295e-09
-2.36504e-08
2.21677e-09
-2.58685e-08
2.21813e-09
-2.80761e-08
2.20762e-09
-3.02618e-08
2.18569e-09
-3.24145e-08
2.15266e-09
-3.45232e-08
2.10871e-09
-3.65771e-08
2.05394e-09
-3.85655e-08
1.98839e-09
-4.04775e-08
1.91202e-09
-4.23023e-08
1.82476e-09
-4.40288e-08
1.72653e-09
-4.56461e-08
1.61727e-09
-4.7143e-08
1.49697e-09
-4.85087e-08
1.36568e-09
-4.97323e-08
1.22354e-09
-5.0803e-08
1.07077e-09
-5.17108e-08
9.07756e-10
-5.24458e-08
7.34993e-10
-5.29989e-08
5.5314e-10
-5.3362e-08
3.63029e-10
-5.35276e-08
1.6565e-10
-5.34898e-08
-3.78432e-11
-5.32437e-08
-2.46087e-10
-5.27862e-08
-4.57557e-10
-5.21156e-08
-6.70588e-10
-5.12322e-08
-8.83344e-10
-5.01384e-08
-1.09385e-09
-4.88383e-08
-1.30005e-09
-4.73386e-08
-1.49978e-09
-4.56478e-08
-1.6908e-09
-4.37769e-08
-1.87089e-09
-4.17391e-08
-2.03782e-09
-3.95497e-08
-2.18941e-09
-3.72261e-08
-2.32356e-09
-3.47878e-08
-2.43832e-09
-3.22559e-08
-2.53191e-09
-2.96532e-08
-2.60273e-09
-2.70037e-08
-2.64943e-09
-2.43327e-08
-2.67096e-09
-2.16662e-08
-2.66657e-09
-1.90304e-08
-2.63581e-09
-1.64518e-08
-2.57856e-09
-1.39567e-08
-2.49512e-09
-1.15706e-08
-2.3861e-09
-9.3181e-09
-2.25249e-09
-7.22245e-09
-2.09565e-09
-5.30514e-09
-1.9173e-09
-3.58558e-09
-1.71956e-09
-2.0807e-09
-1.50489e-09
-8.0454e-10
-1.27617e-09
2.32197e-10
-1.03674e-09
1.02274e-09
-7.90542e-10
1.56496e-09
-5.42213e-10
1.86247e-09
-2.97517e-10
1.92629e-09
-6.38312e-11
1.7774e-09
1.48893e-10
1.45087e-09
3.26537e-10
1.00211e-09
4.48762e-10
5.17252e-10
4.84845e-10
1.29199e-10
3.88039e-10
1.29193e-10
3.37209e-10
-5.37272e-10
7.43223e-10
-7.40908e-10
8.76935e-10
-3.87107e-10
5.363e-10
2.82236e-10
-3.89351e-10
1.11085e-09
-1.94618e-09
1.99985e-09
-4.13744e-09
2.88752e-09
-6.93937e-09
3.73678e-09
-1.03119e-08
4.5262e-09
-1.42059e-08
5.24423e-09
-1.85675e-08
5.88573e-09
-2.33415e-08
6.44952e-09
-2.8473e-08
6.93695e-09
-3.3909e-08
7.35088e-09
-3.95985e-08
7.69497e-09
-4.54936e-08
7.97327e-09
-5.15488e-08
8.18987e-09
-5.77216e-08
8.34863e-09
-6.39717e-08
8.45308e-09
-7.02612e-08
8.50631e-09
-7.65541e-08
8.51096e-09
-8.28156e-08
8.46916e-09
-8.90125e-08
8.38257e-09
-9.51122e-08
8.25241e-09
-1.01083e-07
8.07947e-09
-1.06893e-07
7.86426e-09
-1.12512e-07
7.607e-09
-1.17908e-07
7.30775e-09
-1.23049e-07
6.96647e-09
-1.27906e-07
6.58308e-09
-1.32446e-07
6.15762e-09
-1.3664e-07
5.69027e-09
-1.40455e-07
5.18146e-09
-1.43864e-07
4.63193e-09
-1.46836e-07
4.04281e-09
-1.49344e-07
3.41569e-09
-1.51361e-07
2.75269e-09
-1.52865e-07
2.05646e-09
-1.53832e-07
1.33026e-09
-1.54244e-07
5.77972e-10
-1.54086e-07
-1.95903e-10
-1.53346e-07
-9.86253e-10
-1.52016e-07
-1.78733e-09
-1.50094e-07
-2.5928e-09
-1.47582e-07
-3.39587e-09
-1.44486e-07
-4.18923e-09
-1.40821e-07
-4.96518e-09
-1.36605e-07
-5.71577e-09
-1.31863e-07
-6.43286e-09
-1.26626e-07
-7.10825e-09
-1.2093e-07
-7.73377e-09
-1.14818e-07
-8.3015e-09
-1.08337e-07
-8.80386e-09
-1.01542e-07
-9.23374e-09
-9.44892e-08
-9.58464e-09
-8.72411e-08
-9.85087e-09
-7.98629e-08
-1.00276e-08
-7.24228e-08
-1.01111e-08
-6.49908e-08
-1.00985e-08
-5.76382e-08
-9.98843e-09
-5.04361e-08
-9.78062e-09
-4.34551e-08
-9.47615e-09
-3.67638e-08
-9.07744e-09
-3.04279e-08
-8.58832e-09
-2.45096e-08
-8.01399e-09
-1.90658e-08
-7.36108e-09
-1.41477e-08
-6.63762e-09
-9.79943e-09
-5.85317e-09
-6.05667e-09
-5.0189e-09
-2.94556e-09
-4.14784e-09
-4.8094e-10
-3.25517e-09
1.33575e-09
-2.35891e-09
2.51909e-09
-1.48085e-09
3.10338e-09
-6.48102e-10
3.14767e-09
1.04598e-10
2.74245e-09
7.31747e-10
2.01832e-09
1.17289e-09
1.15511e-09
1.34804e-09
3.86287e-10
1.15685e-09
5.15495e-10
2.59258e-10
-7.96519e-10
3.96539e-10
-8.78211e-10
3.69269e-11
-2.7501e-11
-1.04903e-09
1.36816e-09
-2.9971e-09
3.05893e-09
-5.86911e-09
4.87184e-09
-9.67395e-09
6.69237e-09
-1.43842e-08
8.447e-09
-1.99482e-08
1.00902e-08
-2.62993e-08
1.15954e-08
-3.33622e-08
1.29487e-08
-4.10577e-08
1.41449e-08
-4.93052e-08
1.51844e-08
-5.80254e-08
1.60712e-08
-6.71416e-08
1.68111e-08
-7.65797e-08
1.74114e-08
-8.62694e-08
1.78796e-08
-9.61438e-08
1.8223e-08
-1.06139e-07
1.84485e-08
-1.16195e-07
1.85622e-08
-1.26253e-07
1.85693e-08
-1.36258e-07
1.84741e-08
-1.46156e-07
1.82801e-08
-1.55893e-07
1.79899e-08
-1.65419e-07
1.76054e-08
-1.74683e-07
1.71276e-08
-1.83633e-07
1.65573e-08
-1.9222e-07
1.5895e-08
-2.00394e-07
1.51407e-08
-2.08106e-07
1.42947e-08
-2.15306e-07
1.33574e-08
-2.21945e-07
1.23295e-08
-2.27976e-07
1.12124e-08
-2.33352e-07
1.00079e-08
-2.38028e-07
8.71892e-09
-2.41962e-07
7.34917e-09
-2.45112e-07
5.90348e-09
-2.47444e-07
4.38787e-09
-2.48923e-07
2.80956e-09
-2.49522e-07
1.17706e-09
-2.49218e-07
-4.99792e-10
-2.47995e-07
-2.20988e-09
-2.45841e-07
-3.94087e-09
-2.42755e-07
-5.67922e-09
-2.3874e-07
-7.41033e-09
-2.33811e-07
-9.11868e-09
-2.27988e-07
-1.0788e-08
-2.21302e-07
-1.24014e-08
-2.13794e-07
-1.39417e-08
-2.0551e-07
-1.53916e-08
-1.9651e-07
-1.6734e-08
-1.86859e-07
-1.79522e-08
-1.76633e-07
-1.90304e-08
-1.65913e-07
-1.99537e-08
-1.54789e-07
-2.07085e-08
-1.43357e-07
-2.12829e-08
-1.31718e-07
-2.1667e-08
-1.19976e-07
-2.18528e-08
-1.0824e-07
-2.18348e-08
-9.66181e-08
-2.16099e-08
-8.52209e-08
-2.11779e-08
-7.4156e-08
-2.0541e-08
-6.35286e-08
-1.97048e-08
-5.34394e-08
-1.86775e-08
-4.3983e-08
-1.74703e-08
-3.52464e-08
-1.60977e-08
-2.7307e-08
-1.45771e-08
-2.0231e-08
-1.29291e-08
-1.40717e-08
-1.11782e-08
-8.86702e-09
-9.3525e-09
-4.63736e-09
-7.48481e-09
-1.38255e-09
-5.6137e-09
9.21652e-10
-3.78504e-09
2.32796e-09
-2.05441e-09
2.92292e-09
-4.9036e-10
2.8335e-09
8.21179e-10
2.23438e-09
1.77203e-09
1.35487e-09
2.22754e-09
4.84373e-10
2.02736e-09
9.99883e-10
6.60482e-11
-8.62587e-10
-2.74769e-10
-5.37371e-10
-1.36966e-09
1.06737e-09
-3.44157e-09
3.4401e-09
-6.62236e-09
6.23972e-09
-1.09737e-08
9.22316e-09
-1.65026e-08
1.22214e-08
-2.31765e-08
1.51209e-08
-3.09346e-08
1.78482e-08
-3.96971e-08
2.03579e-08
-4.9373e-08
2.26245e-08
-5.98643e-08
2.46363e-08
-7.1071e-08
2.63911e-08
-8.28926e-08
2.78928e-08
-9.52308e-08
2.91493e-08
-1.0799e-07
3.01707e-08
-1.21079e-07
3.09681e-08
-1.34408e-07
3.15526e-08
-1.47894e-07
3.19346e-08
-1.61456e-07
3.21238e-08
-1.75015e-07
3.21285e-08
-1.88497e-07
3.19556e-08
-2.01827e-07
3.16108e-08
-2.14936e-07
3.10984e-08
-2.27752e-07
3.04216e-08
-2.40207e-07
2.95825e-08
-2.52232e-07
2.85828e-08
-2.63761e-07
2.74232e-08
-2.74724e-07
2.61046e-08
-2.85058e-07
2.46278e-08
-2.94694e-07
2.29939e-08
-3.03569e-07
2.12048e-08
-3.1162e-07
1.9263e-08
-3.18785e-07
1.71726e-08
-3.25005e-07
1.49387e-08
-3.30224e-07
1.25683e-08
-3.3439e-07
1.00699e-08
-3.37456e-07
7.45432e-09
-3.39381e-07
4.73413e-09
-3.40128e-07
1.92416e-09
-3.39669e-07
-9.58647e-10
-3.37984e-07
-3.89522e-09
-3.3506e-07
-6.86446e-09
-3.30896e-07
-9.84334e-09
-3.255e-07
-1.28071e-08
-3.18889e-07
-1.57295e-08
-3.11094e-07
-1.85831e-08
-3.02156e-07
-2.13394e-08
-2.92128e-07
-2.39696e-08
-2.81074e-07
-2.64447e-08
-2.69072e-07
-2.87361e-08
-2.56209e-07
-3.08159e-08
-2.42581e-07
-3.26576e-08
-2.28299e-07
-3.42363e-08
-2.13478e-07
-3.55295e-08
-1.98243e-07
-3.65174e-08
-1.82727e-07
-3.71834e-08
-1.67066e-07
-3.75143e-08
-1.51399e-07
-3.75011e-08
-1.3587e-07
-3.71388e-08
-1.20621e-07
-3.64271e-08
-1.05792e-07
-3.53703e-08
-9.1519e-08
-3.39776e-08
-7.79333e-08
-3.22632e-08
-6.51572e-08
-3.02464e-08
-5.33029e-08
-2.79519e-08
-4.24705e-08
-2.54095e-08
-3.2745e-08
-2.26546e-08
-2.41944e-08
-1.97288e-08
-1.68668e-08
-1.668e-08
-1.07877e-08
-1.35639e-08
-5.95642e-09
-1.0445e-08
-2.34256e-09
-7.39891e-09
1.18497e-10
-4.51547e-09
1.53051e-09
-1.90235e-09
2.04178e-09
3.0993e-10
1.85146e-09
1.96234e-09
1.2159e-09
2.86308e-09
4.57676e-10
2.7856e-09
1.45756e-09
-1.81164e-10
-6.8143e-10
-1.12573e-09
4.07173e-10
-3.11619e-09
3.05782e-09
-6.3394e-09
6.66329e-09
-1.09059e-08
1.08062e-08
-1.68633e-08
1.51806e-08
-2.42087e-08
1.95667e-08
-3.28998e-08
2.38121e-08
-4.2866e-08
2.78144e-08
-5.40161e-08
3.1508e-08
-6.62456e-08
3.4854e-08
-7.94418e-08
3.78326e-08
-9.34885e-08
4.04377e-08
-1.08268e-07
4.26724e-08
-1.23665e-07
4.45457e-08
-1.39564e-07
4.60703e-08
-1.55856e-07
4.72605e-08
-1.72435e-07
4.81311e-08
-1.89197e-07
4.86965e-08
-2.06043e-07
4.89698e-08
-2.22877e-07
4.89626e-08
-2.39606e-07
4.86849e-08
-2.5614e-07
4.81447e-08
-2.7239e-07
4.73483e-08
-2.88269e-07
4.63006e-08
-3.03692e-07
4.50049e-08
-3.18573e-07
4.34638e-08
-3.32828e-07
4.16791e-08
-3.46376e-07
3.96524e-08
-3.59134e-07
3.73856e-08
-3.71021e-07
3.4881e-08
-3.81958e-07
3.21419e-08
-3.91868e-07
2.91731e-08
-4.00677e-07
2.5981e-08
-4.08312e-07
2.25741e-08
-4.14707e-07
1.89636e-08
-4.198e-07
1.51628e-08
-4.23534e-07
1.11884e-08
-4.2586e-07
7.05971e-09
-4.26735e-07
2.79941e-09
-4.26127e-07
-1.56681e-09
-4.24012e-07
-6.01019e-09
-4.20377e-07
-1.0499e-08
-4.15222e-07
-1.49987e-08
-4.08557e-07
-1.94722e-08
-4.00406e-07
-2.38805e-08
-3.90806e-07
-2.81827e-08
-3.79809e-07
-3.23366e-08
-3.67479e-07
-3.62994e-08
-3.53896e-07
-4.00282e-08
-3.39152e-07
-4.34805e-08
-3.23352e-07
-4.66154e-08
-3.06616e-07
-4.93935e-08
-2.89074e-07
-5.17783e-08
-2.70867e-07
-5.37366e-08
-2.52145e-07
-5.52392e-08
-2.33067e-07
-5.62616e-08
-2.13797e-07
-5.67847e-08
-1.94503e-07
-5.67951e-08
-1.75356e-07
-5.62856e-08
-1.56527e-07
-5.52559e-08
-1.38185e-07
-5.37126e-08
-1.20493e-07
-5.16697e-08
-1.03607e-07
-4.91486e-08
-8.76756e-08
-4.61782e-08
-7.28321e-08
-4.27954e-08
-5.91963e-08
-3.90452e-08
-4.68703e-08
-3.49806e-08
-3.59354e-08
-3.06637e-08
-2.64494e-08
-2.61661e-08
-1.84435e-08
-2.15698e-08
-1.19187e-08
-1.69698e-08
-6.84231e-09
-1.24753e-08
-3.14393e-09
-8.21385e-09
-7.11106e-10
-4.33516e-09
6.15109e-10
-1.01628e-09
1.04526e-09
1.53218e-09
8.47283e-10
3.06106e-09
3.55923e-10
3.27696e-09
1.81346e-09
-4.50943e-10
-2.30508e-10
-2.06806e-09
2.02432e-09
-5.05112e-09
6.04086e-09
-9.53409e-09
1.11463e-08
-1.5592e-08
1.68641e-08
-2.32477e-08
2.28363e-08
-3.24803e-08
2.87993e-08
-4.32336e-08
3.45654e-08
-5.54243e-08
4.00051e-08
-6.89491e-08
4.50328e-08
-8.36912e-08
4.95961e-08
-9.9525e-08
5.36664e-08
-1.1632e-07
5.7233e-08
-1.33945e-07
6.02973e-08
-1.52268e-07
6.28689e-08
-1.71161e-07
6.49627e-08
-1.90496e-07
6.65959e-08
-2.10152e-07
6.77869e-08
-2.30009e-07
6.85537e-08
-2.49953e-07
6.89132e-08
-2.6987e-07
6.88803e-08
-2.89653e-07
6.84679e-08
-3.09195e-07
6.76866e-08
-3.28392e-07
6.65448e-08
-3.4714e-07
6.50492e-08
-3.6534e-07
6.32047e-08
-3.82891e-07
6.10151e-08
-3.99696e-07
5.84833e-08
-4.15656e-07
5.56123e-08
-4.30675e-07
5.24052e-08
-4.4466e-07
4.88658e-08
-4.57518e-07
4.49998e-08
-4.69159e-07
4.08143e-08
-4.79497e-07
3.63192e-08
-4.8845e-07
3.15271e-08
-4.95941e-07
2.64539e-08
-5.01897e-07
2.11192e-08
-5.06255e-07
1.55464e-08
-5.08958e-07
9.76302e-09
-5.0996e-07
3.80074e-09
-5.09222e-07
-2.30448e-09
-5.0672e-07
-8.51258e-09
-5.02439e-07
-1.47795e-08
-4.9638e-07
-2.10576e-08
-4.88557e-07
-2.72956e-08
-4.78998e-07
-3.34398e-08
-4.67746e-07
-3.94338e-08
-4.54863e-07
-4.522e-08
-4.40423e-07
-5.07395e-08
-4.24518e-07
-5.59335e-08
-4.07254e-07
-6.07442e-08
-3.88754e-07
-6.51151e-08
-3.69155e-07
-6.89929e-08
-3.48606e-07
-7.23274e-08
-3.27269e-07
-7.50734e-08
-3.05317e-07
-7.71911e-08
-2.82932e-07
-7.86471e-08
-2.60301e-07
-7.94151e-08
-2.37619e-07
-7.94769e-08
-2.15082e-07
-7.8823e-08
-1.92885e-07
-7.74529e-08
-1.71222e-07
-7.5376e-08
-1.5028e-07
-7.26114e-08
-1.3024e-07
-6.91887e-08
-1.1127e-07
-6.51481e-08
-9.35249e-08
-6.05404e-08
-7.71426e-08
-5.54275e-08
-6.22405e-08
-4.98827e-08
-4.8913e-08
-4.39913e-08
-3.7228e-08
-3.78511e-08
-2.72238e-08
-3.1574e-08
-1.89056e-08
-2.52879e-08
-1.22425e-08
-1.91384e-08
-7.16321e-09
-1.32931e-08
-3.5534e-09
-7.94497e-09
-1.2517e-09
-3.31799e-09
-4.58859e-11
3.2635e-10
3.3177e-10
2.6834e-09
2.10895e-10
3.39782e-09
2.02436e-09
-7.27193e-10
4.96676e-10
-3.04891e-09
4.34604e-09
-7.07743e-09
1.00694e-08
-1.28849e-08
1.69538e-08
-2.05015e-08
2.44807e-08
-2.99172e-08
3.2252e-08
-4.10867e-08
3.99688e-08
-5.39349e-08
4.74136e-08
-6.83629e-08
5.44331e-08
-8.42539e-08
6.09238e-08
-1.01478e-07
6.68204e-08
-1.19898e-07
7.2086e-08
-1.3937e-07
7.67052e-08
-1.5975e-07
8.06775e-08
-1.80894e-07
8.40128e-08
-2.02659e-07
8.67275e-08
-2.24905e-07
8.88418e-08
-2.47496e-07
9.03775e-08
-2.70298e-07
9.1356e-08
-2.93182e-07
9.17976e-08
-3.16023e-07
9.17207e-08
-3.38696e-07
9.11409e-08
-3.61081e-07
9.00717e-08
-3.8306e-07
8.85237e-08
-4.04516e-07
8.65054e-08
-4.25335e-07
8.40234e-08
-4.45403e-07
8.10828e-08
-4.64607e-07
7.76883e-08
-4.82839e-07
7.38439e-08
-4.99989e-07
6.95547e-08
-5.15949e-07
6.48266e-08
-5.30617e-07
5.96676e-08
-5.43891e-07
5.40883e-08
-5.55674e-07
4.81022e-08
-5.65874e-07
4.1727e-08
-5.74405e-07
3.49843e-08
-5.81186e-07
2.79005e-08
-5.86146e-07
2.05069e-08
-5.89224e-07
1.28404e-08
-5.90366e-07
4.94287e-09
-5.89532e-07
-3.1382e-09
-5.86695e-07
-1.13501e-08
-5.81839e-07
-1.9635e-08
-5.74966e-07
-2.79304e-08
-5.66092e-07
-3.61696e-08
-5.5525e-07
-4.42823e-08
-5.42488e-07
-5.21953e-08
-5.27875e-07
-5.98332e-08
-5.11495e-07
-6.71199e-08
-4.93449e-07
-7.3979e-08
-4.73858e-07
-8.03351e-08
-4.52858e-07
-8.61154e-08
-4.306e-07
-9.12503e-08
-4.07253e-07
-9.5675e-08
-3.82995e-07
-9.93308e-08
-3.58021e-07
-1.02166e-07
-3.32531e-07
-1.04137e-07
-3.06736e-07
-1.0521e-07
-2.80852e-07
-1.05361e-07
-2.55097e-07
-1.04578e-07
-2.29689e-07
-1.0286e-07
-2.04845e-07
-1.0022e-07
-1.80775e-07
-9.66814e-08
-1.5768e-07
-9.22838e-08
-1.35749e-07
-8.70791e-08
-1.15156e-07
-8.11338e-08
-9.6055e-08
-7.45282e-08
-7.85799e-08
-6.73578e-08
-6.28381e-08
-5.97331e-08
-4.89087e-08
-5.17805e-08
-3.68388e-08
-4.36439e-08
-2.66407e-08
-3.5486e-08
-1.82884e-08
-2.74908e-08
-1.17146e-08
-1.98669e-08
-6.80832e-09
-1.28512e-08
-3.41218e-09
-6.71413e-09
-1.31961e-09
-1.76622e-09
-2.72478e-10
1.63625e-09
4.24393e-11
3.08289e-09
2.06681e-09
-1.00169e-09
1.49834e-09
-4.03755e-09
7.38193e-09
-9.1346e-09
1.51664e-08
-1.62996e-08
2.41188e-08
-2.55123e-08
3.36934e-08
-3.67244e-08
4.34641e-08
-4.98609e-08
5.31053e-08
-6.48238e-08
6.23764e-08
-8.14954e-08
7.11048e-08
-9.97435e-08
7.91719e-08
-1.19425e-07
8.65016e-08
-1.40388e-07
9.30497e-08
-1.6248e-07
9.87966e-08
-1.85542e-07
1.0374e-07
-2.0942e-07
1.07891e-07
-2.33959e-07
1.11266e-07
-2.59006e-07
1.13889e-07
-2.84413e-07
1.15785e-07
-3.10035e-07
1.16978e-07
-3.3573e-07
1.17492e-07
-3.61358e-07
1.17349e-07
-3.86785e-07
1.16568e-07
-4.11876e-07
1.15163e-07
-4.36501e-07
1.13149e-07
-4.60531e-07
1.10535e-07
-4.83838e-07
1.07331e-07
-5.06297e-07
1.03542e-07
-5.27783e-07
9.91746e-08
-5.48175e-07
9.42355e-08
-5.67351e-07
8.8731e-08
-5.85194e-07
8.26697e-08
-6.01589e-07
7.60626e-08
-6.16425e-07
6.89238e-08
-6.29594e-07
6.12715e-08
-6.40996e-07
5.31287e-08
-6.50535e-07
4.45236e-08
-6.58125e-07
3.54903e-08
-6.63687e-07
2.60691e-08
-6.67153e-07
1.63066e-08
-6.68467e-07
6.25643e-09
-6.67584e-07
-4.02147e-09
-6.64473e-07
-1.44605e-08
-6.59121e-07
-2.49877e-08
-6.51526e-07
-3.55247e-08
-6.41708e-07
-4.59875e-08
-6.29703e-07
-5.62881e-08
-6.15563e-07
-6.63348e-08
-5.99363e-07
-7.60334e-08
-5.81194e-07
-8.52885e-08
-5.61169e-07
-9.40045e-08
-5.39416e-07
-1.02088e-07
-5.16085e-07
-1.09446e-07
-4.91341e-07
-1.15994e-07
-4.65367e-07
-1.2165e-07
-4.38358e-07
-1.26339e-07
-4.10525e-07
-1.29999e-07
-3.82089e-07
-1.32573e-07
-3.53279e-07
-1.3402e-07
-3.24331e-07
-1.34309e-07
-2.95485e-07
-1.33425e-07
-2.66979e-07
-1.31366e-07
-2.39051e-07
-1.28148e-07
-2.11932e-07
-1.23801e-07
-1.85843e-07
-1.18373e-07
-1.60992e-07
-1.11929e-07
-1.37573e-07
-1.04553e-07
-1.15757e-07
-9.63443e-08
-9.56929e-08
-8.74219e-08
-7.75027e-08
-7.79232e-08
-6.12781e-08
-6.80051e-08
-4.70771e-08
-5.78448e-08
-3.49215e-08
-4.76416e-08
-2.47935e-08
-3.76188e-08
-1.66339e-08
-2.80266e-08
-1.03394e-08
-1.91457e-08
-5.76139e-09
-1.12921e-08
-2.70461e-09
-4.823e-09
-9.26482e-10
-1.41896e-10
-1.37133e-10
2.29355e-09
1.9297e-09
-1.27033e-09
2.76867e-09
-5.0167e-09
1.11283e-08
-1.11857e-08
2.13354e-08
-1.97185e-08
3.26516e-08
-3.05423e-08
4.45171e-08
-4.35666e-08
5.64884e-08
-5.86835e-08
6.82222e-08
-7.57682e-08
7.94611e-08
-9.46821e-08
9.00187e-08
-1.15275e-07
9.9765e-08
-1.37389e-07
1.08616e-07
-1.6086e-07
1.16521e-07
-1.85522e-07
1.23458e-07
-2.11206e-07
1.29424e-07
-2.37745e-07
1.3443e-07
-2.64975e-07
1.38496e-07
-2.92733e-07
1.41647e-07
-3.20858e-07
1.4391e-07
-3.49196e-07
1.45315e-07
-3.77592e-07
1.45889e-07
-4.05898e-07
1.45655e-07
-4.33965e-07
1.44635e-07
-4.6165e-07
1.42848e-07
-4.88809e-07
1.40309e-07
-5.15304e-07
1.3703e-07
-5.40995e-07
1.33021e-07
-5.65745e-07
1.28292e-07
-5.89419e-07
1.22849e-07
-6.11885e-07
1.16701e-07
-6.3301e-07
1.09857e-07
-6.52668e-07
1.02327e-07
-6.70732e-07
9.41271e-08
-6.87083e-07
8.52744e-08
-7.01604e-07
7.57926e-08
-7.14186e-07
6.57103e-08
-7.24725e-07
5.50632e-08
-7.33128e-07
4.38935e-08
-7.3931e-07
3.22511e-08
-7.43198e-07
2.01938e-08
-7.44728e-07
7.78721e-09
-7.43855e-07
-4.89496e-09
-7.40544e-07
-1.77713e-08
-7.34779e-07
-3.07528e-08
-7.2656e-07
-4.37436e-08
-7.15906e-07
-5.66418e-08
-7.02854e-07
-6.934e-08
-6.87462e-07
-8.17268e-08
-6.69808e-07
-9.36877e-08
-6.4999e-07
-1.05107e-07
-6.28126e-07
-1.15868e-07
-6.04357e-07
-1.25857e-07
-5.7884e-07
-1.34963e-07
-5.51753e-07
-1.43081e-07
-5.23292e-07
-1.50111e-07
-4.93668e-07
-1.55964e-07
-4.63106e-07
-1.60561e-07
-4.31843e-07
-1.63835e-07
-4.00129e-07
-1.65734e-07
-3.68216e-07
-1.66222e-07
-3.36364e-07
-1.65277e-07
-3.04833e-07
-1.62898e-07
-2.73878e-07
-1.59102e-07
-2.43753e-07
-1.53927e-07
-2.14696e-07
-1.47429e-07
-1.86938e-07
-1.39688e-07
-1.60688e-07
-1.30803e-07
-1.36138e-07
-1.20895e-07
-1.13451e-07
-1.10108e-07
-9.27667e-08
-9.86078e-08
-7.41897e-08
-8.6582e-08
-5.77918e-08
-7.42428e-08
-4.36064e-08
-6.18269e-08
-3.16275e-08
-4.95977e-08
-2.18066e-08
-3.78475e-08
-1.40519e-08
-2.69004e-08
-8.22744e-09
-1.71166e-08
-4.15299e-09
-8.89746e-09
-1.60526e-09
-2.68963e-09
-3.20548e-10
1.00886e-09
1.60915e-09
-1.53136e-09
4.30003e-09
-5.97693e-09
1.55739e-08
-1.32087e-08
2.85672e-08
-2.31042e-08
4.25471e-08
-3.55372e-08
5.69501e-08
-5.03737e-08
7.13249e-08
-6.747e-08
8.53185e-08
-8.66726e-08
9.86637e-08
-1.07819e-07
1.11165e-07
-1.30741e-07
1.22686e-07
-1.55263e-07
1.33137e-07
-1.81207e-07
1.42465e-07
-2.08395e-07
1.50646e-07
-2.36648e-07
1.57677e-07
-2.65789e-07
1.6357e-07
-2.95641e-07
1.68348e-07
-3.26032e-07
1.72038e-07
-3.56794e-07
1.74672e-07
-3.87761e-07
1.76282e-07
-4.18769e-07
1.76897e-07
-4.49659e-07
1.76545e-07
-4.80275e-07
1.7525e-07
-5.10461e-07
1.73034e-07
-5.40066e-07
1.69913e-07
-5.68938e-07
1.65902e-07
-5.96931e-07
1.61013e-07
-6.23895e-07
1.55257e-07
-6.49688e-07
1.48641e-07
-6.74165e-07
1.41178e-07
-6.97186e-07
1.32878e-07
-7.18613e-07
1.23755e-07
-7.38312e-07
1.13827e-07
-7.56155e-07
1.03117e-07
-7.72015e-07
9.16532e-08
-7.85776e-07
7.94715e-08
-7.97328e-07
6.66147e-08
-8.06568e-07
5.31339e-08
-8.13407e-07
3.90894e-08
-8.17763e-07
2.45504e-08
-8.19572e-07
9.5956e-09
-8.1878e-07
-5.68693e-09
-8.15351e-07
-2.12e-08
-8.09266e-07
-3.68376e-08
-8.00524e-07
-5.24856e-08
-7.89143e-07
-6.80228e-08
-7.75161e-07
-8.33216e-08
-7.58639e-07
-9.82495e-08
-7.39656e-07
-1.1267e-07
-7.18316e-07
-1.26447e-07
-6.94743e-07
-1.39441e-07
-6.69084e-07
-1.51516e-07
-6.41507e-07
-1.62541e-07
-6.12198e-07
-1.72389e-07
-5.81366e-07
-1.80944e-07
-5.49233e-07
-1.88097e-07
-5.1604e-07
-1.93754e-07
-4.8204e-07
-1.97835e-07
-4.47498e-07
-2.00276e-07
-4.12686e-07
-2.01034e-07
-3.77881e-07
-2.00082e-07
-3.43362e-07
-1.97417e-07
-3.09406e-07
-1.93058e-07
-2.76284e-07
-1.87048e-07
-2.44258e-07
-1.79455e-07
-2.13576e-07
-1.7037e-07
-1.84468e-07
-1.59911e-07
-1.57142e-07
-1.4822e-07
-1.31784e-07
-1.35467e-07
-1.08547e-07
-1.21845e-07
-8.75531e-08
-1.07576e-07
-6.88895e-08
-9.29064e-08
-5.26043e-08
-7.81121e-08
-3.87052e-08
-6.34969e-08
-2.71577e-08
-4.9395e-08
-1.78843e-08
-3.61738e-08
-1.07643e-08
-2.42366e-08
-5.6349e-09
-1.40268e-08
-2.29388e-09
-6.03065e-09
-5.03811e-10
-7.81209e-10
1.10532e-09
-1.78415e-09
6.08415e-09
-6.91342e-09
2.07032e-08
-1.5191e-08
3.68448e-08
-2.64334e-08
5.37895e-08
-4.04619e-08
7.09787e-08
-5.70983e-08
8.79613e-08
-7.61618e-08
1.04382e-07
-9.74686e-08
1.19971e-07
-1.20831e-07
1.34528e-07
-1.4606e-07
1.47915e-07
-1.72962e-07
1.6004e-07
-2.01347e-07
1.7085e-07
-2.31022e-07
1.80321e-07
-2.61796e-07
1.88452e-07
-2.93484e-07
1.95258e-07
-3.25899e-07
2.00763e-07
-3.5886e-07
2.04999e-07
-3.92189e-07
2.08002e-07
-4.25713e-07
2.09805e-07
-4.59258e-07
2.10443e-07
-4.92659e-07
2.09945e-07
-5.25747e-07
2.08339e-07
-5.58362e-07
2.05648e-07
-5.9034e-07
2.01892e-07
-6.21524e-07
1.97086e-07
-6.51755e-07
1.91245e-07
-6.80878e-07
1.8438e-07
-7.08739e-07
1.76502e-07
-7.35186e-07
1.67625e-07
-7.60069e-07
1.57761e-07
-7.83243e-07
1.46928e-07
-8.04564e-07
1.35148e-07
-8.23895e-07
1.22448e-07
-8.41103e-07
1.08861e-07
-8.56063e-07
9.44314e-08
-8.68657e-07
7.92086e-08
-8.78776e-07
6.32535e-08
-8.86324e-07
4.6637e-08
-8.91214e-07
2.94404e-08
-8.93374e-07
1.17559e-08
-8.92748e-07
-6.31332e-09
-8.89294e-07
-2.46536e-08
-8.8299e-07
-4.31413e-08
-8.73833e-07
-6.16431e-08
-8.61838e-07
-8.00174e-08
-8.47044e-07
-9.81156e-08
-8.29511e-07
-1.15783e-07
-8.09321e-07
-1.32861e-07
-7.8658e-07
-1.49188e-07
-7.61416e-07
-1.64604e-07
-7.33983e-07
-1.78949e-07
-7.04454e-07
-1.9207e-07
-6.73026e-07
-2.03817e-07
-6.39916e-07
-2.14054e-07
-6.0536e-07
-2.22653e-07
-5.6961e-07
-2.29503e-07
-5.32935e-07
-2.3451e-07
-4.95615e-07
-2.37596e-07
-4.5794e-07
-2.38709e-07
-4.20205e-07
-2.37817e-07
-3.82708e-07
-2.34914e-07
-3.45746e-07
-2.3002e-07
-3.09612e-07
-2.23183e-07
-2.74587e-07
-2.1448e-07
-2.4094e-07
-2.04017e-07
-2.08923e-07
-1.91928e-07
-1.78764e-07
-1.78379e-07
-1.50668e-07
-1.63563e-07
-1.24808e-07
-1.47705e-07
-1.01324e-07
-1.31059e-07
-8.03213e-08
-1.13909e-07
-6.18647e-08
-9.65688e-08
-4.59784e-08
-7.93832e-08
-3.26442e-08
-6.27292e-08
-2.1801e-08
-4.70169e-08
-1.33456e-08
-3.26921e-08
-7.13375e-09
-2.02387e-08
-2.98447e-09
-1.01799e-08
-6.85035e-10
-3.08066e-09
4.20286e-10
-2.0286e-09
8.11276e-09
-7.82398e-09
2.64986e-08
-1.71256e-08
4.61464e-08
-2.96922e-08
6.6356e-08
-4.5294e-08
8.65805e-08
-6.37087e-08
1.06376e-07
-8.47183e-08
1.25392e-07
-1.08107e-07
1.4336e-07
-1.33662e-07
1.60083e-07
-1.61172e-07
1.75424e-07
-1.90425e-07
1.89293e-07
-2.21215e-07
2.0164e-07
-2.53338e-07
2.12443e-07
-2.86591e-07
2.21705e-07
-3.20777e-07
2.29444e-07
-3.55702e-07
2.35688e-07
-3.91177e-07
2.40474e-07
-4.27015e-07
2.4384e-07
-4.63035e-07
2.45825e-07
-4.99057e-07
2.46465e-07
-5.34906e-07
2.45794e-07
-5.70408e-07
2.43841e-07
-6.05392e-07
2.40633e-07
-6.3969e-07
2.3619e-07
-6.73135e-07
2.30531e-07
-7.0556e-07
2.2367e-07
-7.36803e-07
2.15623e-07
-7.66701e-07
2.06401e-07
-7.95095e-07
1.96018e-07
-8.21827e-07
1.84492e-07
-8.46742e-07
1.71843e-07
-8.6969e-07
1.58096e-07
-8.90525e-07
1.43283e-07
-9.09107e-07
1.27443e-07
-9.25302e-07
1.10627e-07
-9.38987e-07
9.28929e-08
-9.50044e-07
7.43109e-08
-9.5837e-07
5.49628e-08
-9.63872e-07
3.49424e-08
-9.66472e-07
1.43559e-08
-9.66107e-07
-6.67802e-09
-9.62732e-07
-2.80288e-08
-9.56319e-07
-4.95542e-08
-9.46861e-07
-7.11014e-08
-9.34371e-07
-9.25075e-08
-9.18884e-07
-1.13602e-07
-9.00461e-07
-1.34206e-07
-8.79183e-07
-1.54139e-07
-8.55157e-07
-1.73214e-07
-8.28515e-07
-1.91246e-07
-7.99413e-07
-2.08051e-07
-7.68031e-07
-2.23451e-07
-7.34572e-07
-2.37275e-07
-6.99263e-07
-2.49363e-07
-6.6235e-07
-2.59566e-07
-6.24098e-07
-2.67756e-07
-5.84788e-07
-2.73819e-07
-5.44717e-07
-2.77667e-07
-5.04191e-07
-2.79235e-07
-4.63525e-07
-2.78484e-07
-4.23035e-07
-2.75403e-07
-3.83039e-07
-2.70015e-07
-3.43851e-07
-2.62371e-07
-3.05775e-07
-2.52557e-07
-2.69101e-07
-2.4069e-07
-2.34104e-07
-2.26925e-07
-2.01036e-07
-2.11447e-07
-1.7012e-07
-1.94478e-07
-1.41554e-07
-1.76272e-07
-1.15497e-07
-1.57116e-07
-9.20743e-08
-1.37332e-07
-7.13704e-08
-1.17273e-07
-5.34282e-08
-9.73254e-08
-3.8248e-08
-7.79094e-08
-2.57869e-08
-5.9478e-08
-1.59601e-08
-4.25189e-08
-8.64272e-09
-2.7556e-08
-3.67412e-09
-1.51485e-08
-8.63708e-10
-5.89108e-09
-4.43407e-10
-2.26495e-09
1.03777e-08
-8.70791e-09
3.29415e-08
-1.90091e-08
5.64476e-08
-3.28725e-08
8.02195e-08
-5.00194e-08
1.03727e-07
-7.01841e-08
1.26541e-07
-9.31114e-08
1.48319e-07
-1.18554e-07
1.68802e-07
-1.46272e-07
1.87801e-07
-1.76031e-07
2.05183e-07
-2.07602e-07
2.20865e-07
-2.40762e-07
2.348e-07
-2.75293e-07
2.46974e-07
-3.10982e-07
2.57395e-07
-3.47623e-07
2.66084e-07
-3.85012e-07
2.73077e-07
-4.22951e-07
2.78414e-07
-4.61248e-07
2.82137e-07
-4.99713e-07
2.8429e-07
-5.3816e-07
2.84912e-07
-5.76407e-07
2.84041e-07
-6.14274e-07
2.81708e-07
-6.51584e-07
2.77942e-07
-6.88161e-07
2.72767e-07
-7.2383e-07
2.662e-07
-7.58421e-07
2.58261e-07
-7.91761e-07
2.48962e-07
-8.23681e-07
2.38321e-07
-8.54015e-07
2.26352e-07
-8.82596e-07
2.13074e-07
-9.09265e-07
1.98512e-07
-9.33862e-07
1.82693e-07
-9.56233e-07
1.65654e-07
-9.76232e-07
1.47442e-07
-9.93717e-07
1.28112e-07
-1.00856e-06
1.07731e-07
-1.02062e-06
8.63798e-08
-1.02981e-06
6.41502e-08
-1.03602e-06
4.11489e-08
-1.03916e-06
1.74964e-08
-1.03916e-06
-6.67305e-09
-1.03598e-06
-3.12114e-08
-1.02958e-06
-5.59575e-08
-1.01994e-06
-8.07381e-08
-1.00708e-06
-1.05369e-07
-9.91026e-07
-1.29656e-07
-9.71835e-07
-1.53397e-07
-9.49589e-07
-1.76385e-07
-9.24394e-07
-1.98409e-07
-8.96382e-07
-2.19258e-07
-8.65712e-07
-2.38722e-07
-8.32567e-07
-2.56596e-07
-7.97158e-07
-2.72685e-07
-7.59717e-07
-2.86804e-07
-7.205e-07
-2.98783e-07
-6.79784e-07
-3.08472e-07
-6.37863e-07
-3.15739e-07
-5.9505e-07
-3.20481e-07
-5.51667e-07
-3.22618e-07
-5.08047e-07
-3.22104e-07
-4.64527e-07
-3.18923e-07
-4.21448e-07
-3.13095e-07
-3.79144e-07
-3.04675e-07
-3.37944e-07
-2.93757e-07
-2.98162e-07
-2.80472e-07
-2.60096e-07
-2.6499e-07
-2.24023e-07
-2.4752e-07
-1.90192e-07
-2.28309e-07
-1.58822e-07
-2.07642e-07
-1.30097e-07
-1.85841e-07
-1.04165e-07
-1.63264e-07
-8.11311e-08
-1.40307e-07
-6.10596e-08
-1.17397e-07
-4.39711e-08
-9.49979e-08
-2.98424e-08
-7.36067e-08
-1.8608e-08
-5.37534e-08
-1.01622e-08
-3.60019e-08
-4.3634e-09
-2.09473e-08
-1.04025e-09
-9.21423e-09
-1.48365e-09
-2.49354e-09
1.28713e-08
-9.56523e-09
4.00132e-08
-2.084e-08
6.77224e-08
-3.59701e-08
9.53495e-08
-5.46295e-08
1.22387e-07
-7.65107e-08
1.48422e-07
-1.01322e-07
1.7313e-07
-1.28784e-07
1.96264e-07
-1.5863e-07
2.17647e-07
-1.90603e-07
2.37156e-07
-2.24455e-07
2.54717e-07
-2.59947e-07
2.70292e-07
-2.96847e-07
2.83875e-07
-3.34932e-07
2.95479e-07
-3.73984e-07
3.05136e-07
-4.13792e-07
3.12885e-07
-4.54151e-07
3.18773e-07
-4.94862e-07
3.22848e-07
-5.35728e-07
3.25156e-07
-5.76557e-07
3.25742e-07
-6.17162e-07
3.24646e-07
-6.57357e-07
3.21903e-07
-6.96958e-07
3.17544e-07
-7.35784e-07
3.11593e-07
-7.73655e-07
3.04071e-07
-8.10393e-07
2.94998e-07
-8.4582e-07
2.8439e-07
-8.79761e-07
2.72262e-07
-9.12041e-07
2.58633e-07
-9.4249e-07
2.43523e-07
-9.70938e-07
2.2696e-07
-9.9722e-07
2.08974e-07
-1.02118e-06
1.89609e-07
-1.04265e-06
1.68915e-07
-1.06149e-06
1.46954e-07
-1.07756e-06
1.23802e-07
-1.09073e-06
9.95481e-08
-1.10087e-06
7.42963e-08
-1.10789e-06
4.81655e-08
-1.11169e-06
2.12904e-08
-1.11218e-06
-6.17878e-09
-1.10931e-06
-3.40765e-08
-1.10305e-06
-6.22224e-08
-1.09337e-06
-9.04223e-08
-1.08026e-06
-1.18469e-07
-1.06377e-06
-1.46146e-07
-1.04394e-06
-1.73226e-07
-1.02085e-06
-1.99476e-07
-9.94606e-07
-2.24657e-07
-9.65333e-07
-2.48531e-07
-9.33193e-07
-2.70862e-07
-8.98372e-07
-2.91416e-07
-8.61086e-07
-3.09972e-07
-8.21572e-07
-3.26318e-07
-7.80096e-07
-3.4026e-07
-7.36944e-07
-3.51624e-07
-6.92424e-07
-3.60259e-07
-6.46863e-07
-3.66042e-07
-6.00601e-07
-3.6888e-07
-5.53989e-07
-3.68716e-07
-5.07387e-07
-3.65525e-07
-4.61156e-07
-3.59326e-07
-4.15656e-07
-3.50175e-07
-3.7124e-07
-3.38173e-07
-3.28249e-07
-3.23463e-07
-2.87009e-07
-3.06231e-07
-2.47821e-07
-2.86708e-07
-2.10962e-07
-2.65168e-07
-1.76677e-07
-2.41926e-07
-1.45177e-07
-2.17341e-07
-1.16634e-07
-1.91807e-07
-9.11781e-08
-1.65763e-07
-6.88962e-08
-1.39679e-07
-4.98309e-08
-1.14063e-07
-3.398e-08
-8.94575e-08
-2.12979e-08
-6.64355e-08
-1.16977e-08
-4.56021e-08
-5.05536e-09
-2.75896e-08
-1.21573e-09
-1.30538e-08
-2.69939e-09
-2.71466e-09
1.55859e-08
-1.03963e-08
4.76948e-08
-2.26177e-08
7.99438e-08
-3.89822e-08
1.11714e-07
-5.91186e-08
1.42523e-07
-8.2679e-08
1.71982e-07
-1.09335e-07
1.99786e-07
-1.38778e-07
2.25707e-07
-1.70713e-07
2.49582e-07
-2.0486e-07
2.71303e-07
-2.40953e-07
2.90809e-07
-2.78736e-07
3.08075e-07
-3.17965e-07
3.23103e-07
-3.58403e-07
3.35918e-07
-3.99825e-07
3.46558e-07
-4.42011e-07
3.55071e-07
-4.84749e-07
3.61511e-07
-5.27832e-07
3.65931e-07
-5.71059e-07
3.68383e-07
-6.14234e-07
3.68916e-07
-6.57163e-07
3.67574e-07
-6.99655e-07
3.64395e-07
-7.41522e-07
3.5941e-07
-7.82577e-07
3.52648e-07
-8.22636e-07
3.4413e-07
-8.61515e-07
3.33877e-07
-8.9903e-07
3.21905e-07
-9.35001e-07
3.08233e-07
-9.69248e-07
2.92879e-07
-1.00159e-06
2.75867e-07
-1.03186e-06
2.57226e-07
-1.05987e-06
2.3699e-07
-1.08547e-06
2.15207e-07
-1.10849e-06
1.91931e-07
-1.12877e-06
1.67233e-07
-1.14616e-06
1.41195e-07
-1.16053e-06
1.13916e-07
-1.17174e-06
8.55106e-08
-1.17969e-06
5.61099e-08
-1.18426e-06
2.58629e-08
-1.18538e-06
-5.06428e-09
-1.18296e-06
-3.64885e-08
-1.17698e-06
-6.82099e-08
-1.16738e-06
-1.00013e-07
-1.15418e-06
-1.31669e-07
-1.1374e-06
-1.62936e-07
-1.11706e-06
-1.9356e-07
-1.09325e-06
-2.23282e-07
-1.06608e-06
-2.51836e-07
-1.03565e-06