/*--------------------------------*- C++ -*----------------------------------*\
  =========                 |
  \\      /  F ield         | OpenFOAM: The Open Source CFD Toolbox
   \\    /   O peration     | Website:  https://openfoam.org
    \\  /    A nd           | Version:  7
     \\/     M anipulation  |
\*---------------------------------------------------------------------------*/
FoamFile
{
    version     2.0;
    format      ascii;
    class       surfaceScalarField;
    location    "0.7";
    object      phi;
}
// * * * * * * * * * * * * * * * * * * * * * * * * * * * * * * * * * * * * * //

dimensions      [0 3 -1 0 0 0 0];

internalField   nonuniform List<scalar> 
12640
(
2.51522e-10
-2.51695e-10
4.6041e-10
-2.08892e-10
3.85403e-10
7.50184e-11
-3.10115e-11
4.16399e-10
-7.76676e-10
7.45664e-10
-1.81333e-09
1.03667e-09
-3.09107e-09
1.27776e-09
-4.56066e-09
1.4696e-09
-6.17803e-09
1.61737e-09
-7.90574e-09
1.72771e-09
-9.71314e-09
1.80739e-09
-1.15759e-08
1.86272e-09
-1.3475e-08
1.89919e-09
-1.53964e-08
1.92135e-09
-1.73291e-08
1.93271e-09
-1.9265e-08
1.93588e-09
-2.11977e-08
1.93267e-09
-2.31218e-08
1.92414e-09
-2.50326e-08
1.91076e-09
-2.6925e-08
1.89247e-09
-2.87939e-08
1.86884e-09
-3.0633e-08
1.83913e-09
-3.24354e-08
1.80241e-09
-3.4193e-08
1.7576e-09
-3.58966e-08
1.70356e-09
-3.75357e-08
1.63914e-09
-3.9099e-08
1.56326e-09
-4.05739e-08
1.47489e-09
-4.1947e-08
1.37314e-09
-4.32043e-08
1.25727e-09
-4.4331e-08
1.12675e-09
-4.53123e-08
9.81277e-10
-4.61331e-08
8.20791e-10
-4.67786e-08
6.45504e-10
-4.72345e-08
4.55933e-10
-4.74874e-08
2.5292e-10
-4.75251e-08
3.76676e-11
-4.73367e-08
-1.88409e-10
-4.69133e-08
-4.23333e-10
-4.62484e-08
-6.64895e-10
-4.53379e-08
-9.10511e-10
-4.41806e-08
-1.15727e-09
-4.27787e-08
-1.40197e-09
-4.11375e-08
-1.64114e-09
-3.92664e-08
-1.87113e-09
-3.71782e-08
-2.08816e-09
-3.48898e-08
-2.28842e-09
-3.24217e-08
-2.46817e-09
-2.97978e-08
-2.62384e-09
-2.70457e-08
-2.75211e-09
-2.41957e-08
-2.85008e-09
-2.12803e-08
-2.91532e-09
-1.83343e-08
-2.94599e-09
-1.53934e-08
-2.94091e-09
-1.24938e-08
-2.89963e-09
-9.67137e-09
-2.82245e-09
-6.96097e-09
-2.71041e-09
-4.39566e-09
-2.56531e-09
-2.00604e-09
-2.38962e-09
1.80439e-10
-2.18648e-09
2.14035e-09
-1.95991e-09
3.85342e-09
-1.71308e-09
5.30452e-09
-1.45109e-09
6.48284e-09
-1.17831e-09
7.38228e-09
-8.99439e-10
8.00146e-09
-6.19183e-10
8.34371e-09
-3.4226e-10
8.41712e-09
-7.3399e-11
8.23446e-09
1.82677e-10
7.81352e-09
4.20945e-10
7.17746e-09
6.36064e-10
6.35556e-09
8.21905e-10
5.38443e-09
9.71134e-10
4.30989e-09
1.07454e-09
3.1897e-09
1.12019e-09
2.09702e-09
1.09268e-09
1.12388e-09
9.73152e-10
3.83647e-10
7.40234e-10
2.07167e-12
3.81575e-10
2.08221e-12
2.09473e-10
-4.61172e-10
8.8803e-11
-8.82277e-11
-6.85479e-10
8.49329e-10
-2.23297e-09
1.96393e-09
-4.55135e-09
3.06402e-09
-7.57164e-09
4.05694e-09
-1.11975e-08
4.9036e-09
-1.53245e-08
5.5966e-09
-1.98523e-08
6.14518e-09
-2.46908e-08
6.5662e-09
-2.97626e-08
6.8792e-09
-3.50034e-08
7.10356e-09
-4.03611e-08
7.25685e-09
-4.57938e-08
7.35407e-09
-5.12685e-08
7.40732e-09
-5.67584e-08
7.42577e-09
-6.22416e-08
7.41591e-09
-6.76993e-08
7.38178e-09
-7.31138e-08
7.32533e-09
-7.84681e-08
7.24676e-09
-8.37442e-08
7.14486e-09
-8.89225e-08
7.0174e-09
-9.39814e-08
6.86135e-09
-9.8897e-08
6.67321e-09
-1.03643e-07
6.44924e-09
-1.08189e-07
6.18567e-09
-1.12505e-07
5.8789e-09
-1.16556e-07
5.52563e-09
-1.20306e-07
5.12304e-09
-1.23717e-07
4.66892e-09
-1.26752e-07
4.16177e-09
-1.29372e-07
3.60091e-09
-1.31538e-07
2.98656e-09
-1.33212e-07
2.31995e-09
-1.34359e-07
1.60339e-09
-1.34947e-07
8.40275e-10
-1.34945e-07
3.54212e-11
-1.34327e-07
-8.0592e-10
-1.33074e-07
-1.6762e-09
-1.31172e-07
-2.56738e-09
-1.28612e-07
-3.47005e-09
-1.25396e-07
-4.37378e-09
-1.2153e-07
-5.26712e-09
-1.17034e-07
-6.13787e-09
-1.11932e-07
-6.97318e-09
-1.0626e-07
-7.75992e-09
-1.00063e-07
-8.48486e-09
-9.33966e-08
-9.13506e-09
-8.63222e-08
-9.6982e-09
-7.89114e-08
-1.01629e-08
-7.12422e-08
-1.05193e-08
-6.33987e-08
-1.07589e-08
-5.54693e-08
-1.08754e-08
-4.75455e-08
-1.08647e-08
-3.97199e-08
-1.07253e-08
-3.20844e-08
-1.04579e-08
-2.47286e-08
-1.00662e-08
-1.77377e-08
-9.55619e-09
-1.11911e-08
-8.93627e-09
-5.16041e-09
-8.21712e-09
2.90984e-10
-7.41131e-09
5.11097e-09
-6.53307e-09
9.25701e-09
-5.59713e-09
1.26989e-08
-4.62016e-09
1.54182e-08
-3.61881e-09
1.74092e-08
-2.61015e-09
1.86785e-08
-1.6115e-09
1.92454e-08
-6.40383e-10
1.91429e-08
2.85247e-10
1.84171e-08
1.14671e-09
1.71294e-08
1.9238e-09
1.53572e-08
2.59413e-09
1.31964e-08
3.13186e-09
1.07645e-08
3.50645e-09
8.20329e-09
3.68142e-09
5.68176e-09
3.61422e-09
3.39561e-09
3.25931e-09
1.55891e-09
2.57694e-09
3.7747e-10
1.56303e-09
3.79551e-10
-7.31575e-11
-3.88002e-10
-8.68003e-10
7.06572e-10
-2.6707e-09
2.65204e-09
-5.57958e-09
4.87283e-09
-9.57957e-09
7.06404e-09
-1.45835e-08
9.06091e-09
-2.04668e-08
1.07869e-08
-2.70911e-08
1.22209e-08
-3.43197e-08
1.33738e-08
-4.20263e-08
1.42728e-08
-5.00995e-08
1.49523e-08
-5.84438e-08
1.54479e-08
-6.69797e-08
1.57928e-08
-7.56416e-08
1.60159e-08
-8.43755e-08
1.61412e-08
-9.31366e-08
1.61869e-08
-1.01887e-07
1.61664e-08
-1.10593e-07
1.6088e-08
-1.19224e-07
1.59561e-08
-1.27749e-07
1.57715e-08
-1.36136e-07
1.5532e-08
-1.44352e-07
1.52335e-08
-1.52361e-07
1.48703e-08
-1.60124e-07
1.44357e-08
-1.67597e-07
1.39223e-08
-1.74734e-07
1.3323e-08
-1.81486e-07
1.26308e-08
-1.878e-07
1.18396e-08
-1.93621e-07
1.09441e-08
-1.98892e-07
9.94043e-09
-2.03557e-07
8.82618e-09
-2.07557e-07
7.60064e-09
-2.10835e-07
6.26502e-09
-2.13338e-07
4.82258e-09
-2.15013e-07
3.27876e-09
-2.15814e-07
1.64127e-09
-2.15699e-07
-7.94725e-11
-2.14633e-07
-1.87179e-09
-2.12589e-07
-3.71996e-09
-2.0955e-07
-5.60698e-09
-2.05507e-07
-7.5133e-09
-2.00463e-07
-9.41727e-09
-1.94435e-07
-1.12954e-08
-1.8745e-07
-1.31228e-08
-1.7955e-07
-1.48732e-08
-1.7079e-07
-1.65201e-08
-1.61238e-07
-1.80367e-08
-1.50976e-07
-1.93969e-08
-1.40098e-07
-2.05758e-08
-1.28711e-07
-2.15506e-08
-1.16929e-07
-2.23011e-08
-1.04877e-07
-2.28105e-08
-9.26866e-08
-2.3066e-08
-8.04923e-08
-2.30591e-08
-6.84311e-08
-2.27864e-08
-5.66397e-08
-2.22494e-08
-4.52509e-08
-2.1455e-08
-3.43921e-08
-2.0415e-08
-2.41821e-08
-1.91462e-08
-1.47293e-08
-1.76699e-08
-6.12936e-09
-1.60113e-08
1.53639e-09
-1.41988e-08
8.20292e-09
-1.22637e-08
1.38217e-08
-1.0239e-08
1.83624e-08
-8.1595e-09
2.18132e-08
-6.06091e-09
2.41813e-08
-3.97961e-09
2.54937e-08
-1.95272e-09
2.57974e-08
-1.84472e-11
2.51605e-08
1.78358e-09
2.36735e-08
3.41078e-09
2.14508e-08
4.81684e-09
1.86328e-08
5.94985e-09
1.53885e-08
6.75083e-09
1.19171e-08
7.15282e-09
8.44904e-09
7.08225e-09
5.24302e-09
6.46533e-09
2.57716e-09
5.2428e-09
7.33993e-10
3.40621e-09
1.11354e-09
-4.37691e-10
4.97119e-11
-2.0778e-09
2.34667e-09
-5.08701e-09
5.66122e-09
-9.50319e-09
9.28899e-09
-1.52729e-08
1.28338e-08
-2.2281e-08
1.6069e-08
-3.03776e-08
1.88835e-08
-3.93994e-08
2.12427e-08
-4.9184e-08
2.31583e-08
-5.95794e-08
2.46682e-08
-7.04494e-08
2.58223e-08
-8.16752e-08
2.66737e-08
-9.31554e-08
2.7273e-08
-1.04805e-07
2.76651e-08
-1.16551e-07
2.78873e-08
-1.28333e-07
2.79688e-08
-1.40097e-07
2.79307e-08
-1.51796e-07
2.77869e-08
-1.63384e-07
2.75445e-08
-1.74818e-07
2.7205e-08
-1.86051e-07
2.67658e-08
-1.97038e-07
2.62203e-08
-2.07728e-07
2.55598e-08
-2.18066e-07
2.47738e-08
-2.27995e-07
2.38513e-08
-2.37453e-07
2.2781e-08
-2.46375e-07
2.15525e-08
-2.54691e-07
2.01564e-08
-2.62333e-07
1.85853e-08
-2.69226e-07
1.68335e-08
-2.75298e-07
1.48984e-08
-2.80477e-07
1.27797e-08
-2.84692e-07
1.04805e-08
-2.87877e-07
8.00729e-09
-2.89968e-07
5.36996e-09
-2.90909e-07
2.58212e-09
-2.9065e-07
-3.38693e-10
-2.8915e-07
-3.37165e-09
-2.86379e-07
-6.49132e-09
-2.82317e-07
-9.66907e-09
-2.76957e-07
-1.28726e-08
-2.70308e-07
-1.60664e-08
-2.62392e-07
-1.9212e-08
-2.53246e-07
-2.22688e-08
-2.42924e-07
-2.51944e-08
-2.31499e-07
-2.79455e-08
-2.19057e-07
-3.04788e-08
-2.05702e-07
-3.2752e-08
-1.91552e-07
-3.47251e-08
-1.76742e-07
-3.63608e-08
-1.61417e-07
-3.76266e-08
-1.45732e-07
-3.8495e-08
-1.29853e-07
-3.89449e-08
-1.1395e-07
-3.89624e-08
-9.81952e-08
-3.85412e-08
-8.27611e-08
-3.76836e-08
-6.78163e-08
-3.63998e-08
-5.35228e-08
-3.47085e-08
-4.00327e-08
-3.26363e-08
-2.74852e-08
-3.02174e-08
-1.60043e-08
-2.74922e-08
-5.69616e-09
-2.4507e-08
3.3528e-09
-2.13126e-08
1.10775e-08
-1.79636e-08
1.74353e-08
-1.45173e-08
2.24073e-08
-1.1033e-08
2.59993e-08
-7.57155e-09
2.82419e-08
-4.19533e-09
2.9192e-08
-9.68498e-10
2.89333e-08
2.04229e-09
2.75776e-08
4.76649e-09
2.52662e-08
7.12818e-09
2.21718e-08
9.04426e-09
1.84997e-08
1.0423e-08
1.44889e-08
1.11636e-08
1.04124e-08
1.11588e-08
6.57465e-09
1.0303e-08
3.30886e-09
8.50861e-09
9.76564e-10
5.7385e-09
2.0901e-09
-8.21777e-10
8.71504e-10
-3.37558e-09
4.90047e-09
-7.6794e-09
9.96502e-09
-1.36819e-08
1.52915e-08
-2.12715e-08
2.04234e-08
-3.02943e-08
2.50918e-08
-4.05718e-08
2.9161e-08
-5.19172e-08
3.2588e-08
-6.41472e-08
3.53883e-08
-7.70904e-08
3.76115e-08
-9.05919e-08
3.93238e-08
-1.04515e-07
4.05968e-08
-1.18741e-07
4.14995e-08
-1.3317e-07
4.20933e-08
-1.47712e-07
4.243e-08
-1.62294e-07
4.25502e-08
-1.76847e-07
4.24837e-08
-1.9131e-07
4.22501e-08
-2.05625e-07
4.18597e-08
-2.19735e-07
4.1315e-08
-2.33581e-07
4.06123e-08
-2.47104e-07
3.9743e-08
-2.60239e-07
3.8695e-08
-2.72919e-07
3.7454e-08
-2.85073e-07
3.6005e-08
-2.96625e-07
3.43327e-08
-3.07496e-07
3.24232e-08
-3.17603e-07
3.02642e-08
-3.26864e-07
2.78462e-08
-3.35193e-07
2.51626e-08
-3.42506e-07
2.22106e-08
-3.48718e-07
1.89918e-08
-3.53749e-07
1.55118e-08
-3.57523e-07
1.17814e-08
-3.59969e-07
7.81618e-09
-3.61024e-07
3.63694e-09
-3.60633e-07
-7.3008e-10
-3.58751e-07
-5.25361e-09
-3.55346e-07
-9.89661e-09
-3.50397e-07
-1.46172e-08
-3.43902e-07
-1.93684e-08
-3.35869e-07
-2.4099e-08
-3.26328e-07
-2.87534e-08
-3.15323e-07
-3.32733e-08
-3.0292e-07
-3.75976e-08
-2.89201e-07
-4.16642e-08
-2.74269e-07
-4.54111e-08
-2.58244e-07
-4.87774e-08
-2.41263e-07
-5.17053e-08
-2.23483e-07
-5.41414e-08
-2.05071e-07
-5.60382e-08
-1.8621e-07
-5.73558e-08
-1.67092e-07
-5.80633e-08
-1.47915e-07
-5.81397e-08
-1.28881e-07
-5.75752e-08
-1.10193e-07
-5.63717e-08
-9.20494e-08
-5.4543e-08
-7.46429e-08
-5.2115e-08
-5.81542e-08
-4.91251e-08
-4.27501e-08
-4.56215e-08
-2.858e-08
-4.16623e-08
-1.57731e-08
-3.73139e-08
-4.43574e-09
-3.26499e-08
5.35047e-09
-2.77498e-08
1.35306e-08
-2.26974e-08
2.00774e-08
-1.75798e-08
2.49929e-08
-1.24871e-08
2.83089e-08
-7.51134e-09
3.00881e-08
-2.74762e-09
3.04246e-08
1.70572e-09
2.94457e-08
5.74544e-09
2.7312e-08
9.26182e-09
2.42196e-08
1.21367e-08
2.04001e-08
1.42425e-08
1.61222e-08
1.54414e-08
1.16916e-08
1.55894e-08
7.45148e-09
1.45432e-08
3.78507e-09
1.2175e-08
1.12597e-09
8.39759e-09
3.21608e-09
-1.20136e-09
2.07285e-09
-4.67972e-09
8.37883e-09
-1.03042e-08
1.55895e-08
-1.79196e-08
2.29068e-08
-2.73433e-08
2.98471e-08
-3.83728e-08
3.61213e-08
-5.07957e-08
4.1584e-08
-6.44004e-08
4.61927e-08
-7.89839e-08
4.99718e-08
-9.4358e-08
5.29856e-08
-1.10353e-07
5.53185e-08
-1.26817e-07
5.70616e-08
-1.43621e-07
5.83026e-08
-1.60647e-07
5.91202e-08
-1.77798e-07
5.95808e-08
-1.94985e-07
5.97369e-08
-2.12128e-07
5.9627e-08
-2.29155e-07
5.92764e-08
-2.45994e-07
5.86987e-08
-2.62576e-07
5.78974e-08
-2.78832e-07
5.68678e-08
-2.94688e-07
5.55989e-08
-3.10068e-07
5.40755e-08
-3.24894e-07
5.22795e-08
-3.3908e-07
5.01918e-08
-3.52541e-07
4.77936e-08
-3.65186e-07
4.50676e-08
-3.76921e-07
4.19992e-08
-3.87652e-07
3.85772e-08
-3.97284e-07
3.47948e-08
-4.05723e-07
3.06501e-08
-4.12878e-07
2.61468e-08
-4.18661e-07
2.12943e-08
-4.22988e-07
1.61085e-08
-4.25783e-07
1.06115e-08
-4.26979e-07
4.83256e-09
-4.26516e-07
-1.19261e-09
-4.24349e-07
-7.42131e-09
-4.20441e-07
-1.38038e-08
-4.14775e-07
-2.02838e-08
-4.07344e-07
-2.67987e-08
-3.98163e-07
-3.32801e-08
-3.87263e-07
-3.96541e-08
-3.74693e-07
-4.58431e-08
-3.60525e-07
-5.17658e-08
-3.44849e-07
-5.73395e-08
-3.27779e-07
-6.24814e-08
-3.09446e-07
-6.71101e-08
-2.90004e-07
-7.11481e-08
-2.69622e-07
-7.45233e-08
-2.48489e-07
-7.71714e-08
-2.26806e-07
-7.9038e-08
-2.04789e-07
-8.00803e-08
-1.8266e-07
-8.02686e-08
-1.60648e-07
-7.9588e-08
-1.3898e-07
-7.80391e-08
-1.17885e-07
-7.56387e-08
-9.75798e-08
-7.24197e-08
-7.82741e-08
-6.84308e-08
-6.01604e-08
-6.37352e-08
-4.34128e-08
-5.84099e-08
-2.8183e-08
-5.25438e-08
-1.45971e-08
-4.62358e-08
-2.75363e-09
-3.95933e-08
7.27901e-09
-3.273e-08
1.54641e-08
-2.57649e-08
2.17979e-08
-1.88209e-08
2.6311e-08
-1.20244e-08
2.90685e-08
-5.50518e-09
3.01718e-08
6.0244e-10
2.97585e-08
6.15871e-09
2.80039e-08
1.10165e-08
2.51213e-08
1.50193e-08
2.13633e-08
1.80005e-08
1.70223e-08
1.97824e-08
1.24321e-08
2.01796e-08
7.97045e-09
1.90049e-08
4.06528e-09
1.60802e-08
1.20967e-09
1.12532e-08
4.42576e-09
-1.56463e-09
3.63746e-09
-5.95027e-09
1.27645e-08
-1.28833e-08
2.25225e-08
-2.21011e-08
3.21247e-08
-3.33434e-08
4.10894e-08
-4.63522e-08
4.91301e-08
-6.08766e-08
5.61084e-08
-7.66771e-08
6.19932e-08
-9.35305e-08
6.68252e-08
-1.11233e-07
7.06878e-08
-1.29601e-07
7.36865e-08
-1.48472e-07
7.59332e-08
-1.67705e-07
7.75352e-08
-1.87174e-07
7.8589e-08
-2.06769e-07
7.91757e-08
-2.26391e-07
7.93594e-08
-2.45952e-07
7.91874e-08
-2.65366e-07
7.86906e-08
-2.84553e-07
7.78857e-08
-3.03432e-07
7.67769e-08
-3.21923e-07
7.53587e-08
-3.39942e-07
7.36177e-08
-3.57402e-07
7.15356e-08
-3.74213e-07
6.90907e-08
-3.90282e-07
6.62602e-08
-4.0551e-07
6.30221e-08
-4.19799e-07
5.93563e-08
-4.33046e-07
5.52464e-08
-4.45149e-07
5.06804e-08
-4.56006e-07
4.56519e-08
-4.65517e-07
4.01605e-08
-4.73583e-07
3.42129e-08
-4.80111e-07
2.7823e-08
-4.85015e-07
2.10122e-08
-4.88214e-07
1.38101e-08
-4.89635e-07
6.25423e-09
-4.89219e-07
-1.60923e-09
-4.86914e-07
-9.72607e-09
-4.82684e-07
-1.80334e-08
-4.76508e-07
-2.64602e-08
-4.68379e-07
-3.49276e-08
-4.5831e-07
-4.33495e-08
-4.46331e-07
-5.16332e-08
-4.32494e-07
-5.96803e-08
-4.16871e-07
-6.73885e-08
-3.99557e-07
-7.46529e-08
-3.80671e-07
-8.13681e-08
-3.6035e-07
-8.74303e-08
-3.38759e-07
-9.27399e-08
-3.16078e-07
-9.72039e-08
-2.9251e-07
-1.00739e-07
-2.68276e-07
-1.03273e-07
-2.43607e-07
-1.04749e-07
-2.18749e-07
-1.05127e-07
-1.93953e-07
-1.04384e-07
-1.69475e-07
-1.02518e-07
-1.45565e-07
-9.95479e-08
-1.22472e-07
-9.55127e-08
-1.00431e-07
-9.04723e-08
-7.96605e-08
-8.45056e-08
-6.03606e-08
-7.77097e-08
-4.27066e-08
-7.01978e-08
-2.6846e-08
-6.20964e-08
-1.28956e-08
-5.35436e-08
-9.38936e-10
-4.46867e-08
8.97602e-09
-3.56799e-08
1.68379e-08
-2.66827e-08
2.26735e-08
-1.78599e-08
2.65485e-08
-9.38017e-09
2.85681e-08
-1.41724e-09
2.8878e-08
5.84885e-09
2.76643e-08
1.22301e-08
2.51548e-08
1.75288e-08
2.16196e-08
2.15357e-08
1.73721e-08
2.40299e-08
1.27717e-08
2.478e-08
8.22764e-09
2.35489e-08
4.20716e-09
2.01007e-08
1.2503e-09
1.42101e-08
5.67607e-09
-1.90886e-09
5.54632e-09
-7.17012e-09
1.80257e-08
-1.53775e-08
3.07299e-08
-2.61631e-08
4.29103e-08
-3.91863e-08
5.41126e-08
-5.41303e-08
6.40741e-08
-7.07018e-08
7.26799e-08
-8.86313e-08
7.99226e-08
-1.07674e-07
8.58676e-08
-1.27609e-07
9.06235e-08
-1.48243e-07
9.43201e-08
-1.69402e-07
9.70922e-08
-1.90935e-07
9.90683e-08
-2.12709e-07
1.00363e-07
-2.34604e-07
1.01071e-07
-2.56515e-07
1.0127e-07
-2.78343e-07
1.01015e-07
-2.99994e-07
1.00342e-07
-3.21379e-07
9.92706e-08
-3.42409e-07
9.7806e-08
-3.62991e-07
9.59413e-08
-3.83035e-07
9.36612e-08
-4.02443e-07
9.09443e-08
-4.21118e-07
8.77656e-08
-4.38957e-07
8.40993e-08
-4.55855e-07
7.99204e-08
-4.71706e-07
7.52071e-08
-4.86401e-07
6.99416e-08
-4.99833e-07
6.41119e-08
-5.11893e-07
5.77125e-08
-5.22479e-07
5.07455e-08
-5.31486e-07
4.32209e-08
-5.38821e-07
3.51572e-08
-5.44391e-07
2.6582e-08
-5.48112e-07
1.75318e-08
-5.49911e-07
8.05293e-09
-5.49721e-07
-1.79874e-09
-5.4749e-07
-1.19577e-08
-5.43175e-07
-2.23482e-08
-5.3675e-07
-3.28849e-08
-5.28205e-07
-4.3473e-08
-5.17546e-07
-5.40086e-08
-5.04799e-07
-6.43797e-08
-4.90012e-07
-7.44672e-08
-4.73255e-07
-8.41462e-08
-4.54619e-07
-9.32885e-08
-4.34223e-07
-1.01764e-07
-4.12208e-07
-1.09445e-07
-3.88742e-07
-1.16206e-07
-3.64014e-07
-1.21932e-07
-3.38237e-07
-1.26515e-07
-3.11646e-07
-1.29864e-07
-2.8449e-07
-1.31905e-07
-2.57035e-07
-1.32582e-07
-2.29556e-07
-1.31863e-07
-2.02332e-07
-1.29741e-07
-1.75645e-07
-1.26235e-07
-1.49769e-07
-1.21388e-07
-1.2497e-07
-1.15272e-07
-1.01496e-07
-1.0798e-07
-7.95747e-08
-9.9631e-08
-5.94081e-08
-9.03643e-08
-4.1168e-08
-8.03365e-08
-2.49922e-08
-6.97194e-08
-1.09819e-08
-5.8697e-08
8.00679e-10
-4.74625e-08
1.03347e-08
-3.62168e-08
1.7641e-08
-2.51662e-08
2.27835e-08
-1.45227e-08
2.58697e-08
-4.50344e-09
2.7051e-08
4.6676e-09
2.65229e-08
1.27582e-08
2.45261e-08
1.95256e-08
2.13467e-08
2.47151e-08
1.73183e-08
2.80583e-08
1.28245e-08
2.92738e-08
8.30378e-09
2.80696e-08
4.25802e-09
2.41464e-08
1.26497e-09
1.72032e-08
6.94103e-09
-2.23432e-09
7.78064e-09
-8.33348e-09
2.41248e-08
-1.77692e-08
4.01657e-08
-3.00728e-08
5.52138e-08
-4.48241e-08
6.88638e-08
-6.16462e-08
8.08962e-08
-8.02014e-08
9.12351e-08
-1.00188e-07
9.99095e-08
-1.21339e-07
1.07019e-07
-1.43418e-07
1.12703e-07
-1.66218e-07
1.1712e-07
-1.89557e-07
1.20431e-07
-2.13275e-07
1.22787e-07
-2.37233e-07
1.24321e-07
-2.61305e-07
1.25143e-07
-2.85377e-07
1.25343e-07
-3.09345e-07
1.24982e-07
-3.33106e-07
1.24104e-07
-3.56565e-07
1.22729e-07
-3.79624e-07
1.20865e-07
-4.02185e-07
1.18502e-07
-4.24147e-07
1.15624e-07
-4.45408e-07
1.12206e-07
-4.65863e-07
1.0822e-07
-4.85403e-07
1.0364e-07
-5.03919e-07
9.84361e-08
-5.21299e-07
9.25866e-08
-5.3743e-07
8.60731e-08
-5.52202e-07
7.88841e-08
-5.65506e-07
7.10158e-08
-5.77233e-07
6.24727e-08
-5.8728e-07
5.32685e-08
-5.9555e-07
4.34264e-08
-6.01947e-07
3.29792e-08
-6.06385e-07
2.19703e-08
-6.08786e-07
1.04534e-08
-6.09078e-07
-1.5066e-09
-6.07201e-07
-1.38344e-08
-6.03107e-07
-2.64424e-08
-5.9676e-07
-3.92322e-08
-5.88139e-07
-5.20939e-08
-5.77241e-07
-6.49067e-08
-5.64081e-07
-7.75392e-08
-5.48697e-07
-8.98514e-08
-5.31148e-07
-1.01695e-07
-5.11519e-07
-1.12917e-07
-4.89922e-07
-1.23362e-07
-4.66494e-07
-1.32872e-07
-4.41403e-07
-1.41297e-07
-4.14843e-07
-1.48492e-07
-3.87033e-07
-1.54325e-07
-3.5822e-07
-1.58678e-07
-3.28669e-07
-1.61455e-07
-2.98667e-07
-1.62584e-07
-2.68513e-07
-1.62017e-07
-2.38514e-07
-1.5974e-07
-2.08981e-07
-1.55768e-07
-1.80222e-07
-1.50147e-07
-1.52536e-07
-1.42958e-07
-1.26205e-07
-1.34311e-07
-1.0149e-07
-1.24346e-07
-7.86236e-08
-1.13231e-07
-5.78069e-08
-1.01153e-07
-3.92032e-08
-8.83231e-08
-2.29354e-08
-7.49648e-08
-9.08263e-09
-6.13152e-08
2.3209e-09
-4.76203e-08
1.12882e-08
-3.41335e-08
1.78794e-08
-2.11139e-08
2.22028e-08
-8.82683e-09
2.44145e-08
2.45589e-09
2.47189e-08
1.24538e-08
2.33688e-08
2.08757e-08
2.06667e-08
2.74172e-08
1.6966e-08
3.1759e-08
1.26744e-08
3.35654e-08
8.25868e-09
3.24853e-08
4.25224e-09
2.81529e-08
1.26538e-09
2.019e-08
8.20641e-09
-2.54213e-09
1.03228e-08
-9.43973e-09
3.10224e-08
-2.00521e-08
5.0778e-08
-3.38151e-08
6.89769e-08
-5.02319e-08
8.52806e-08
-6.88657e-08
9.95301e-08
-8.93342e-08
1.11704e-07
-1.11303e-07
1.21878e-07
-1.34482e-07
1.30197e-07
-1.58617e-07
1.36838e-07
-1.83489e-07
1.41992e-07
-2.08909e-07
1.45851e-07
-2.3471e-07
1.48588e-07
-2.60746e-07
1.50356e-07
-2.86886e-07
1.51283e-07
-3.13011e-07
1.51468e-07
-3.39011e-07
1.50982e-07
-3.64779e-07
1.49872e-07
-3.90212e-07
1.48163e-07
-4.15208e-07
1.4586e-07
-4.39663e-07
1.42956e-07
-4.63471e-07
1.39432e-07
-4.86525e-07
1.3526e-07
-5.08715e-07
1.30411e-07
-5.29931e-07
1.24855e-07
-5.50058e-07
1.18563e-07
-5.68984e-07
1.11513e-07
-5.86596e-07
1.03685e-07
-6.02781e-07
9.50696e-08
-6.1743e-07
8.5665e-08
-6.30436e-07
7.54782e-08
-6.41693e-07
6.45261e-08
-6.51102e-07
5.28356e-08
-6.58567e-07
4.04441e-08
-6.63997e-07
2.74e-08
-6.67307e-07
1.37629e-08
-6.68418e-07
-3.95545e-10
-6.6726e-07
-1.49925e-08
-6.63771e-07
-2.99305e-08
-6.57903e-07
-4.51002e-08
-6.49619e-07
-6.03781e-08
-6.38898e-07
-7.56277e-08
-6.25738e-07
-9.06993e-08
-6.10158e-07
-1.05432e-07
-5.922e-07
-1.19653e-07
-5.71935e-07
-1.33183e-07
-5.4946e-07
-1.45837e-07
-5.24905e-07
-1.57428e-07
-4.98429e-07
-1.67773e-07
-4.70227e-07
-1.76695e-07
-4.40523e-07
-1.84029e-07
-4.09571e-07
-1.89629e-07
-3.77655e-07
-1.93371e-07
-3.45081e-07
-1.95158e-07
-3.12175e-07
-1.94924e-07
-2.79274e-07
-1.92641e-07
-2.46726e-07
-1.88316e-07
-2.14876e-07
-1.81997e-07
-1.84062e-07
-1.73772e-07
-1.54607e-07
-1.63765e-07
-1.26812e-07
-1.52141e-07
-1.00949e-07
-1.39094e-07
-7.7253e-08
-1.24849e-07
-5.59197e-08
-1.09656e-07
-3.70989e-08
-9.37857e-08
-2.08919e-08
-7.75222e-08
-7.34944e-09
-6.11628e-08
3.53017e-09
-4.50131e-08
1.18015e-08
-2.93853e-08
1.75721e-08
-1.45974e-08
2.10022e-08
-9.74305e-10
2.23051e-08
1.11509e-08
2.17466e-08
2.14343e-08
1.96459e-08
2.95179e-08
1.63776e-08
3.50273e-08
1.23741e-08
3.75689e-08
8.13079e-09
3.67287e-08
4.21181e-09
3.20719e-08
1.25875e-09
2.31431e-08
9.46516e-09
-2.8336e-09
1.31564e-08
-1.04904e-08
3.86792e-08
-2.22253e-08
6.25129e-08
-3.73849e-08
8.41364e-08
-5.53987e-08
1.03294e-07
-7.57722e-08
1.19904e-07
-9.80787e-08
1.3401e-07
-1.21951e-07
1.45751e-07
-1.47075e-07
1.55321e-07
-1.73182e-07
1.62944e-07
-2.00039e-07
1.6885e-07
-2.27449e-07
1.73261e-07
-2.5524e-07
1.76379e-07
-2.83261e-07
1.78377e-07
-3.11376e-07
1.79399e-07
-3.39463e-07
1.79555e-07
-3.67407e-07
1.78926e-07
-3.95099e-07
1.77564e-07
-4.22432e-07
1.75495e-07
-4.49299e-07
1.72727e-07
-4.75593e-07
1.69251e-07
-5.01207e-07
1.65045e-07
-5.2603e-07
1.60083e-07
-5.49951e-07
1.54333e-07
-5.72859e-07
1.47763e-07
-5.94641e-07
1.40345e-07
-6.15185e-07
1.32056e-07
-6.34379e-07
1.22879e-07
-6.52113e-07
1.12804e-07
-6.6828e-07
1.01832e-07
-6.82773e-07
8.99711e-08
-6.95488e-07
7.72415e-08
-7.06325e-07
6.36721e-08
-7.15184e-07
4.93028e-08
-7.21968e-07
3.41844e-08
-7.26584e-07
1.83794e-08
-7.28943e-07
1.96299e-09
-7.28958e-07
-1.49769e-08
-7.26552e-07
-3.23371e-08
-7.21653e-07
-4.99995e-08
-7.142e-07
-6.78302e-08
-7.04149e-07
-8.56786e-08
-6.91471e-07
-1.03378e-07
-6.76158e-07
-1.20745e-07
-6.58226e-07
-1.37584e-07
-6.37721e-07
-1.53687e-07
-6.14721e-07
-1.68836e-07
-5.89338e-07
-1.82811e-07
-5.61721e-07
-1.9539e-07
-5.32056e-07
-2.06359e-07
-5.0057e-07
-2.15515e-07
-4.67525e-07
-2.22674e-07
-4.33219e-07
-2.27677e-07
-3.9798e-07
-2.30396e-07
-3.62164e-07
-2.3074e-07
-3.26145e-07
-2.2866e-07
-2.9031e-07
-2.24151e-07
-2.5505e-07
-2.17257e-07
-2.20751e-07
-2.08071e-07
-1.87785e-07
-1.96731e-07
-1.56504e-07
-1.83423e-07
-1.27225e-07
-1.68373e-07
-1.00228e-07
-1.51845e-07
-7.57495e-08
-1.34135e-07
-5.39732e-08
-1.15562e-07
-3.50289e-08
-9.64665e-08
-1.89889e-08
-7.72027e-08
-5.86672e-09
-5.81353e-08
4.38386e-09
-3.96358e-08
1.18683e-08
-2.20818e-08
1.67508e-08
-5.85679e-09
1.92536e-08
8.64813e-09
1.96566e-08
2.10312e-08
1.8298e-08
3.08765e-08
1.5575e-08
3.77503e-08
1.19469e-08
4.1197e-08
7.93902e-09
4.07366e-08
4.14813e-09
3.58627e-08
1.24882e-09
2.60424e-08
1.0714e-08
-3.10985e-09
1.62662e-08
-1.14875e-08
4.70569e-08
-2.42907e-08
7.53162e-08
-4.0782e-08
1.00628e-07
-6.03215e-08
1.22834e-07
-8.23592e-08
1.41941e-07
-1.06426e-07
1.58076e-07
-1.32122e-07
1.71447e-07
-1.5911e-07
1.82309e-07
-1.87105e-07
1.90938e-07
-2.15863e-07
1.97609e-07
-2.4518e-07
2.02578e-07
-2.74877e-07
2.06076e-07
-3.048e-07
2.083e-07
-3.34811e-07
2.0941e-07
-3.64785e-07
2.09529e-07
-3.94605e-07
2.08746e-07
-4.2416e-07
2.07119e-07
-4.5334e-07
2.04676e-07
-4.82039e-07
2.01426e-07
-5.10148e-07
1.9736e-07
-5.37559e-07
1.92457e-07
-5.64164e-07
1.86688e-07
-5.89854e-07
1.80022e-07
-6.14518e-07
1.72427e-07
-6.38047e-07
1.63875e-07
-6.60335e-07
1.54344e-07
-6.81274e-07
1.43818e-07
-7.00759e-07
1.32289e-07
-7.18686e-07
1.19759e-07
-7.34953e-07
1.06238e-07
-7.49457e-07
9.17454e-08
-7.62096e-07
7.63106e-08
-7.72766e-07
5.99727e-08
-7.81363e-07
4.27815e-08
-7.87781e-07
2.47981e-08
-7.91915e-07
6.09702e-09
-7.93659e-07
-1.32335e-08
-7.92907e-07
-3.30885e-08
-7.89561e-07
-5.33457e-08
-7.83528e-07
-7.38635e-08
-7.74727e-07
-9.44799e-08
-7.63092e-07
-1.15012e-07
-7.48579e-07
-1.35258e-07
-7.3117e-07
-1.54994e-07
-7.10876e-07
-1.73981e-07
-6.87744e-07
-1.91968e-07
-6.61862e-07
-2.08694e-07
-6.33359e-07
-2.23893e-07
-6.02412e-07
-2.37307e-07
-5.69242e-07
-2.48685e-07
-5.34118e-07
-2.57798e-07
-4.97352e-07
-2.64443e-07
-4.59297e-07
-2.68451e-07
-4.20341e-07
-2.69696e-07
-3.809e-07
-2.68101e-07
-3.41408e-07
-2.63643e-07
-3.02311e-07
-2.56355e-07
-2.64052e-07
-2.4633e-07
-2.27065e-07
-2.33718e-07
-1.9176e-07
-2.18728e-07
-1.58515e-07
-2.01618e-07
-1.27667e-07
-1.82694e-07
-9.95005e-08
-1.62301e-07
-7.42444e-08
-1.40818e-07
-5.20652e-08
-1.18646e-07
-3.30636e-08
-9.62043e-08
-1.72732e-08
-7.39257e-08
-4.65983e-09
-5.22492e-08
4.87806e-09
-3.16197e-08
1.15079e-08
-1.24866e-08
1.54619e-08
4.69414e-09
1.70358e-08
1.94573e-08
1.65887e-08
3.13237e-08
1.45435e-08
3.97954e-08
1.13896e-08
4.43509e-08
7.68542e-09
4.44407e-08
4.06378e-09
3.94844e-08
1.23662e-09
2.88695e-08
1.19506e-08
-3.37177e-09
1.9638e-08
-1.24333e-08
5.61184e-08
-2.62511e-08
8.91339e-08
-4.40088e-08
1.18385e-07
-6.50013e-08
1.43826e-07
-8.86262e-08
1.65566e-07
-1.14373e-07
1.83823e-07
-1.41812e-07
1.98886e-07
-1.70584e-07
2.11081e-07
-2.00386e-07
2.20741e-07
-2.30967e-07
2.28189e-07
-2.62112e-07
2.33723e-07
-2.9364e-07
2.37604e-07
-3.25395e-07
2.40054e-07
-3.57235e-07
2.4125e-07
-3.89036e-07
2.4133e-07
-4.2068e-07
2.4039e-07
-4.52055e-07
2.38494e-07
-4.83054e-07
2.35675e-07
-5.13571e-07
2.31943e-07
-5.43499e-07
2.27288e-07
-5.72734e-07
2.21692e-07
-6.01171e-07
2.15125e-07
-6.28705e-07
2.07556e-07
-6.55234e-07
1.98956e-07
-6.80656e-07
1.89297e-07
-7.0487e-07
1.78559e-07
-7.2778e-07
1.66727e-07
-7.49286e-07
1.53795e-07
-7.69291e-07
1.39765e-07
-7.87699e-07
1.24645e-07
-8.04408e-07
1.08454e-07
-8.19313e-07
9.12166e-08
-8.32308e-07
7.29668e-08
-8.43274e-07
5.37484e-08
-8.52092e-07
3.36161e-08
-8.58633e-07
1.26374e-08
-8.62762e-07
-9.10448e-09
-8.64341e-07
-3.15089e-08
-8.63233e-07
-5.44537e-08
-8.59303e-07
-7.77943e-08
-8.52422e-07
-1.0136e-07
-8.42479e-07
-1.24956e-07
-8.2938e-07
-1.48356e-07
-8.1306e-07
-1.71314e-07
-7.93485e-07
-1.93556e-07
-7.70663e-07
-2.1479e-07
-7.44648e-07
-2.34709e-07
-7.15541e-07
-2.53e-07
-6.83502e-07
-2.69346e-07
-6.48744e-07
-2.83443e-07
-6.11538e-07
-2.95004e-07
-5.72211e-07
-3.0377e-07
-5.31141e-07
-3.09521e-07
-4.88753e-07
-3.12085e-07
-4.45507e-07
-3.11346e-07
-4.01897e-07
-3.07253e-07
-3.5843e-07
-2.99822e-07
-3.15621e-07
-2.89139e-07
-2.73976e-07
-2.75363e-07
-2.3398e-07
-2.58724e-07
-1.96084e-07
-2.39513e-07
-1.60694e-07
-2.18084e-07
-1.2816e-07
-1.94836e-07
-9.87658e-08
-1.70212e-07
-7.2726e-08
-1.44685e-07
-5.01786e-08
-1.18752e-07
-3.11841e-08
-9.29202e-08
-1.57249e-08
-6.77085e-08
-3.70629e-09
-4.36383e-08
5.04157e-09
-2.12345e-08
1.07614e-08
-1.02572e-09
1.37669e-08
1.64518e-08
1.44412e-08
3.06494e-08
1.32367e-08
4.09999e-08
1.06768e-08
4.69109e-08
7.35801e-09
4.77595e-08
3.95429e-09
4.28881e-08
1.22112e-09
3.16027e-08
1.31717e-08
-3.62005e-09
2.32581e-08
-1.33296e-08
6.58279e-08
-2.81089e-08
1.03913e-07
-4.70681e-08
1.37345e-07
-6.94408e-08
1.66199e-07
-9.45752e-08
1.90701e-07
-1.21923e-07
2.1117e-07
-1.51024e-07
2.27988e-07
-1.81499e-07
2.41556e-07
-2.13032e-07
2.52273e-07
-2.45359e-07
2.60516e-07
-2.78261e-07
2.66625e-07
-3.11553e-07
2.70897e-07
-3.45077e-07
2.73577e-07
-3.78692e-07
2.74865e-07
-4.12273e-07
2.74911e-07
-4.45706e-07
2.73822e-07
-4.7888e-07
2.71668e-07
-5.11691e-07
2.68486e-07
-5.44036e-07
2.64288e-07
-5.75816e-07
2.59068e-07
-6.06931e-07
2.52807e-07
-6.37286e-07
2.45479e-07
-6.66783e-07
2.37054e-07
-6.95332e-07
2.27504e-07
-7.22842e-07
2.16806e-07
-7.49223e-07
2.04941e-07
-7.74391e-07
1.91894e-07
-7.98257e-07
1.77662e-07
-8.20735e-07
1.62242e-07
-8.4173e-07
1.45641e-07
-8.61147e-07
1.27871e-07
-8.78877e-07
1.08947e-07
-8.94804e-07
8.88938e-08
-9.08798e-07
6.77417e-08
-9.20713e-07
4.55318e-08
-9.30394e-07
2.2318e-08
-9.37669e-07
-1.82931e-09
-9.42358e-07
-2.68203e-08
-9.44272e-07
-5.25391e-08
-9.43223e-07
-7.88431e-08
-9.39026e-07
-1.05557e-07
-9.31508e-07
-1.32474e-07
-9.20515e-07
-1.59349e-07
-9.05922e-07
-1.85907e-07
-8.87641e-07
-2.11838e-07
-8.65626e-07
-2.36804e-07
-8.39888e-07
-2.60448e-07
-8.10494e-07
-2.82394e-07
-7.77576e-07
-3.02264e-07
-7.41336e-07
-3.19684e-07
-7.02043e-07
-3.34297e-07
-6.60036e-07
-3.45777e-07
-6.15719e-07
-3.53838e-07
-5.69556e-07
-3.58248e-07
-5.22061e-07
-3.58841e-07
-4.73792e-07
-3.55523e-07
-4.2533e-07
-3.48284e-07
-3.77272e-07
-3.37196e-07
-3.30212e-07
-3.22423e-07
-2.84727e-07
-3.04209e-07
-2.41356e-07
-2.82884e-07
-2.00594e-07
-2.58847e-07
-1.62868e-07
-2.32562e-07
-1.28535e-07
-2.04544e-07
-9.78709e-08
-1.7535e-07
-7.10615e-08
-1.45561e-07
-4.82037e-08
-1.15778e-07
-2.9303e-08
-8.66092e-08
-1.42755e-08
-5.86658e-08
-2.95067e-09
-3.25593e-08
4.92532e-09
-8.9017e-09
9.6861e-09
1.1691e-08
1.17425e-08
2.85931e-08
1.15811e-08
4.11613e-08
9.76452e-09
4.87274e-08
6.93347e-09
5.05906e-08
3.80969e-09
4.60119e-08
1.19981e-09
3.42126e-08
1.43715e-08
-3.85512e-09
2.71132e-08
-1.41775e-08
7.61502e-08
-2.98663e-08
1.19602e-07
-4.99626e-08
1.57441e-07
-7.36429e-08
1.89879e-07
-1.00209e-07
2.17267e-07
-1.29078e-07
2.40039e-07
-1.59762e-07
2.58673e-07
-1.91863e-07
2.73656e-07
-2.25049e-07
2.8546e-07
-2.59051e-07
2.94518e-07
-2.93644e-07
3.01218e-07
-3.28639e-07
3.05892e-07
-3.63879e-07
3.08817e-07
-3.99225e-07
3.10211e-07
-4.34554e-07
3.1024e-07
-4.69754e-07
3.09023e-07
-5.04722e-07
3.06636e-07
-5.39358e-07
3.03122e-07
-5.73567e-07
2.98497e-07
-6.07258e-07
2.92759e-07
-6.40342e-07
2.85891e-07
-6.72734e-07
2.77871e-07
-7.04354e-07
2.68673e-07
-7.35122e-07
2.58273e-07
-7.64965e-07
2.46649e-07
-7.9381e-07
2.33786e-07
-8.21587e-07
2.19671e-07
-8.48221e-07
2.04296e-07
-8.73636e-07
1.87657e-07
-8.97747e-07
1.69752e-07
-9.20458e-07
1.50582e-07
-9.41659e-07
1.30148e-07
-9.61219e-07
1.08454e-07
-9.7899e-07
8.55121e-08
-9.94798e-07
6.13399e-08
-1.00845e-06
3.59688e-08
-1.01973e-06
9.44795e-09
-1.0284e-06
-1.81508e-08
-1.03421e-06
-4.67259e-08
-1.03691e-06
-7.61419e-08
-1.03624e-06
-1.06224e-07
-1.03196e-06
-1.36753e-07
-1.02384e-06
-1.67469e-07
-1.01169e-06
-1.98065e-07
-9.95334e-07
-2.2819e-07
-9.74681e-07
-2.57457e-07
-9.49681e-07
-2.85447e-07
-9.20358e-07
-3.11717e-07
-8.86811e-07
-3.35811e-07
-8.49218e-07
-3.57276e-07
-8.07846e-07
-3.7567e-07
-7.6304e-07
-3.90582e-07
-7.15232e-07
-4.01646e-07
-6.64927e-07
-4.08554e-07
-6.12696e-07
-4.11072e-07
-5.59167e-07
-4.09052e-07