/*--------------------------------*- C++ -*----------------------------------*\
  =========                 |
  \\      /  F ield         | OpenFOAM: The Open Source CFD Toolbox
   \\    /   O peration     | Website:  https://openfoam.org
    \\  /    A nd           | Version:  7
     \\/     M anipulation  |
\*---------------------------------------------------------------------------*/
FoamFile
{
    version     2.0;
    format      ascii;
    class       volScalarField;
    location    "1";
    object      p;
}
// * * * * * * * * * * * * * * * * * * * * * * * * * * * * * * * * * * * * * //

dimensions      [0 2 -2 0 0 0 0];

internalField   nonuniform List<scalar> 
6400
(
-1.2297e-06
-6.18256e-06
-7.07857e-05
-0.000192527
-0.000356732
-0.000550242
-0.000761568
-0.000980971
-0.00120049
-0.00141379
-0.00161585
-0.00180281
-0.00197168
-0.00212023
-0.00224681
-0.00235019
-0.00242952
-0.00248419
-0.00251379
-0.00251805
-0.00249678
-0.0024499
-0.00237734
-0.00227911
-0.00215524
-0.00200582
-0.001831
-0.00163101
-0.00140617
-0.00115692
-0.000883829
-0.00058763
-0.000269231
7.02584e-05
0.000429512
0.000806968
0.00120083
0.00160905
0.00202932
0.0024591
0.0028956
0.00333582
0.00377653
0.00421436
0.00464576
0.00506712
0.00547474
0.00586494
0.00623406
0.00657856
0.00689507
0.00718043
0.00743178
0.00764658
0.00782272
0.00795852
0.00805282
0.00810498
0.00811495
0.00808324
0.00801102
0.00790002
0.00775262
0.00757179
0.00736109
0.00712464
0.0068671
0.00659362
0.00630986
0.00602189
0.00573624
0.00545982
0.00519989
0.00496402
0.00476002
0.00459555
0.0044775
0.00441104
0.00439819
0.00442647
5.52285e-07
-3.45642e-06
-6.02036e-05
-0.000163278
-0.000300728
-0.000463144
-0.00064175
-0.000828726
-0.00101732
-0.00120192
-0.00137793
-0.00154169
-0.00169028
-0.00182143
-0.00193339
-0.00202484
-0.00209477
-0.00214246
-0.00216736
-0.00216909
-0.00214737
-0.00210202
-0.00203293
-0.00194005
-0.00182338
-0.00168298
-0.001519
-0.00133165
-0.00112127
-0.000888263
-0.000633207
-0.000356808
-5.99429e-05
0.000256321
0.000590722
0.00094178
0.0013078
0.00168686
0.00207681
0.00247529
0.0028797
0.00328726
0.003695
0.00409982
0.00449845
0.00488759
0.00526386
0.00562389
0.00596437
0.00628208
0.00657397
0.00683719
0.00706916
0.00726763
0.00743072
0.00755697
0.00764538
0.00769545
0.00770719
0.00768116
0.0076185
0.00752087
0.00739052
0.00723024
0.00704334
0.00683363
0.0066054
0.0063634
0.00611275
0.00585897
0.00560789
0.00536561
0.00513843
0.00493274
0.00475489
0.00461086
0.00450556
0.00444249
0.00442622
0.00445467
6.35286e-05
5.19848e-05
-4.95334e-06
-0.000100155
-0.000223696
-0.000368121
-0.000526481
-0.000692301
-0.00085986
-0.00102427
-0.00118146
-0.00132807
-0.00146137
-0.00157919
-0.00167981
-0.00176189
-0.00182441
-0.00186659
-0.00188781
-0.00188764
-0.00186575
-0.0018219
-0.00175594
-0.00166777
-0.00155736
-0.00142477
-0.00127009
-0.00109354
-0.000895413
-0.000676106
-0.000436156
-0.000176236
0.000102818
0.000399996
0.000714102
0.00104374
0.00138731
0.00174301
0.00210881
0.00248249
0.00286162
0.0032436
0.00362565
0.00400485
0.00437819
0.00474255
0.00509481
0.00543182
0.00575051
0.00604789
0.00632113
0.00656759
0.00678492
0.00697103
0.0071242
0.00724313
0.00732692
0.00737515
0.00738788
0.0073657
0.0073097
0.00722149
0.00710322
0.00695752
0.00678752
0.00659679
0.00638933
0.00616954
0.00594216
0.00571222
0.00548502
0.00526604
0.00506082
0.00487497
0.0047139
0.00458267
0.00448536
0.00442526
0.00440955
0.00444235
0.000185283
0.000154518
8.85321e-05
-7.52696e-06
-0.000126627
-0.000262586
-0.00040963
-0.000562392
-0.00071607
-0.000866496
-0.00101013
-0.001144
-0.00126565
-0.00137311
-0.0014648
-0.00153944
-0.00159604
-0.00163383
-0.0016522
-0.0016507
-0.00162897
-0.00158674
-0.00152384
-0.00144013
-0.00133556
-0.00121013
-0.00106394
-0.000897144
-0.000710009
-0.000502897
-0.000276295
-3.08297e-05
0.000232722
0.000513415
0.000810126
0.00112155
0.00144617
0.00178229
0.00212801
0.00248123
0.00283965
0.0032008
0.00356208
0.00392071
0.00427384
0.00461854
0.00495183
0.00527075
0.00557238
0.00585391
0.00611264
0.00634611
0.00655207
0.00672857
0.00687401
0.00698714
0.00706716
0.00711369
0.00712682
0.00710713
0.00705568
0.00697403
0.00686424
0.00672882
0.00657074
0.00639337
0.0062005
0.00599623
0.00578498
0.0055714
0.00536035
0.00515681
0.0049658
0.0047923
0.00464114
0.0045169
0.00442331
0.00436375
0.00434647
0.00437762
0.000352011
0.000292834
0.000210976
0.00010821
-1.22135e-05
-0.000145238
-0.00028607
-0.000430372
-0.000574229
-0.000714181
-0.000847236
-0.000970864
-0.00108295
-0.00118176
-0.00126589
-0.0013342
-0.00138579
-0.00141992
-0.00143602
-0.00143365
-0.00141245
-0.00137214
-0.0013125
-0.0012334
-0.00113473
-0.00101648
-0.000878698
-0.000721499
-0.000545097
-0.000349807
-0.000136059
9.55833e-05
0.000344409
0.00060955
0.000889967
0.00118444
0.00149156
0.00180972
0.00213715
0.00247184
0.00281164
0.00315421
0.00349705
0.00383755
0.00417298
0.00450055
0.00481742
0.00512075
0.00540775
0.00567573
0.00592212
0.00614455
0.00634087
0.00650922
0.00664806
0.00675622
0.00683292
0.0068778
0.00689098
0.00687301
0.00682493
0.00674824
0.00664491
0.00651735
0.00636839
0.00620123
0.00601945
0.0058269
0.00562771
0.00542622
0.00522689
0.00503427
0.00485294
0.00468737
0.00454193
0.00442075
0.00432731
0.00426499
0.0042415
0.00426275
0.000551319
0.000458045
0.000355323
0.000241189
0.00011476
-1.98873e-05
-0.000158815
-0.000298643
-0.000436279
-0.000568942
-0.000694199
-0.000809975
-0.000914526
-0.00100641
-0.00108443
-0.00114761
-0.00119516
-0.00122645
-0.00124096
-0.00123827
-0.00121804
-0.00117998
-0.00112388
-0.00104955
-0.000956887
-0.000845825
-0.000716365
-0.00056858
-0.000402624
-0.00021875
-1.73254e-05
0.000201161
0.000436076
0.000686633
0.000951883
0.0012307
0.00152178
0.00182361
0.00213453
0.00245264
0.00277591
0.00310209
0.00342883
0.0037536
0.0040738
0.00438673
0.00468966
0.00497985
0.00525462
0.00551133
0.00574751
0.00596084
0.00614924
0.00631091
0.00644433
0.00654837
0.00662225
0.00666565
0.00667864
0.00666177
0.00661604
0.00654289
0.0064442
0.0063223
0.00617989
0.00602003
0.0058461
0.00566177
0.0054709
0.00527754
0.00508585
0.00490001
0.00472419
0.00456249
0.00441883
0.00429697
0.00420017
0.00413163
0.00409755
0.0041024
0.000772303
0.000641669
0.000514679
0.000385609
0.000249433
0.000109396
-3.12923e-05
-0.000170112
-0.000304727
-0.000432999
-0.000553047
-0.000663259
-0.000762269
-0.000848937
-0.000922318
-0.000981623
-0.00102621
-0.00105555
-0.00106922
-0.00106683
-0.00104807
-0.00101266
-0.000960388
-0.00089105
-0.000804502
-0.000700642
-0.000579422
-0.000440857
-0.00028504
-0.000112152
7.75136e-05
0.000283547
0.000505403
0.000742385
0.000993636
0.00125813
0.00153466
0.00182182
0.00211804
0.00242154
0.00273036
0.00304239
0.00335534
0.00366679
0.00397422
0.004275
0.00456649
0.00484602
0.00511093
0.00535867
0.00558678
0.005793
0.00597526
0.00613176
0.00626102
0.00636188
0.00643358
0.00647576
0.00648847
0.00647223
0.00642798
0.00635711
0.00626145
0.00614321
0.00600499
0.00584973
0.00568067
0.00550128
0.00531523
0.00512633
0.00493845
0.00475551
0.00458133
0.00441967
0.00427411
0.00414805
0.00404456
0.00396662
0.00391829
0.00390219
0.00100535
0.000835745
0.000682305
0.00053575
0.000387026
0.00023868
9.33164e-05
-4.73146e-05
-0.000181575
-0.000307931
-0.000425032
-0.000531719
-0.000627006
-0.000710068
-0.000780215
-0.000836869
-0.000879555
-0.000907875
-0.000921476
-0.00092005
-0.000903318
-0.000871024
-0.000822937
-0.000758852
-0.000678589
-0.000582004
-0.000468996
-0.000339517
-0.000193589
-3.13197e-05
0.000147083
0.000341296
0.000550865
0.00077519
0.00101351
0.00126491
0.00152827
0.00180229
0.00208549
0.00237619
0.00267253
0.00297247
0.0032738
0.00357418
0.00387114
0.00416213
0.00444453
0.00471571
0.00497305
0.005214
0.00543613
0.00563715
0.00581501
0.00596788
0.00609426
0.00619296
0.00626319
0.00630454
0.00631704
0.00630115
0.00625776
0.00618819
0.0060942
0.00597793
0.00584189
0.00568891
0.00552209
0.00534477
0.00516045
0.00497274
0.0047853
0.00460179
0.0044258
0.00426078
0.00411002
0.00397661
0.00386344
0.00377327
0.00370797
0.00366781
0.00124213
0.00103299
0.000851856
0.000686085
0.000522784
0.000363932
0.00021163
6.69353e-05
-6.9157e-05
-0.000195679
-0.000311781
-0.000416739
-0.000509939
-0.000590871
-0.000659112
-0.000714303
-0.00075614
-0.000784361
-0.000798713
-0.000798955
-0.000784853
-0.000756175
-0.000712692
-0.000654181
-0.000580433
-0.000491256
-0.000386493
-0.000266028
-0.000129808
2.21416e-05
0.000189702
0.000372644
0.000570612
0.000783107
0.00100947
0.00124889
0.00150034
0.00176263
0.00203436
0.00231395
0.00259961
0.00288938
0.00318112
0.00347253
0.00376121
0.00404461
0.00432016
0.00458521
0.00483717
0.00507346
0.00529163
0.00548936
0.00566456
0.00581536
0.0059402
0.00603784
0.00610744
0.00614853
0.00616107
0.00614546
0.00610253
0.00603354
0.00594017
0.0058245
0.00568894
0.00553625
0.00536941
0.00519166
0.00500635
0.00481695
0.00462695
0.00443982
0.00425892
0.00408751
0.00392862
0.00378508
0.00365965
0.00355491
0.00347043
0.00340426
0.00147543
0.00122685
0.00101742
0.000831331
0.000652043
0.000481076
0.000320108
0.000169571
2.98673e-05
-9.85587e-05
-0.000215327
-0.000320127
-0.000412706
-0.000492867
-0.000560449
-0.000615314
-0.000657334
-0.000686383
-0.000702313
-0.000704958
-0.00069413
-0.000669623
-0.00063121
-0.000578652
-0.000511706
-0.000430131
-0.000333708
-0.000222251
-9.56265e-05
4.62303e-05
0.000203294
0.000375436
0.000562405
0.000763807
0.000979094
0.00120754
0.00144824
0.00170009
0.0019618
0.00223184
0.00250852
0.00278992
0.00307398
0.00335843
0.00364088
0.00391882
0.00418966
0.00445075
0.00469946
0.00493318
0.0051494
0.00534576
0.00552008
0.00567043
0.00579517
0.00589298
0.00596293
0.00600449
0.00601751
0.00600234
0.00595972
0.00589084
0.00579732
0.00568116
0.0055447
0.00539062
0.00522183
0.00504147
0.0048528
0.00465917
0.00446394
0.00427045
0.0040819
0.00390138
0.00373175
0.00357562
0.00343569
0.00331443
0.00320914
0.00311575
0.0016989
0.00141138
0.0011735
0.000966471
0.000770277
0.000586062
0.000415143
0.000257381
0.000112639
-1.91233e-05
-0.000137966
-0.000243972
-0.000337235
-0.000417862
-0.00048595
-0.000541573
-0.000584779
-0.000615577
-0.000633925
-0.000639731
-0.000632857
-0.000613121
-0.000580296
-0.000534126
-0.000474328
-0.000400613
-0.000312694
-0.00021031
-9.32413e-05
3.86703e-05
0.000185501
0.000347228
0.000523708
0.000714657
0.000919637
0.00113803
0.00136903
0.00161163
0.00186462
0.00212657
0.00239584
0.00267059
0.00294876
0.00322815
0.00350636
0.00378088
0.0040491
0.00430833
0.0045559
0.00478913
0.00500544
0.00520238
0.00537767
0.00552929
0.00565548
0.00575482
0.00582629
0.00586921
0.00588339
0.00586903
0.00582682
0.00575786
0.00566369
0.00554624
0.00540779
0.00525096
0.00507859
0.00489375
0.00469965
0.00449955
0.00429674
0.00409445
0.0038958
0.00370376
0.00352105
0.00335016
0.00319378
0.00305435
0.002927
0.00280564
0.00190686
0.00158114
0.00131499
0.00108676
0.00087312
0.000674899
0.000493102
0.00032707
0.000176165
3.98999e-05
-8.2198e-05
-0.000190587
-0.000285691
-0.000367908
-0.000437581
-0.000494992
-0.000540354
-0.000573811
-0.000595423
-0.000605172
-0.000602966
-0.000588642
-0.000561975
-0.000522683
-0.000470445
-0.000404915
-0.000325737
-0.000232569
-0.0001251
-3.07151e-06
0.000133698
0.000285298
0.000451699
0.000632732
0.00082807
0.00103721
0.00125944
0.00149386
0.00173935
0.00199454
0.00225787
0.00252755
0.00280155
0.00307768
0.00335355
0.00362663
0.00389427
0.00415374
0.00440227
0.00463711
0.00485558
0.00505512
0.00523332
0.00538802
0.00551736
0.00561977
0.00569408
0.0057395
0.00575571
0.00574281
0.00570137
0.0056324
0.00553736
0.00541811
0.00527688
0.00511621
0.00493893
0.00474804
0.00454673
0.0043382
0.00412572
0.00391246
0.00370151
0.00349577
0.0032979
0.00311032
0.00293578
0.00277677
0.00262635
0.00247654
0.00209413
0.00173112
0.00143711
0.00118767
0.000956349
0.000743666
0.000550357
0.000375287
0.000217354
7.5649e-05
-5.06897e-05
-0.000162473
-0.000260443
-0.000345269
-0.000417529
-0.000477699
-0.000526156
-0.00056317
-0.000588898
-0.00060339
-0.000606597
-0.000598372
-0.000578482
-0.00054662
-0.000502419
-0.000445472
-0.000375352
-0.000291627
-0.000193891
-8.17807e-05
4.5e-05
0.000186657
0.000343279
0.000514817
0.000701063
0.000901623
0.0011159
0.00134309
0.00158216
0.00183182
0.00209057
0.00235666
0.0026281
0.0029027
0.00317807
0.00345164
0.0037207
0.00398247
0.00423408
0.00447267
0.00469544
0.00489967
0.00508283
0.0052426
0.00537694
0.00548412
0.00556282
0.0056121
0.00563148
0.00562092
0.00558087
0.00551225
0.00541642
0.00529515
0.00515062
0.00498534
0.00480209
0.00460386
0.00439381
0.00417517
0.00395118
0.00372503
0.00349979
0.00327839
0.00306348
0.00285745
0.0026632
0.00248335
0.002309
0.00213032
0.00225598
0.00185669
0.00153536
0.00126494
0.0010159
0.000788527
0.000583311
0.000398665
0.000233051
8.51607e-05
-4.62362e-05
-0.000162286
-0.000264026
-0.000352385
-0.000428162
-0.000492017
-0.000544477
-0.000585934
-0.000616635
-0.000636693
-0.00064609
-0.000644693
-0.000632254
-0.000608435
-0.00057282
-0.000524936
-0.000464275
-0.000390315
-0.000302547
-0.000200493
-8.37402e-05
4.80398e-05
0.000195062
0.000357404
0.000534979
0.000727512
0.000934521
0.0011553
0.0013889
0.00163413
0.00188954
0.00215343
0.00242383
0.00269855
0.00297518
0.00325112
0.00352361
0.00378974
0.00404657
0.00429109
0.00452036
0.00473151
0.00492181
0.00508877
0.00523015
0.00534404
0.00542891
0.00548365
0.00550758
0.00550054
0.00546281
0.00539518
0.00529891
0.00517571
0.00502768
0.00485728
0.00466728
0.00446068
0.00424065
0.00401044
0.00377333
0.00353256
0.00329126
0.00305242
0.00281872
0.00259263
0.00237724
0.00217539
0.00197626
0.00176829
0.00238795
0.00195346
0.0016055
0.00131444
0.00104784
0.000805745
0.000588417
0.000393842
0.000220066
6.54002e-05
-7.17333e-05
-0.000192798
-0.000299112
-0.000391845
-0.000472004
-0.000540423
-0.000597773
-0.000644554
-0.000681094
-0.00070756
-0.000723962
-0.000730167
-0.000725911
-0.000710817
-0.000684413
-0.000646158
-0.000595454
-0.000531682
-0.000454223
-0.000362481
-0.000255919
-0.000134076
3.39366e-06
0.000156699
0.000325884
0.000510797
0.000711076
0.000926122
0.00115509
0.00139686
0.00165005
0.001913
0.00218377
0.00246019
0.0027398
0.00301996
0.00329783
0.00357041
0.00383463
0.00408734
0.00432542
0.00454582
0.0047456
0.00492206
0.00507273
0.00519548
0.00528855
0.00535061
0.0053808
0.00537874
0.00534455
0.00527888
0.00518286
0.0050581
0.00490665
0.00473093
0.00453369
0.00431796
0.00408693
0.00384392
0.00359229
0.00333537
0.0030764
0.00281847
0.00256438
0.0023167
0.00207882
0.0018538
0.00162903
0.00139122
0.00248588
0.00201733
0.00164348
0.00133226
0.00104839
0.000791684
0.000562188
0.000357476
0.000175195
1.32936e-05
-0.00013014
-0.000256867
-0.00036847
-0.000466348
-0.000551705
-0.000625536
-0.000688642
-0.000741624
-0.000784882
-0.000818625
-0.000842881
-0.000857515
-0.000862235
-0.000856622
-0.000840141
-0.000812172
-0.000772025
-0.000718977
-0.00065229
-0.000571244
-0.000475167
-0.000363464
-0.000235648
-9.13699e-05
6.95508e-05
0.000247097
0.000441032
0.000650874
0.000875877
0.00111502
0.00136698
0.00163014
0.00190262
0.0021822
0.00246644
0.00275262
0.00303783
0.00331896
0.00359279
0.00385601
0.00410531
0.00433743
0.0045492
0.00473766
0.0049001
0.00503412
0.00513771
0.00520928
0.00524771
0.00525242
0.00522334
0.00516091
0.00506615
0.00494055
0.00478608
0.00460512
0.00440044
0.00417507
0.00393228
0.00367547
0.00340812
0.00313369
0.00285558
0.00257703
0.00230103
0.0020303
0.00176856
0.00151922
0.00126786
0.000999489
0.00254579
0.00204435
0.00164546
0.00131466
0.0010139
0.000742813
0.00050121
0.000286267
9.52486e-05
-7.42467e-05
-0.000224447
-0.0003574
-0.000474939
-0.000578681
-0.00067001
-0.000750075
-0.000819795
-0.00087986
-0.00093073
-0.000972648
-0.00100565
-0.0010296
-0.00104416
-0.00104886
-0.00104311
-0.00102618
-0.000997307
-0.000955639
-0.000900319
-0.000830492
-0.000745347
-0.000644142
-0.000526242
-0.000391149
-0.000238536
-6.82757e-05
0.00011953
0.000324525
0.000546077
0.000783259
0.00103483
0.00129924
0.00157461
0.00185876
0.00214919
0.00244315
0.00273763
0.00302942
0.00331512
0.00359127
0.00385432
0.00410078
0.00432723
0.00453043
0.00470736
0.00485535
0.00497206
0.00505563
0.00510466
0.00511828
0.00509621
0.00503869
0.00494654
0.00482116
0.0046644
0.00447862
0.00426657
0.00403134
0.00377627
0.00350488
0.0032208
0.00292766
0.00262906
0.00232847
0.00202908
0.00173386
0.00144691
0.00117202
0.000892982
0.000593109
0.00256389
0.00203081
0.00160778
0.00125802
0.000940865
0.000655708
0.000402149
0.000176973
-2.29285e-05
-0.000200292
-0.000357653
-0.000497331
-0.0006214
-0.000731681
-0.000829731
-0.000916837
-0.000994026
-0.00106207
-0.00112147
-0.0011725
-0.0012152
-0.00124939
-0.00127473
-0.00129068
-0.00129655
-0.00129154
-0.00127477
-0.00124528
-0.00120206
-0.00114413
-0.00107053
-0.00098035
-0.000872808
-0.000747243
-0.000603169
-0.000440304
-0.000258604
-5.82848e-05
0.000160147
0.000395871
0.000647737
0.000914257
0.0011936
0.00148358
0.0017817
0.00208515
0.00239082
0.00269537
0.00299526
0.00328681
0.00356627
0.00382985
0.00407387
0.00429477
0.0044892
0.00465414
0.00478692
0.00488533
0.00494766
0.00497274
0.00495998
0.0049094
0.00482163
0.00469788
0.00453994
0.00435008
0.00413107
0.00388603
0.00361841
0.00333188
0.00303024
0.00271734
0.00239703
0.00207305
0.00174885
0.0014277
0.00111412
0.000812363
0.000504415
0.000171837
0.00253656
0.00197312
0.00152691
0.0011589
0.000825897
0.000527056
0.000261762
2.64228e-05
-0.000182437
-0.000367881
-0.000532738
-0.000679593
-0.000810747
-0.000928217
-0.00103372
-0.00112867
-0.00121419
-0.00129111
-0.00135999
-0.00142111
-0.0014745
-0.00151997
-0.0015571
-0.00158531
-0.00160381
-0.00161173
-0.00160803
-0.00159164
-0.00156143
-0.00151624
-0.00145496
-0.00137653
-0.00127998
-0.00116449
-0.00102939
-0.000874242
-0.000698832
-0.000503227
-0.000287791
-5.3221e-05
0.000199436
0.000468771
0.000753004
0.00104998
0.00135718
0.00167173
0.00199046
0.00230989
0.00262632
0.00293585
0.00323447
0.00351813
0.00378282
0.00402461
0.00423982
0.00442503
0.00457718
0.00469367
0.00477241
0.00481187
0.00481116
0.00476999
0.00468876
0.0045685
0.00441085
0.00421803
0.00399279
0.00373831
0.00345815
0.00315614
0.00283631
0.00250276
0.00215962
0.00181097
0.00146057
0.00111201
0.000770335
0.000440285
0.000101996
-0.000264769
0.00246033
0.00186788
0.00139949
0.001014
0.000665747
0.000353664
7.69166e-05
-0.000168463
-0.000386306
-0.000579993
-0.000752643
-0.000907093
-0.00104586
-0.00117116
-0.00128483
-0.00138843
-0.00148315
-0.00156989
-0.00164923
-0.00172147
-0.00178662
-0.00184445
-0.00189449
-0.00193607
-0.00196834
-0.00199029
-0.00200078
-0.00199859
-0.00198244
-0.00195102
-0.00190305
-0.00183728
-0.00175258
-0.00164792
-0.00152247
-0.00137559
-0.00120689
-0.00101627
-0.00080393
-0.000570431
-0.000316697
-4.40366e-05
0.000245835
0.000550798
0.000868336
0.00119554
0.00152915
0.00186555
0.00220088
0.00253102
0.00285169
0.00315854
0.00344719
0.00371336
0.00395294
0.00416206
0.00433725
0.00447546
0.00457415
0.0046314
0.00464593
0.00461711
0.00454505
0.00443056
0.00427512
0.00408085
0.00385048
0.00358726
0.00329486
0.0029773
0.00263884
0.0022839
0.00191694
0.00154238
0.00116439
0.000786932
0.000415609
5.57095e-05
-0.000314552
-0.000717286
0.00233187
0.00171183
0.00122234
0.000820166
0.000457309
0.000132473
-0.000155403
-0.000410657
-0.000637469
-0.000839533
-0.00102025
-0.00118269
-0.00132959
-0.00146333
-0.00158591
-0.00169897
-0.00180378
-0.00190131
-0.00199214
-0.00207658
-0.00215462
-0.00222598
-0.00229014
-0.00234633
-0.00239361
-0.00243085
-0.0024568
-0.00247007
-0.00246922
-0.0024528
-0.00241932
-0.00236736
-0.00229558
-0.00220277
-0.00208787
-0.00195006
-0.00178875
-0.00160364
-0.00139475
-0.00116249
-0.000907624
-0.000631355
-0.000335303
-2.15333e-05
0.000307453
0.000648725
0.00099894
0.00135438
0.00171098
0.00206442
0.00241013
0.00274342
0.00305956
0.00335382
0.00362165
0.00385871
0.00406102
0.00422501
0.00434768
0.00442661
0.00446006
0.00444704
0.0043873
0.00428136
0.00413051
0.00393675
0.00370278
0.00343188
0.00312785
0.00279493
0.00243764
0.00206074
0.00166906
0.00126745
0.000860489
0.000452583
4.99628e-05
-0.000341486
-0.000745566
-0.00118637
0.00214803
0.00150187
0.000992394
0.000574393
0.000197628
-0.000139431
-0.000438076
-0.000703009
-0.000938752
-0.00114931
-0.00133833
-0.00150916
-0.00166471
-0.00180753
-0.00193974
-0.00206308
-0.00217892
-0.00228823
-0.00239163
-0.00248942
-0.00258155
-0.00266771
-0.00274728
-0.00281943
-0.00288311
-0.00293705
-0.00297986
-0.00301003
-0.00302593
-0.00302593
-0.00300835
-0.00297158
-0.00291405
-0.00283435
-0.00273119
-0.00260354
-0.00245056
-0.00227177
-0.00206698
-0.00183639
-0.00158062
-0.00130071
-0.000998171
-0.000674991
-0.000333631
2.29694e-05
0.000391411
0.00076786
0.00114809
0.00152754
0.00190135
0.0022645
0.00261183
0.00293818
0.00323847
0.00350785
0.00374176
0.00393608
0.00408724
0.00419226
0.00424889
0.00425567
0.00421194
0.00411788
0.00397453
0.00378374
0.00354813
0.00327103
0.00295636
0.00260857
0.00223249
0.00183324
0.00141607
0.000986317
0.000549027
0.00010909
-0.000326575
-0.000751423
-0.00119139
-0.00167268
0.00190579
0.00123508
0.000706786
0.000273854
-0.000116088
-0.000464811
-0.00077384
-0.00104824
-0.00129286
-0.001512
-0.00170959
-0.00188918
-0.00205389
-0.00220642
-0.00234901
-0.00248351
-0.00261131
-0.00273345
-0.00285056
-0.0029629
-0.00307041
-0.00317271
-0.00326911
-0.00335869
-0.00344026
-0.00351247
-0.00357375
-0.00362242
-0.00365671
-0.00367478
-0.00367475
-0.00365478
-0.0036131
-0.00354805
-0.00345811
-0.00334198
-0.00319861
-0.00302726
-0.00282751
-0.00259935
-0.00234319
-0.0020599
-0.00175085
-0.00141791
-0.00106348
-0.000690475
-0.000302343
9.69904e-05
0.000503139
0.000911307
0.00131636
0.00171288
0.00209529
0.00245795
0.00279523
0.00310168
0.00337212
0.00360181
0.00378649
0.00392259
0.00400724
0.00403843
0.00401501
0.00393677
0.00380442
0.0036196
0.00338484
0.00310346
0.00277953
0.00241771
0.00202316
0.00160138
0.00115812
0.000699205
0.000230233
-0.000243368
-0.000713926
-0.00117417
-0.00165234
-0.00217685
0.00160232
0.000908687
0.000362822
-8.41039e-05
-0.000486459
-0.000846261
-0.00116527
-0.0014489
-0.00170233
-0.00193016
-0.00213656
-0.0023253
-0.00249969
-0.00266257
-0.00281632
-0.00296284
-0.00310361
-0.00323967
-0.00337167
-0.00349984
-0.00362409
-0.00374397
-0.00385872
-0.0039673
-0.00406844
-0.00416061
-0.00424212
-0.00431112
-0.00436564
-0.00440364
-0.00442305
-0.00442177
-0.00439781
-0.00434924
-0.00427429
-0.00417139
-0.00403922
-0.00387677
-0.00368335
-0.00345871
-0.00320302
-0.00291694
-0.00260166
-0.0022589
-0.00189097
-0.00150074
-0.00109165
-0.000667712
-0.000233457
0.000206099
0.00064552
0.00107902
0.00150058
0.001904
0.00228309
0.00263174
0.00294408
0.00321465
0.00343847
0.00361123
0.00372938
0.00379025
0.00379212
0.00373428
0.00361707
0.00344184
0.00321098
0.00292779
0.00259643
0.00222181
0.00180941
0.00136518
0.000895375
0.000406392
-9.55817e-05
-0.000604515
-0.00111191
-0.00160972
-0.00212861
-0.00269942
0.00123498
0.000520148
-4.20018e-05
-0.000501946
-0.000915921
-0.0012862
-0.00161477
-0.00190738
-0.00216956
-0.00240616
-0.00262161
-0.0028199
-0.0030045
-0.00317841
-0.00334409
-0.00350355
-0.00365831
-0.00380943
-0.00395755
-0.00410291
-0.00424534
-0.00438433
-0.00451904
-0.00464835
-0.00477082
-0.00488483
-0.00498851
-0.00507983
-0.00515664
-0.00521668
-0.00525765
-0.00527723
-0.00527315
-0.0052432
-0.00518534
-0.0050977
-0.00497867
-0.00482693
-0.00464151
-0.00442185
-0.00416786
-0.00387995
-0.00355908
-0.0032068
-0.00282525
-0.00241724
-0.00198619
-0.00153613
-0.00107174
-0.000598219
-0.000121312
0.000352823
0.000817682
0.00126653
0.00169253
0.00208886
0.00244891
0.0027664
0.00303553
0.00325117
0.00340897
0.0035055
0.00353836
0.00350625
0.00340902
0.00324768
0.00302441
0.00274244
0.00240602
0.00202027
0.00159103
0.0011247
0.000628107
0.000108269
-0.000427981
-0.000973942
-0.00152022
-0.00205789
-0.00262027
-0.00324079
0.000801343
6.71068e-05
-0.000509985
-0.000981935
-0.00140671
-0.00178683
-0.00212453
-0.00242589
-0.00269674
-0.0029422
-0.00316695
-0.00337518
-0.00357054
-0.00375615
-0.00393459
-0.00410793
-0.00427773
-0.00444509
-0.00461063
-0.00477457
-0.00493669
-0.00509641
-0.00525282
-0.00540466
-0.00555041
-0.00568827
-0.00581622
-0.00593205
-0.00603342
-0.00611784
-0.00618276
-0.00622562
-0.00624385
-0.00623499
-0.00619665
-0.00612667
-0.00602309
-0.00588426
-0.00570888
-0.00549608
-0.00524543
-0.00495705
-0.00463164
-0.0042705
-0.00387561
-0.00344961
-0.00299588
-0.00251846
-0.0020221
-0.00151221
-0.000994789
-0.000476385
3.60169e-05
0.000535102
0.00101335
0.0014632
0.00187718
0.00224814
0.00256935
0.00283475
0.00303906
0.00317798
0.00324831
0.00324803
0.00317642
0.00303403
0.00282276
0.00254571
0.00220717
0.00181247
0.0013678
0.00088007
0.000356688
-0.00019464
-0.000766367
-0.00135106
-0.00193833
-0.00251832
-0.00312718
-0.00380116
0.000299192
-0.000452571
-0.00104321
-0.00152612
-0.00196085
-0.00235018
-0.00269656
-0.00300641
-0.00328584
-0.00354026
-0.00377457
-0.00399316
-0.00419982
-0.00439783
-0.00458985
-0.00477803
-0.00496397
-0.00514878
-0.00533308
-0.00551706
-0.00570044
-0.0058826
-0.00606252
-0.00623883
-0.00640989
-0.00657376
-0.00672826
-0.00687098
-0.00699937
-0.00711072
-0.00720224
-0.00727107
-0.00731438
-0.00732936
-0.00731332
-0.00726374
-0.0071783
-0.00705499
-0.00689214
-0.00668848
-0.00644325
-0.00615622
-0.00582775
-0.00545886
-0.00505129
-0.00460752
-0.00413077
-0.00362507
-0.00309521
-0.00254675
-0.00198594
-0.00141971
-0.000855523
-0.00030129
0.000234756
0.000744232
0.00121878
0.00165024
0.00203088
0.00235358
0.002612
0.00280085
0.00291596
0.00295449
0.00291498
0.00279744
0.00260335
0.00233565
0.00199861
0.00159772
0.00113955
0.000631493
8.16171e-05
-0.000501638
-0.00110994
-0.00173506
-0.00236551
-0.00299041
-0.00364897
-0.00438046
-0.000273442
-0.00104078
-0.00164352
-0.00213631
-0.00258014
-0.002978
-0.00333261
-0.00365069
-0.00393864
-0.00420211
-0.00444623
-0.00467557
-0.00489411
-0.00510521
-0.00531166
-0.00551566
-0.00571885
-0.00592235
-0.00612679
-0.00633231
-0.0065386
-0.00674495
-0.00695027
-0.00715309
-0.00735163
-0.0075438
-0.00772726
-0.00789942
-0.0080575
-0.00819855
-0.00831953
-0.00841731
-0.00848872
-0.00853063
-0.00854001
-0.00851395
-0.00844974
-0.00834496
-0.00819753
-0.00800578
-0.00776851
-0.0074851
-0.00715554
-0.0067805
-0.00636142
-0.00590052
-0.00540085
-0.00486635
-0.00430181
-0.00371289
-0.00310607
-0.0024886
-0.00186845
-0.00125413
-0.000654615
-7.91478e-05
0.000462933
0.00096241
0.0014104
0.00179861
0.00211951
0.00236664
0.00253474
0.00261994
0.00261995
0.00253406
0.00236325
0.00211016
0.00177897
0.00137532
0.000906115
0.000379279
-0.00019645
-0.00081183
-0.00145768
-0.00212487
-0.00280073
-0.00347323
-0.00418494
-0.00497833
-0.000918266
-0.00169916
-0.0023125
-0.00281407
-0.0032661
-0.00367183
-0.00403421
-0.00436025
-0.00465663
-0.00492924
-0.00518343
-0.00542395
-0.00565491
-0.00587982
-0.00610154
-0.00632233
-0.00654389
-0.00676735
-0.00699331
-0.00722191
-0.00745278
-0.00768515
-0.00791783
-0.00814927
-0.00837754
-0.00860042
-0.0088154
-0.00901968
-0.00921029
-0.00938402
-0.00953757
-0.00966749
-0.00977032
-0.00984256
-0.0098808
-0.00988173
-0.00984222
-0.00975942
-0.00963076
-0.00945413
-0.00922786
-0.00895087
-0.0086227
-0.00824363
-0.00781471
-0.00733786
-0.00681588
-0.00625254
-0.00565257
-0.00502167
-0.00436652
-0.00369467
-0.00301454
-0.00233525
-0.00166654
-0.00101855
-0.000401667
0.000173743
0.00069755
0.00116013
0.00155263
0.00186725
0.00209744
0.00223818
0.00228611
0.00223967
0.00209919
0.00186687
0.00154675
0.00114452
0.000667402
0.000123855
-0.000476672
-0.00112408
-0.00180825
-0.00251909
-0.0032426
-0.00396554
-0.00473403
-0.00559404
-0.00163671
-0.00242907
-0.00305149
-0.0035607
-0.00402003
-0.00443295
-0.00480263
-0.00513635
-0.00544107
-0.00572291
-0.00598741
-0.0062395
-0.00648344
-0.00672284
-0.00696067
-0.00719924
-0.00744028
-0.00768494
-0.00793383
-0.00818705
-0.0084442
-0.00870443
-0.00896649
-0.0092287
-0.00948904
-0.00974513
-0.00999428
-0.0102335
-0.0104596
-0.0106692
-0.0108586
-0.0110241
-0.0111619
-0.0112682
-0.0113391
-0.0113708
-0.0113598
-0.0113029
-0.0111968
-0.0110389
-0.0108272
-0.0105599
-0.0102362
-0.00985579
-0.00941929
-0.00892823
-0.00838511
-0.00779343
-0.0071578
-0.00648391
-0.00577853
-0.00504948
-0.00430561
-0.00355664
-0.00281306
-0.00208595
-0.00138678
-0.000727172
-0.000118612
0.000427827
0.00090179
0.00129395
0.00159631
0.00180244
0.00190775
0.00190963
0.00180758
0.00160323
0.00130031
0.000904531
0.000423363
-0.000134208
-0.000757988
-0.00143696
-0.00216001
-0.00291595
-0.00368937
-0.00446563
-0.00529473
-0.0062264
-0.00242989
-0.00323159
-0.00386152
-0.00437723
-0.00484295
-0.00526235
-0.00563885
-0.00597998
-0.00629294
-0.00658407
-0.00685911
-0.00712315
-0.00738059
-0.00763516
-0.00788989
-0.00814719
-0.0084088
-0.00867591
-0.00894911
-0.00922848
-0.00951359
-0.00980354
-0.010097
-0.0103922
-0.010687
-0.0109788
-0.0112649
-0.011542
-0.0118067
-0.0120554
-0.0122842
-0.0124889
-0.0126655
-0.0128097
-0.0129172
-0.0129839
-0.0130058
-0.0129788
-0.0128995
-0.0127647
-0.0125715
-0.0123178
-0.0120021
-0.0116236
-0.0111824
-0.0106795
-0.010117
-0.00949817
-0.00882725
-0.0081099
-0.00735291
-0.00656432
-0.00575333
-0.00493023
-0.00410626
-0.00329346
-0.00250444
-0.00175211
-0.00104945
-0.000409117
0.000156868
0.000637472
0.001023
0.00130543
0.0014787
0.00153891
0.00148452
0.00131642
0.0010379
0.000654546
0.000174027
-0.00039417
-0.00103909
-0.00174874
-0.00251092
-0.00331327
-0.00413878
-0.00497134
-0.00586507
-0.00687372
-0.00329862
-0.0041075
-0.00474337
-0.00526441
-0.00573558
-0.00616078
-0.00654359
-0.00689183
-0.00721291
-0.00751338
-0.00779916
-0.00807549
-0.00834692
-0.00861728
-0.00888969
-0.0091666
-0.00944983
-0.00974056
-0.0100394
-0.0103464
-0.0106612
-0.0109827
-0.0113095
-0.0116399
-0.0119715
-0.0123016
-0.0126274
-0.0129454
-0.0132519
-0.0135431
-0.0138148
-0.0140626
-0.0142819
-0.0144682
-0.0146168
-0.0147229
-0.014782
-0.0147897
-0.0147419
-0.0146346
-0.0144645
-0.0142288
-0.0139253
-0.0135526
-0.0131102
-0.0125985
-0.0120192