/*--------------------------------*- C++ -*----------------------------------*\
  =========                 |
  \\      /  F ield         | OpenFOAM: The Open Source CFD Toolbox
   \\    /   O peration     | Website:  https://openfoam.org
    \\  /    A nd           | Version:  7
     \\/     M anipulation  |
\*---------------------------------------------------------------------------*/
FoamFile
{
    version     2.0;
    format      ascii;
    class       surfaceScalarField;
    location    "1";
    object      phi;
}
// * * * * * * * * * * * * * * * * * * * * * * * * * * * * * * * * * * * * * //

dimensions      [0 3 -1 0 0 0 0];

internalField   nonuniform List<scalar> 
12640
(
2.25686e-10
-2.19914e-10
6.15179e-10
-3.89533e-10
9.29442e-10
-3.14223e-10
1.03585e-09
-1.0647e-10
8.75666e-10
1.60196e-10
4.29719e-10
4.45951e-10
-2.98953e-10
7.28668e-10
-1.29532e-09
9.9639e-10
-2.5381e-09
1.24279e-09
-4.00301e-09
1.4649e-09
-5.66476e-09
1.66174e-09
-7.49832e-09
1.83356e-09
-9.47956e-09
1.98126e-09
-1.15857e-08
2.10611e-09
-1.37953e-08
2.20959e-09
-1.60885e-08
2.29325e-09
-1.8447e-08
2.35852e-09
-2.08538e-08
2.40675e-09
-2.32929e-08
2.43913e-09
-2.57496e-08
2.45667e-09
-2.82098e-08
2.46021e-09
-3.06602e-08
2.45039e-09
-3.30879e-08
2.42769e-09
-3.54803e-08
2.39241e-09
-3.7825e-08
2.34472e-09
-4.01097e-08
2.28468e-09
-4.2322e-08
2.21229e-09
-4.44494e-08
2.12744e-09
-4.64795e-08
2.03004e-09
-4.83994e-08
1.91997e-09
-5.01966e-08
1.79715e-09
-5.18581e-08
1.66156e-09
-5.33714e-08
1.51325e-09
-5.47238e-08
1.35242e-09
-5.59032e-08
1.17935e-09
-5.68977e-08
9.94517e-10
-5.76962e-08
7.98548e-10
-5.82885e-08
5.92256e-10
-5.86651e-08
3.76647e-10
-5.88181e-08
1.5294e-10
-5.87406e-08
-7.74556e-11
-5.84277e-08
-3.12924e-10
-5.7876e-08
-5.51649e-10
-5.70844e-08
-7.91647e-10
-5.60536e-08
-1.03076e-09
-5.47869e-08
-1.2667e-09
-5.32899e-08
-1.49703e-09
-5.15706e-08
-1.71928e-09
-4.96397e-08
-1.9309e-09
-4.75104e-08
-2.12932e-09
-4.51984e-08
-2.31202e-09
-4.27218e-08
-2.47658e-09
-4.01012e-08
-2.62066e-09
-3.7359e-08
-2.74211e-09
-3.452e-08
-2.839e-09
-3.16104e-08
-2.90964e-09
-2.86578e-08
-2.95265e-09
-2.56908e-08
-2.96697e-09
-2.27389e-08
-2.9519e-09
-1.98317e-08
-2.90714e-09
-1.6999e-08
-2.83275e-09
-1.42698e-08
-2.72924e-09
-1.16722e-08
-2.59753e-09
-9.23327e-09
-2.43895e-09
-6.97803e-09
-2.25524e-09
-4.92947e-09
-2.04856e-09
-3.10799e-09
-1.82148e-09
-1.531e-09
-1.57699e-09
-2.12459e-10
-1.31854e-09
8.3765e-10
-1.05011e-09
1.61392e-09
-7.76271e-10
2.11641e-09
-5.02487e-10
2.35185e-09
-2.35433e-10
2.33541e-09
1.64498e-11
2.09375e-09
2.41663e-10
1.66931e-09
4.24454e-10
1.12715e-09
5.42169e-10
5.65781e-10
5.61347e-10
1.33104e-10
4.32627e-10
1.33056e-10
3.93744e-10
-6.13691e-10
8.97274e-10
-8.93005e-10
1.12506e-09
-5.42064e-10
8.42979e-10
1.75693e-10
-8.0827e-11
1.08402e-09
-1.70417e-09
2.06923e-09
-4.03563e-09
3.06012e-09
-7.05203e-09
4.01282e-09
-1.07108e-08
4.9016e-09
-1.49583e-08
5.71236e-09
-1.9735e-08
6.43845e-09
-2.49794e-08
7.07797e-09
-3.06302e-08
7.63205e-09
-3.66279e-08
8.10373e-09
-4.29153e-08
8.49704e-09
-4.94385e-08
8.81647e-09
-5.61466e-08
9.0666e-09
-6.29916e-08
9.25176e-09
-6.99284e-08
9.37589e-09
-7.69141e-08
9.44244e-09
-8.39082e-08
9.45428e-09
-9.08715e-08
9.41372e-09
-9.77663e-08
9.32249e-09
-1.04556e-07
9.1818e-09
-1.11203e-07
8.99239e-09
-1.17673e-07
8.75468e-09
-1.2393e-07
8.46876e-09
-1.29937e-07
8.13457e-09
-1.35659e-07
7.75193e-09
-1.4106e-07
7.32072e-09
-1.46103e-07
6.84091e-09
-1.50755e-07
6.31274e-09
-1.54978e-07
5.73673e-09
-1.5874e-07
5.11382e-09
-1.62006e-07
4.44546e-09
-1.64745e-07
3.73363e-09
-1.66927e-07
2.98094e-09
-1.68526e-07
2.19067e-09
-1.69516e-07
1.3668e-09
-1.69877e-07
5.14028e-10
-1.69592e-07
-3.62208e-10
-1.68649e-07
-1.25578e-09
-1.67041e-07
-2.15987e-09
-1.64766e-07
-3.06701e-09
-1.61827e-07
-3.96918e-09
-1.58236e-07
-4.85787e-09
-1.54009e-07
-5.72417e-09
-1.49169e-07
-6.55889e-09
-1.43747e-07
-7.35272e-09
-1.3778e-07
-8.09633e-09
-1.31312e-07
-8.78052e-09
-1.24392e-07
-9.39642e-09
-1.17077e-07
-9.93564e-09
-1.09429e-07
-1.03904e-08
-1.01514e-07
-1.07537e-08
-9.34044e-08
-1.10194e-08
-8.51743e-08
-1.11827e-08
-7.69015e-08
-1.12398e-08
-6.86653e-08
-1.11881e-08
-6.05457e-08
-1.10268e-08
-5.26223e-08
-1.07561e-08
-4.49734e-08
-1.03782e-08
-3.76746e-08
-9.89634e-09
-3.07977e-08
-9.31575e-09
-2.441e-08
-8.64302e-09
-1.85721e-08
-7.88638e-09
-1.3338e-08
-7.05563e-09
-8.75268e-09
-6.16226e-09
-4.85166e-09
-5.21955e-09
-1.65895e-09
-4.24281e-09
8.14588e-10
-3.2498e-09
2.57351e-09
-2.2614e-09
3.64073e-09
-1.30264e-09
4.06164e-09
-4.04459e-10
3.90933e-09
3.9396e-10
3.29184e-09
1.04195e-09
2.36095e-09
1.47309e-09
1.32094e-09
1.60144e-09
4.30798e-10
1.32288e-09
5.63823e-10
3.2131e-10
-9.34962e-10
5.52543e-10
-1.12433e-09
2.64208e-10
-2.53695e-10
-8.12098e-10
1.252e-09
-2.83697e-09
3.10884e-09
-5.88768e-09
5.11998e-09
-9.98044e-09
7.15291e-09
-1.50891e-08
9.12142e-09
-2.11589e-08
1.09714e-08
-2.81174e-08
1.26708e-08
-3.58812e-08
1.42023e-08
-4.43622e-08
1.55589e-08
-5.34704e-08
1.67403e-08
-6.3117e-08
1.77502e-08
-7.32154e-08
1.85955e-08
-8.36827e-08
1.92838e-08
-9.44396e-08
1.98235e-08
-1.05411e-07
2.0223e-08
-1.16525e-07
2.04897e-08
-1.27713e-07
2.06304e-08
-1.38909e-07
2.06508e-08
-1.50051e-07
2.05557e-08
-1.61077e-07
2.03486e-08
-1.71927e-07
2.00321e-08
-1.82543e-07
1.9608e-08
-1.92866e-07
1.90774e-08
-2.02838e-07
1.84406e-08
-2.12401e-07
1.7698e-08
-2.21499e-07
1.68495e-08
-2.30073e-07
1.58953e-08
-2.38068e-07
1.48358e-08
-2.45427e-07
1.36719e-08
-2.52096e-07
1.24051e-08
-2.5802e-07
1.1038e-08
-2.63149e-07
9.57411e-09
-2.67433e-07
8.01805e-09
-2.70828e-07
6.3758e-09
-2.73292e-07
4.65474e-09
-2.74789e-07
2.86371e-09
-2.75288e-07
1.01299e-09
-2.74764e-07
-8.85583e-10
-2.73201e-07
-2.81875e-09
-2.70589e-07
-4.77185e-09
-2.66928e-07
-6.72893e-09
-2.62224e-07
-8.67289e-09
-2.56496e-07
-1.05856e-08
-2.49772e-07
-1.24483e-08
-2.42089e-07
-1.42415e-08
-2.33496e-07
-1.59456e-08
-2.24052e-07
-1.75411e-08
-2.13824e-07
-1.90085e-08
-2.02891e-07
-2.03294e-08
-1.9134e-07
-2.14862e-08
-1.79268e-07
-2.24626e-08
-1.66777e-07
-2.32441e-08
-1.53979e-07
-2.38181e-08
-1.40987e-07
-2.41743e-08
-1.27922e-07
-2.43049e-08
-1.14905e-07
-2.4205e-08
-1.02059e-07
-2.38725e-08
-8.9507e-08
-2.33084e-08
-7.7368e-08
-2.25171e-08
-6.57581e-08
-2.15062e-08
-5.47872e-08
-2.02866e-08
-4.45577e-08
-1.88726e-08
-3.51622e-08
-1.72819e-08
-2.66821e-08
-1.55357e-08
-1.91855e-08
-1.36589e-08
-1.27249e-08
-1.16802e-08
-7.33509e-09
-9.63258e-09
-3.03054e-09
-7.55435e-09
1.9795e-10
-5.48988e-09
2.38698e-09
-3.49166e-09
3.60514e-09
-1.62261e-09
3.95899e-09
4.01151e-11
3.59922e-09
1.40168e-09
2.72866e-09
2.3436e-09
1.6081e-09
2.72198e-09
5.60616e-10
2.37042e-09
1.12443e-09
1.15181e-10
-1.05019e-09
-1.68766e-10
-8.40318e-10
-1.25736e-09
8.34896e-10
-3.41214e-09
3.40676e-09
-6.79195e-09
6.48864e-09
-1.14743e-08
9.8024e-09
-1.7474e-08
1.31526e-08
-2.47594e-08
1.64067e-08
-3.32657e-08
1.94778e-08
-4.29062e-08
2.23113e-08
-5.35799e-08
2.4876e-08
-6.5178e-08
2.7157e-08
-7.75882e-08
2.91505e-08
-9.06981e-08
3.08601e-08
-1.04397e-07
3.22943e-08
-1.18577e-07
3.34641e-08
-1.33136e-07
3.43818e-08
-1.47972e-07
3.50597e-08
-1.62992e-07
3.55094e-08
-1.78103e-07
3.57415e-08
-1.93217e-07
3.57651e-08
-2.0825e-07
3.55877e-08
-2.23116e-07
3.52152e-08
-2.37736e-07
3.46519e-08
-2.52029e-07
3.3901e-08
-2.65916e-07
3.29646e-08
-2.79319e-07
3.18437e-08
-2.9216e-07
3.05392e-08
-3.04362e-07
2.90516e-08
-3.15849e-07
2.73818e-08
-3.26544e-07
2.5531e-08
-3.36374e-07
2.35015e-08
-3.45265e-07
2.12966e-08
-3.53148e-07
1.89211e-08
-3.59956e-07
1.63818e-08
-3.65625e-07
1.3687e-08
-3.70096e-07
1.08475e-08
-3.73318e-07
7.87641e-09
-3.75244e-07
4.78906e-09
-3.75834e-07
1.60337e-09
-3.75059e-07
-1.66033e-09
-3.72899e-07
-4.97932e-09
-3.69342e-07
-8.32858e-09
-3.6439e-07
-1.1681e-08
-3.58055e-07
-1.50077e-08
-3.50362e-07
-1.82781e-08
-3.4135e-07
-2.14604e-08
-3.3107e-07
-2.45222e-08
-3.19585e-07
-2.74305e-08
-3.06973e-07
-3.01524e-08
-2.93326e-07
-3.26559e-08
-2.78746e-07
-3.49098e-08
-2.63347e-07
-3.68849e-08
-2.47255e-07
-3.85543e-08
-2.30606e-07
-3.98935e-08
-2.13542e-07
-4.08819e-08
-1.96214e-07
-4.15023e-08
-1.78777e-07
-4.17419e-08
-1.6139e-07
-4.15925e-08
-1.44211e-07
-4.10509e-08
-1.274e-07
-4.01191e-08
-1.11113e-07
-3.88045e-08
-9.54994e-08
-3.712e-08
-8.07016e-08
-3.50843e-08
-6.68523e-08
-3.27219e-08
-5.40714e-08
-3.00628e-08
-4.24639e-08
-2.71433e-08
-3.21171e-08
-2.40056e-08
-2.30986e-08
-2.06987e-08
-1.54524e-08
-1.72787e-08
-9.19678e-09
-1.381e-08
-4.31993e-09
-1.03667e-08
-7.76429e-10
-7.03516e-09
1.5176e-09
-3.91662e-09
2.68933e-09
-1.13158e-09
2.91535e-09
1.17568e-09
2.42716e-09
2.83179e-09
1.51781e-09
3.63128e-09
5.5111e-10
3.33714e-09
1.67554e-09
-1.56239e-10
-8.93927e-10
-1.106e-09
1.09471e-10
-3.18584e-09
2.91469e-09
-6.6195e-09
6.8404e-09
-1.15423e-08
1.14115e-08
-1.80165e-08
1.62766e-08
-2.60454e-08
2.11815e-08
-3.55869e-08
2.59483e-08
-4.65651e-08
3.0456e-08
-5.88801e-08
3.46263e-08
-7.24159e-08
3.84119e-08
-8.70471e-08
4.17882e-08
-1.02643e-07
4.47465e-08
-1.19072e-07
4.72891e-08
-1.36203e-07
4.94254e-08
-1.53908e-07
5.11691e-08
-1.72063e-07
5.25362e-08
-1.90546e-07
5.3543e-08
-2.09242e-07
5.42054e-08
-2.28038e-07
5.45377e-08
-2.46826e-07
5.45528e-08
-2.65499e-07
5.4261e-08
-2.83955e-07
5.36709e-08
-3.02092e-07
5.27891e-08
-3.19811e-07
5.16201e-08
-3.37014e-07
5.01674e-08
-3.53603e-07
4.84331e-08
-3.69483e-07
4.64189e-08
-3.84558e-07
4.41265e-08
-3.98734e-07
4.15576e-08
-4.11918e-07
3.87151e-08
-4.2402e-07
3.56032e-08
-4.34951e-07
3.22276e-08
-4.44626e-07
2.85965e-08
-4.52965e-07
2.47207e-08
-4.59892e-07
2.06136e-08
-4.65336e-07
1.62921e-08
-4.69236e-07
1.17763e-08
-4.71537e-07
7.08993e-09
-4.72194e-07
2.26013e-09
-4.71172e-07
-2.68225e-09
-4.68448e-07
-7.70296e-09
-4.64012e-07
-1.27645e-08
-4.57867e-07
-1.78263e-08
-4.5003e-07
-2.28451e-08
-4.40532e-07
-2.77757e-08
-4.29422e-07
-3.25707e-08
-4.16762e-07
-3.71821e-08
-4.02631e-07
-4.15611e-08
-3.87124e-07
-4.56592e-08
-3.70351e-07
-4.94289e-08
-3.52437e-07
-5.28246e-08
-3.33518e-07
-5.58031e-08
-3.13748e-07
-5.83246e-08
-2.93288e-07
-6.03536e-08
-2.72311e-07
-6.18593e-08
-2.50996e-07
-6.28167e-08
-2.29531e-07
-6.3207e-08
-2.08106e-07
-6.30183e-08
-1.86911e-07
-6.22459e-08
-1.66137e-07
-6.0893e-08
-1.4597e-07
-5.89707e-08
-1.26592e-07
-5.64986e-08
-1.08172e-07
-5.35044e-08
-9.08692e-08
-5.00246e-08
-7.48275e-08
-4.61045e-08
-6.01728e-08
-4.1798e-08
-4.70099e-08
-3.71685e-08
-3.54198e-08
-3.22888e-08
-2.54562e-08
-2.72423e-08
-1.71422e-08
-2.2124e-08
-1.04665e-08
-1.70425e-08
-5.37965e-09
-1.2122e-08
-1.79006e-09
-7.50623e-09
4.4063e-10
-3.36228e-09
1.5021e-09
1.1423e-10
1.64038e-09
2.69353e-09
1.16413e-09
4.10752e-09
4.55053e-10
4.04621e-09
2.13059e-09
-4.57334e-10
-4.36607e-10
-2.15892e-09
1.81098e-09
-5.35063e-09
6.10643e-09
-1.01982e-08
1.1688e-08
-1.67973e-08
1.80106e-08
-2.51824e-08
2.46617e-08
-3.53365e-08
3.13356e-08
-4.72011e-08
3.78129e-08
-6.0686e-08
4.39409e-08
-7.56775e-08
4.96177e-08
-9.20454e-08
5.47798e-08
-1.09649e-07
5.9392e-08
-1.28343e-07
6.34401e-08
-1.47978e-07
6.6924e-08
-1.68406e-07
6.98537e-08
-1.89482e-07
7.22449e-08
-2.11063e-07
7.41169e-08
-2.33009e-07
7.54899e-08
-2.55188e-07
7.63836e-08
-2.77466e-07
7.68165e-08
-2.99719e-07
7.68049e-08
-3.2182e-07
7.63624e-08
-3.43649e-07
7.55003e-08
-3.65088e-07
7.42273e-08
-3.86017e-07
7.25499e-08
-4.06323e-07
7.04731e-08
-4.2589e-07
6.80005e-08
-4.44606e-07
6.51348e-08
-4.62359e-07
6.18792e-08
-4.79039e-07
5.82371e-08
-4.94537e-07
5.42133e-08
-5.08748e-07
4.98146e-08
-5.21571e-07
4.50501e-08
-5.32906e-07
3.99321e-08
-5.42662e-07
3.44763e-08
-5.50751e-07
2.87026e-08
-5.57094e-07
2.26349e-08
-5.61619e-07
1.6302e-08
-5.64266e-07
9.73712e-09
-5.64985e-07
2.97854e-09
-5.63736e-07
-3.93079e-09
-5.60496e-07
-1.09433e-08
-5.55253e-07
-1.80069e-08
-5.48014e-07
-2.50658e-08
-5.38799e-07
-3.20604e-08
-5.27646e-07
-3.89283e-08
-5.14612e-07
-4.56048e-08
-4.9977e-07
-5.2024e-08
-4.83212e-07
-5.81192e-08
-4.65047e-07
-6.38242e-08
-4.45402e-07
-6.90741e-08
-4.2442e-07
-7.38065e-08
-4.0226e-07
-7.79627e-08
-3.79096e-07
-8.14885e-08
-3.55115e-07
-8.43353e-08
-3.30512e-07
-8.64614e-08
-3.05497e-07
-8.78326e-08
-2.8028e-07
-8.84232e-08
-2.55081e-07
-8.82171e-08
-2.30119e-07
-8.72081e-08
-2.05612e-07
-8.54003e-08
-1.81773e-07
-8.28094e-08
-1.5881e-07
-7.94618e-08
-1.36918e-07
-7.53961e-08
-1.1628e-07
-7.06624e-08
-9.70619e-08
-6.5323e-08
-7.94079e-08
-5.9452e-08
-6.34398e-08
-5.31365e-08
-4.92521e-08
-4.64765e-08
-3.69087e-08
-3.95857e-08
-2.64396e-08
-3.25931e-08
-1.78372e-08
-2.56448e-08
-1.10529e-08
-1.89063e-08
-5.99333e-09
-1.25658e-08
-2.51684e-09
-6.83878e-09
-4.29761e-10
-1.97285e-09
5.17727e-10
1.74606e-09
6.36661e-10
3.98858e-09
3.07221e-10
4.37565e-09
2.43781e-09
-7.69183e-10
3.32574e-10
-3.26648e-09
4.30826e-09
-7.63996e-09
1.04799e-08
-1.39862e-08
1.80343e-08
-2.23503e-08
2.63746e-08
-3.27293e-08
3.50407e-08
-4.50782e-08
4.36845e-08
-5.93168e-08
5.20515e-08
-7.53368e-08
5.99608e-08
-9.30085e-08
6.72894e-08
-1.12187e-07
7.39584e-08
-1.32718e-07
7.99228e-08
-1.5444e-07
8.51624e-08
-1.77191e-07
8.96747e-08
-2.00807e-07
9.34697e-08
-2.25127e-07
9.6565e-08
-2.49993e-07
9.89827e-08
-2.7525e-07
1.00747e-07
-3.00747e-07
1.01881e-07
-3.26336e-07
1.02406e-07
-3.51876e-07
1.02344e-07
-3.77224e-07
1.01711e-07
-4.02243e-07
1.0052e-07
-4.26798e-07
9.87826e-08
-4.50756e-07
9.65079e-08
-4.73986e-07
9.37022e-08
-4.96356e-07
9.03706e-08
-5.17739e-07
8.65178e-08
-5.38008e-07
8.21484e-08
-5.57039e-07
7.7268e-08
-5.7471e-07
7.18841e-08
-5.90902e-07
6.60065e-08
-6.055e-07
5.96485e-08
-6.18395e-07
5.28274e-08
-6.29484e-07
4.55648e-08
-6.38669e-07
3.78877e-08
-6.45862e-07
2.98286e-08
-6.50986e-07
2.14258e-08
-6.53973e-07
1.27237e-08
-6.54767e-07
3.77302e-09
-6.53328e-07
-5.36973e-09
-6.4963e-07
-1.4642e-08
-6.43661e-07
-2.39757e-08
-6.35429e-07
-3.32978e-08
-6.24959e-07
-4.25306e-08
-6.12294e-07
-5.1593e-08
-5.97498e-07
-6.04009e-08
-5.80653e-07
-6.88687e-08
-5.61862e-07
-7.691e-08
-5.41248e-07
-8.44389e-08
-5.1895e-07
-9.13714e-08
-4.9513e-07
-9.76269e-08
-4.69963e-07
-1.03129e-07
-4.43644e-07
-1.07808e-07
-4.16378e-07
-1.11601e-07
-3.88386e-07
-1.14454e-07
-3.59897e-07
-1.16321e-07
-3.31149e-07
-1.17171e-07
-3.02383e-07
-1.16982e-07
-2.73845e-07
-1.15746e-07
-2.45778e-07
-1.13468e-07
-2.18419e-07
-1.10168e-07
-1.92e-07
-1.05881e-07
-1.6674e-07
-1.00656e-07
-1.42844e-07
-9.45585e-08
-1.20498e-07
-8.76695e-08
-9.98644e-08
-8.00854e-08
-8.10821e-08
-7.19188e-08
-6.42595e-08
-6.32991e-08
-4.94721e-08
-5.43731e-08
-3.67592e-08
-4.53061e-08
-2.61199e-08
-3.6284e-08
-1.75108e-08
-2.75154e-08
-1.0842e-08
-1.92346e-08
-5.97475e-09
-1.17061e-08
-2.71846e-09
-5.22914e-09
-8.28054e-10
-1.4435e-10
-6.51002e-13
3.16117e-09
1.29771e-10
4.24522e-09
2.56758e-09
-1.08183e-09
1.41442e-09
-4.39224e-09
7.61868e-09
-9.98248e-09
1.60701e-08
-1.78748e-08
2.59266e-08
-2.80572e-08
3.6557e-08
-4.04825e-08
4.7466e-08
-5.50718e-08
5.82738e-08
-7.17181e-08
6.86977e-08
-9.02914e-08
7.85341e-08
-1.10644e-07
8.76419e-08
-1.32615e-07
9.59293e-08
-1.56035e-07
1.03343e-07
-1.80729e-07
1.09857e-07
-2.06521e-07
1.15467e-07
-2.33234e-07
1.20183e-07
-2.60693e-07
1.24024e-07
-2.88725e-07
1.27015e-07
-3.17163e-07
1.29184e-07
-3.45841e-07
1.30558e-07
-3.74597e-07
1.31162e-07
-4.03273e-07
1.3102e-07
-4.31714e-07
1.30152e-07
-4.59768e-07
1.28574e-07
-4.87286e-07
1.263e-07
-5.14119e-07
1.23341e-07
-5.40121e-07
1.19705e-07
-5.65149e-07
1.15399e-07
-5.89061e-07
1.10429e-07
-6.11716e-07
1.04803e-07
-6.32977e-07
9.8529e-08
-6.52709e-07
9.16167e-08
-6.70783e-07
8.40802e-08
-6.87072e-07
7.59374e-08
-7.01456e-07
6.72112e-08
-7.13821e-07
5.79302e-08
-7.24063e-07
4.81294e-08
-7.32085e-07
3.78508e-08
-7.37803e-07
2.71434e-08
-7.41143e-07
1.60638e-08
-7.42046e-07
4.67627e-09
-7.40468e-07
-6.94765e-09
-7.36381e-07
-1.87291e-08
-7.29774e-07
-3.05826e-08
-7.20656e-07
-4.24163e-08
-7.09053e-07
-5.41332e-08
-6.95014e-07
-6.56315e-08
-6.78609e-07
-7.68065e-08
-6.59927e-07
-8.7551e-08
-6.39079e-07
-9.77572e-08
-6.162e-07
-1.07318e-07
-5.91442e-07
-1.16129e-07
-5.64979e-07
-1.2409e-07
-5.37004e-07
-1.31105e-07
-5.07726e-07
-1.37086e-07
-4.77371e-07
-1.41956e-07
-4.46178e-07
-1.45647e-07
-4.14396e-07
-1.48103e-07
-3.82286e-07
-1.49282e-07
-3.50111e-07
-1.49157e-07
-3.18139e-07
-1.47718e-07
-2.86636e-07
-1.44971e-07
-2.55863e-07
-1.40941e-07
-2.26074e-07
-1.3567e-07
-1.97509e-07
-1.2922e-07
-1.70396e-07
-1.21672e-07
-1.4494e-07
-1.13126e-07
-1.21322e-07
-1.03703e-07
-9.96994e-08
-9.35419e-08
-8.01941e-08
-8.28043e-08
-6.28958e-08
-7.16714e-08
-4.78552e-08
-6.03467e-08
-3.50818e-08
-4.90575e-08
-2.45406e-08
-3.80566e-08
-1.61499e-08
-2.76253e-08
-9.77871e-09
-1.80772e-08
-5.24541e-09
-9.76246e-09
-2.31583e-09
-3.07393e-09
-7.02275e-10
1.54761e-09
-6.29713e-11
3.60591e-09
2.5046e-09
-1.39013e-09
2.80457e-09
-5.51491e-09
1.17434e-08
-1.23332e-08
2.28884e-08
-2.17919e-08
3.53854e-08
-3.38185e-08
4.85835e-08
-4.83174e-08
6.1965e-08
-6.51713e-08
7.51277e-08
-8.42424e-08
8.77688e-08
-1.05376e-07
9.96675e-08
-1.28403e-07
1.10669e-07
-1.53147e-07
1.20673e-07
-1.79421e-07
1.29617e-07
-2.07038e-07
1.37473e-07
-2.35807e-07
1.44236e-07
-2.6554e-07
1.49915e-07
-2.96048e-07
1.54532e-07
-3.27147e-07
1.58115e-07
-3.58657e-07
1.60694e-07
-3.90398e-07
1.62299e-07
-4.22197e-07
1.62961e-07
-4.53883e-07
1.62706e-07
-4.85288e-07
1.61557e-07
-5.16247e-07
1.59533e-07
-5.46597e-07
1.5665e-07
-5.76177e-07
1.52921e-07
-6.0483e-07
1.48357e-07
-6.32398e-07
1.42967e-07
-6.58727e-07
1.36758e-07
-6.83665e-07
1.29741e-07
-7.07063e-07
1.21927e-07
-7.28774e-07
1.13328e-07
-7.48659e-07
1.03965e-07
-7.6658e-07
9.38585e-08
-7.82408e-07
8.30391e-08
-7.9602e-07
7.15428e-08
-8.07304e-07
5.94133e-08
-8.16156e-07
4.67028e-08
-8.22485e-07
3.34721e-08
-8.26212e-07
1.9791e-08
-8.27274e-07
5.73826e-09
-8.25623e-07
-8.59849e-09
-8.21229e-07
-2.3123e-08
-8.14081e-07
-3.77309e-08
-8.04187e-07
-5.23107e-08
-7.91576e-07
-6.67442e-08
-7.76299e-07
-8.09082e-08
-7.5843e-07
-9.46754e-08
-7.38065e-07
-1.07916e-07
-7.15323e-07
-1.20499e-07
-6.90345e-07
-1.32296e-07
-6.63296e-07
-1.43179e-07
-6.3436e-07
-1.53025e-07
-6.03744e-07
-1.61721e-07
-5.71672e-07
-1.69158e-07
-5.38386e-07
-1.75243e-07
-5.04142e-07
-1.79891e-07
-4.69208e-07
-1.83036e-07
-4.33864e-07
-1.84626e-07
-3.98395e-07
-1.84626e-07
-3.63088e-07
-1.83025e-07
-3.28232e-07
-1.79827e-07
-2.9411e-07
-1.75063e-07
-2.60998e-07
-1.68783e-07
-2.29158e-07
-1.6106e-07
-1.98837e-07
-1.51992e-07
-1.70262e-07
-1.41701e-07
-1.43635e-07
-1.3033e-07
-1.19128e-07
-1.18049e-07
-9.68821e-08
-1.0505e-07
-7.70019e-08
-9.15516e-08
-5.95522e-08
-7.77964e-08
-4.45556e-08
-6.40541e-08
-3.19893e-08
-5.06229e-08
-2.17833e-08
-3.78313e-08
-1.38188e-08
-2.60417e-08
-7.92736e-09
-1.5654e-08
-3.89036e-09
-7.11093e-09
-1.44027e-09
-9.02482e-10
-2.62579e-10
2.42822e-09
2.24202e-09
-1.69154e-09
4.49609e-09
-6.62209e-09
1.6674e-08
-1.46638e-08
3.093e-08
-2.56898e-08
4.64114e-08
-3.95657e-08
6.24594e-08
-5.61453e-08
7.85446e-08
-7.52697e-08
9.4252e-08
-9.67674e-08
1.09267e-07
-1.20456e-07
1.23356e-07
-1.46146e-07
1.36359e-07
-1.73638e-07
1.48165e-07
-2.02732e-07
1.58711e-07
-2.33225e-07
1.67967e-07
-2.64915e-07
1.75925e-07
-2.97599e-07
1.82599e-07
-3.31079e-07
1.88012e-07
-3.65159e-07
1.92194e-07
-3.99645e-07
1.9518e-07
-4.3435e-07
1.97004e-07
-4.69088e-07
1.97699e-07
-5.03676e-07
1.97295e-07
-5.37936e-07
1.95817e-07
-5.71691e-07
1.93288e-07
-6.04767e-07
1.89726e-07
-6.36991e-07
1.85146e-07
-6.68195e-07
1.79561e-07
-6.98209e-07
1.72981e-07
-7.26869e-07
1.65418e-07
-7.54012e-07
1.56884e-07
-7.79478e-07
1.47393e-07
-8.03111e-07
1.36962e-07
-8.2476e-07
1.25614e-07
-8.4428e-07
1.13378e-07
-8.61532e-07
1.00291e-07
-8.76385e-07
8.63962e-08
-8.8872e-07
7.17473e-08
-8.98424e-07
5.64074e-08
-9.05401e-07
4.04495e-08
-9.09568e-07
2.39575e-08
-9.10855e-07
7.02548e-09
-9.09212e-07
-1.02419e-08
-9.04605e-07
-2.77299e-08
-8.97021e-07
-4.53147e-08
-8.86468e-07
-6.28636e-08
-8.72976e-07
-8.02367e-08
-8.56596e-07
-9.72876e-08
-8.37406e-07
-1.13866e-07
-8.15505e-07
-1.29817e-07
-7.91019e-07
-1.44986e-07
-7.64094e-07
-1.5922e-07
-7.34905e-07
-1.72368e-07
-7.03645e-07
-1.84285e-07
-6.70532e-07
-1.94834e-07
-6.35803e-07
-2.03887e-07
-5.99714e-07
-2.11332e-07
-5.62537e-07
-2.17068e-07
-5.24558e-07
-2.21015e-07
-4.86074e-07
-2.2311e-07
-4.47388e-07
-2.23312e-07
-4.08811e-07
-2.21602e-07
-3.70649e-07
-2.17989e-07
-3.3321e-07
-2.12503e-07
-2.96789e-07
-2.05204e-07
-2.61671e-07
-1.96177e-07
-2.28126e-07
-1.85538e-07
-1.964e-07
-1.73427e-07
-1.66716e-07
-1.60014e-07
-1.39267e-07
-1.45498e-07
-1.14212e-07
-1.30105e-07
-9.16733e-08
-1.1409e-07
-7.17326e-08
-9.77371e-08
-5.44283e-08
-8.13584e-08
-3.9753e-08
-6.52982e-08
-2.76517e-08
-4.99326e-08
-1.80211e-08
-3.56724e-08
-1.0709e-08
-2.29661e-08
-5.51563e-09
-1.23043e-08
-2.19602e-09
-4.22209e-09
-4.64031e-10
6.96226e-10
1.77799e-09
-1.98483e-09
6.48089e-09
-7.70669e-09
2.23958e-08
-1.69568e-08
4.01802e-08
-2.95372e-08
5.89917e-08
-4.52518e-08
7.8174e-08
-6.3903e-08
9.71957e-08
-8.52885e-08
1.15638e-07
-1.09201e-07
1.33179e-07
-1.3543e-07
1.49585e-07
-1.63759e-07
1.64688e-07
-1.93972e-07
1.78377e-07
-2.25849e-07
1.90589e-07
-2.59174e-07
2.01291e-07
-2.9373e-07
2.10481e-07
-3.29303e-07
2.18173e-07
-3.65685e-07
2.24394e-07
-4.02669e-07
2.29178e-07
-4.40051e-07
2.32563e-07
-4.77634e-07
2.34587e-07
-5.15221e-07
2.35286e-07
-5.52621e-07
2.34695e-07
-5.89645e-07
2.3284e-07
-6.26105e-07
2.29748e-07
-6.61819e-07
2.25439e-07
-6.96603e-07
2.1993e-07
-7.30279e-07
2.13236e-07
-7.62668e-07
2.0537e-07
-7.93594e-07
1.96345e-07
-8.22886e-07
1.86176e-07
-8.50375e-07
1.74881e-07
-8.75894e-07
1.62481e-07
-8.99285e-07
1.49005e-07
-9.20393e-07
1.34486e-07
-9.39071e-07
1.18969e-07
-9.55181e-07
1.02506e-07
-9.68594e-07
8.51607e-08
-9.79194e-07
6.70072e-08
-9.86876e-07
4.81318e-08
-9.91551e-07
2.86327e-08
-9.93146e-07
8.62018e-09
-9.91604e-07
-1.17835e-08
-9.8689e-07
-3.24446e-08
-9.78986e-07
-5.32186e-08
-9.67898e-07
-7.39512e-08
-9.53655e-07
-9.44793e-08
-9.3631e-07
-1.14633e-07
-9.1594e-07
-1.34236e-07
-8.92647e-07
-1.5311e-07
-8.66559e-07
-1.71074e-07
-8.37829e-07
-1.8795e-07
-8.06637e-07
-2.0356e-07
-7.73185e-07
-2.17737e-07
-7.37699e-07
-2.30319e-07
-7.00429e-07
-2.41158e-07
-6.61642e-07
-2.50119e-07
-6.21624e-07
-2.57086e-07
-5.80679e-07
-2.61961e-07
-5.39118e-07
-2.6467e-07
-4.97266e-07
-2.65163e-07
-4.55451e-07
-2.63418e-07
-4.14002e-07
-2.59438e-07
-3.73247e-07
-2.53259e-07
-3.33503e-07
-2.44947e-07
-2.9508e-07
-2.34601e-07
-2.58268e-07
-2.2235e-07
-2.23338e-07
-2.08357e-07
-1.90533e-07
-1.92819e-07
-1.60068e-07
-1.75962e-07
-1.32125e-07
-1.58049e-07
-1.06844e-07
-1.39371e-07
-8.43272e-08
-1.20254e-07
-6.46318e-08
-1.01054e-07
-4.77681e-08
-8.21618e-08
-3.36993e-08
-6.40015e-08
-2.23398e-08
-4.70318e-08
-1.35566e-08
-3.17493e-08
-7.17033e-09
-1.86905e-08
-2.95931e-09
-8.43311e-09
-6.64751e-10
-1.59834e-09
1.11324e-09
-2.26949e-09
8.75037e-09
-8.7647e-09
2.88911e-08
-1.92014e-08
5.06169e-08
-3.33132e-08
7.31035e-08
-5.08443e-08
9.57051e-08
-7.15452e-08
1.17897e-07
-9.51699e-08
1.39262e-07
-1.21475e-07
1.59484e-07
-1.50217e-07
1.78328e-07
-1.81156e-07
1.95627e-07
-2.14054e-07
2.11275e-07
-2.48674e-07
2.25209e-07
-2.84783e-07
2.37401e-07
-3.22153e-07
2.47851e-07
-3.60558e-07
2.56578e-07
-3.99778e-07
2.63614e-07
-4.39597e-07
2.68997e-07
-4.79803e-07
2.72768e-07
-5.20188e-07
2.74972e-07
-5.60548e-07
2.75646e-07
-6.00682e-07
2.74829e-07
-6.40392e-07
2.72551e-07
-6.79484e-07
2.6884e-07
-7.17764e-07
2.6372e-07
-7.55042e-07
2.57208e-07
-7.91129e-07
2.49323e-07
-8.25839e-07
2.40079e-07
-8.58987e-07
2.29493e-07
-8.90392e-07
2.17582e-07
-9.19877e-07
2.04366e-07
-9.47269e-07
1.89872e-07
-9.72398e-07
1.74134e-07
-9.95103e-07
1.57191e-07
-1.01523e-06
1.39095e-07
-1.03263e-06
1.19907e-07
-1.04717e-06
9.97013e-08
-1.05873e-06
7.85633e-08
-1.06719e-06
5.65926e-08
-1.07246e-06
3.39025e-08
-1.07446e-06
1.06196e-08
-1.07312e-06
-1.31157e-08
-1.06842e-06
-3.71499e-08
-1.06032e-06
-6.13174e-08
-1.04883e-06
-8.54413e-08
-1.03397e-06
-1.09335e-07
-1.0158e-06
-1.32803e-07
-9.94396e-07
-1.55645e-07
-9.69852e-07
-1.77654e-07
-9.42301e-07
-1.98624e-07
-9.11902e-07
-2.18349e-07
-8.78835e-07
-2.36627e-07
-8.43311e-07
-2.53261e-07
-8.05564e-07
-2.68066e-07
-7.65851e-07
-2.80871e-07
-7.24452e-07
-2.91518e-07
-6.81666e-07
-2.99871e-07
-6.3781e-07
-3.05817e-07
-5.93215e-07
-3.09266e-07
-5.48221e-07
-3.10157e-07
-5.03177e-07
-3.08462e-07
-4.58432e-07
-3.04182e-07
-4.14337e-07
-2.97354e-07
-3.71234e-07
-2.8805e-07
-3.29454e-07
-2.76381e-07
-2.89312e-07
-2.62491e-07
-2.51103e-07
-2.46566e-07
-2.15096e-07
-2.28826e-07
-1.81528e-07
-2.0953e-07
-1.50605e-07
-1.88973e-07
-1.2249e-07
-1.67486e-07
-9.73067e-08
-1.45437e-07
-7.51341e-08
-1.23226e-07
-5.60034e-08
-1.01293e-07
-3.98976e-08
-8.01072e-08
-2.67518e-08
-6.01777e-08
-1.64532e-08
-4.20479e-08
-8.84407e-09
-2.62996e-08
-3.72547e-09
-1.35517e-08
-8.63757e-10
-4.46005e-09
2.49484e-10
-2.54536e-09
1.12957e-08
-9.79384e-09
3.61396e-08
-2.13904e-08
6.22134e-08
-3.70039e-08
8.87169e-08
-5.63202e-08
1.15021e-07
-7.9039e-08
1.40615e-07
-1.0487e-07
1.65094e-07
-1.33533e-07
1.88147e-07
-1.64754e-07
2.09548e-07
-1.98266e-07
2.29139e-07
-2.33808e-07
2.46817e-07
-2.71126e-07
2.62526e-07
-3.09971e-07
2.76246e-07
-3.50101e-07
2.87982e-07
-3.91281e-07
2.97758e-07
-4.33278e-07
3.05612e-07
-4.75869e-07
3.11587e-07
-5.18832e-07
3.15732e-07
-5.61952e-07
3.18091e-07
-6.05017e-07
3.18711e-07
-6.47818e-07
3.1763e-07
-6.90151e-07
3.14884e-07
-7.31812e-07
3.10502e-07
-7.72602e-07
3.04509e-07
-8.12322e-07
2.96928e-07
-8.50775e-07
2.87776e-07
-8.87768e-07
2.77072e-07
-9.23108e-07
2.64834e-07
-9.56608e-07
2.51081e-07
-9.88082e-07
2.3584e-07
-1.01735e-06
2.19138e-07
-1.04423e-06
2.01016e-07
-1.06856e-06
1.8152e-07
-1.09017e-06
1.60709e-07
-1.10892e-06
1.38652e-07
-1.12465e-06
1.15435e-07
-1.13724e-06
9.11534e-08
-1.14657e-06
6.59218e-08
-1.15254e-06
3.98679e-08
-1.15505e-06
1.31352e-08
-1.15405e-06
-1.41174e-08
-1.14948e-06
-4.17167e-08
-1.14133e-06
-6.94752e-08
-1.12957e-06
-9.71932e-08
-1.11425e-06
-1.24659e-07
-1.0954e-06
-1.51653e-07
-1.0731e-06
-1.77946e-07
-1.04745e-06
-2.03307e-07
-1.01857e-06
-2.27499e-07
-9.86633e-07
-2.50288e-07
-9.51816e-07
-2.71444e-07
-9.14333e-07
-2.90744e-07
-8.74425e-07
-3.07975e-07
-8.32357e-07
-3.22939e-07
-7.88418e-07
-3.35457e-07
-7.4292e-07
-3.45369e-07
-6.96194e-07
-3.52543e-07
-6.48586e-07
-3.56874e-07
-6.00456e-07
-3.58288e-07
-5.5217e-07
-3.56747e-07
-5.04102e-07
-3.5225e-07
-4.56624e-07
-3.44832e-07
-4.10102e-07
-3.34572e-07
-3.64893e-07
-3.2159e-07
-3.21339e-07
-3.06046e-07
-2.7976e-07
-2.88145e-07
-2.40452e-07
-2.68134e-07
-2.0368e-07
-2.46302e-07
-1.69672e-07
-2.2298e-07
-1.38621e-07
-1.98537e-07
-1.10674e-07
-1.73384e-07
-8.59334e-08
-1.47967e-07
-6.44536e-08
-1.22772e-07
-4.62407e-08
-9.83201e-08
-3.12514e-08
-7.5167e-08
-1.93947e-08
-5.39046e-08
-1.05345e-08
-3.51598e-08
-4.49381e-09
-1.95924e-08
-1.06115e-09
-7.89271e-09
-8.11671e-10
-2.81243e-09
1.41081e-08
-1.07928e-08
4.41199e-08
-2.35194e-08
7.49401e-08
-4.05994e-08
1.05797e-07
-6.16628e-08
1.36085e-07
-8.63595e-08
1.65312e-07
-1.14356e-07
1.93091e-07
-1.45335e-07
2.19126e-07
-1.78991e-07
2.43204e-07
-2.1503e-07
2.65178e-07
-2.53168e-07
2.84956e-07
-2.93134e-07
3.02492e-07
-3.34663e-07
3.17775e-07
-3.77499e-07
3.30818e-07
-4.21396e-07
3.41654e-07
-4.66112e-07
3.50328e-07
-5.11413e-07
3.56889e-07
-5.57073e-07
3.61391e-07
-6.02866e-07
3.63885e-07
-6.48576e-07
3.6442e-07
-6.93986e-07
3.6304e-07
-7.38886e-07
3.59783e-07
-7.83065e-07
3.54681e-07
-8.26318e-07
3.47762e-07
-8.68439e-07
3.39049e-07
-9.09227e-07
3.28563e-07
-9.48479e-07
3.16324e-07
-9.85998e-07
3.02353e-07
-1.02159e-06
2.86671e-07
-1.05506e-06
2.69308e-07
-1.08621e-06
2.50297e-07
-1.11488e-06
2.29682e-07
-1.14088e-06
2.07517e-07
-1.16403e-06
1.83866e-07
-1.18419e-06
1.5881e-07
-1.2012e-06
1.32441e-07
-1.21492e-06
1.0487e-07
-1.22522e-06
7.62235e-08
-1.23199e-06
4.6644e-08
-1.23515e-06
1.6292e-08
-1.23461e-06
-1.46553e-08
-1.23032e-06
-4.60042e-08
-1.22225e-06
-7.75457e-08
-1.21039e-06
-1.09056e-07
-1.19475e-06
-1.403e-07
-1.17537e-06
-1.7103e-07
-1.15233e-06
-2.00991e-07
-1.12571e-06
-2.29921e-07
-1.09566e-06
-2.57556e-07
-1.06231e-06
-2.83633e-07
-1.02587e-06
-3.0789e-07
-9.86534e-07
-3.30076e-07
-9.44561e-07
-3.49948e-07
-9.00218e-07
-3.67282e-07
-8.53803e-07
-3.81871e-07
-8.0564e-07
-3.93532e-07
-7.56071e-07
-4.02111e-07
-7.0546e-07
-4.07485e-07
-6.54183e-07
-4.09565e-07
-6.02629e-07
-4.08302e-07
-5.51192e-07
-4.03687e-07
-5.00268e-07
-3.95755e-07
-4.50252e-07
-3.84589e-07
-4.01525e-07
-3.70316e-07
-3.54459e-07
-3.53112e-07
-3.09402e-07
-3.33201e-07
-2.6668e-07
-3.10856e-07
-2.26586e-07
-2.86396e-07
-1.89379e-07
-2.60187e-07
-1.55278e-07
-2.32638e-07
-1.24459e-07
-2.04203e-07
-9.70515e-08
-1.75375e-07
-7.31347e-08
-1.46689e-07
-5.27396e-08
-1.18715e-07
-3.58464e-08
-9.20602e-08
-2.23865e-08
-6.73644e-08
-1.22454e-08
-4.53009e-08
-5.26654e-09
-2.65713e-08
-1.25779e-09
-1.19015e-08
-2.06946e-09
-3.07068e-09
1.71788e-08
-1.17605e-08
5.28096e-08
-2.5585e-08
8.87646e-08
-4.40924e-08
1.24304e-07
-6.68592e-08
1.58852e-07
-9.34872e-08
1.9194e-07
-1.23601e-07
2.23205e-07
-1.56846e-07
2.52371e-07
-1.92885e-07
2.79243e-07
-2.31398e-07
3.03691e-07
-2.7208e-07
3.25638e-07
-3.14638e-07
3.45051e-07
-3.58794e-07
3.61931e-07
-4.04279e-07
3.76303e-07
-4.50834e-07
3.88209e-07
-4.98209e-07
3.97703e-07
-5.46162e-07
4.04842e-07
-5.94459e-07
4.09687e-07
-6.42868e-07
4.12295e-07
-6.91167e-07
4.12719e-07
-7.39134e-07
4.11007e-07
-7.86552e-07
4.07201e-07
-8.33207e-07
4.01336e-07
-8.78885e-07
3.93441e-07
-9.23379e-07
3.83542e-07
-9.66477e-07
3.71662e-07
-1.00798e-06
3.57823e-07
-1.04767e-06
3.42046e-07
-1.08536e-06
3.24358e-07
-1.12084e-06
3.0479e-07
-1.15392e-06
2.8338e-07
-1.18441e-06
2.60176e-07
-1.21213e-06
2.35237e-07
-1.2369e-06
2.08636e-07
-1.25855e-06
1.80461e-07
-1.27693e-06
1.50815e-07
-1.29188e-06
1.1982e-07
-1.30327e-06
8.76154e-08
-1.31098e-06
5.43588e-08
-1.31492e-06
2.02272e-08
-1.31499e-06
-1.45837e-08
-1.31114e-06
-4.98604e-08
-1.30331e-06
-8.53716e-08
-1.2915e-06
-1.20871e-07
-1.2757e-06
-1.56096e-07
-1.25596e-06
-1.90773e-07
-1.23233e-06
-2.2462e-07
-1.2049e-06
-2.57344e-07
-1.17381e-06
-2.88652e-07
-1.13919e-06
-3.18248e-07