/*--------------------------------*- C++ -*----------------------------------*\
  =========                 |
  \\      /  F ield         | OpenFOAM: The Open Source CFD Toolbox
   \\    /   O peration     | Website:  https://openfoam.org
    \\  /    A nd           | Version:  7
     \\/     M anipulation  |
\*---------------------------------------------------------------------------*/
FoamFile
{
    version     2.0;
    format      ascii;
    class       volVectorField;
    location    "1";
    object      U;
}
// * * * * * * * * * * * * * * * * * * * * * * * * * * * * * * * * * * * * * //

dimensions      [0 1 -1 0 0 0 0];

internalField   nonuniform List<vector> 
6400
(
(8.73906e-06 -8.52657e-06 0)
(3.39478e-05 -1.58188e-05 0)
(6.41419e-05 -1.44957e-05 0)
(8.27328e-05 -8.76717e-06 0)
(8.13594e-05 -1.30674e-06 0)
(5.73143e-05 6.54919e-06 0)
(1.02284e-05 1.41413e-05 0)
(-5.90507e-05 2.11674e-05 0)
(-0.000148994 2.74995e-05 0)
(-0.000257728 3.31001e-05 0)
(-0.000383238 3.79807e-05 0)
(-0.000523494 4.21773e-05 0)
(-0.000676516 4.57366e-05 0)
(-0.00084042 4.87094e-05 0)
(-0.00101344 5.11478e-05 0)
(-0.00119391 5.31019e-05 0)
(-0.00138032 5.46167e-05 0)
(-0.00157125 5.57318e-05 0)
(-0.00176539 5.64815e-05 0)
(-0.0019615 5.68944e-05 0)
(-0.00215845 5.69931e-05 0)
(-0.00235513 5.67946e-05 0)
(-0.0025505 5.63103e-05 0)
(-0.00274355 5.55471e-05 0)
(-0.00293328 5.45082e-05 0)
(-0.0031187 5.31932e-05 0)
(-0.00329882 5.15995e-05 0)
(-0.00347265 4.97225e-05 0)
(-0.0036392 4.7557e-05 0)
(-0.00379744 4.50972e-05 0)
(-0.00394637 4.23377e-05 0)
(-0.00408497 3.9275e-05 0)
(-0.0042122 3.59074e-05 0)
(-0.00432706 3.22359e-05 0)
(-0.00442856 2.8265e-05 0)
(-0.00451572 2.40028e-05 0)
(-0.00458765 1.94619e-05 0)
(-0.00464346 1.46596e-05 0)
(-0.00468238 9.6179e-06 0)
(-0.00470369 4.36474e-06 0)
(-0.00470682 -1.06727e-06 0)
(-0.00469128 -6.64005e-06 0)
(-0.00465673 -1.23101e-05 0)
(-0.00460299 -1.80294e-05 0)
(-0.00453005 -2.37455e-05 0)
(-0.00443807 -2.94015e-05 0)
(-0.00432738 -3.49378e-05 0)
(-0.00419855 -4.02924e-05 0)
(-0.00405231 -4.54013e-05 0)
(-0.00388962 -5.02e-05 0)
(-0.00371165 -5.4625e-05 0)
(-0.00351974 -5.86142e-05 0)
(-0.00331544 -6.21083e-05 0)
(-0.00310048 -6.50522e-05 0)
(-0.00287676 -6.73963e-05 0)
(-0.0026463 -6.90972e-05 0)
(-0.00241128 -7.01188e-05 0)
(-0.00217395 -7.04331e-05 0)
(-0.00193664 -7.00216e-05 0)
(-0.00170172 -6.88751e-05 0)
(-0.00147158 -6.69943e-05 0)
(-0.00124856 -6.43902e-05 0)
(-0.00103497 -6.10841e-05 0)
(-0.000833027 -5.71075e-05 0)
(-0.000644811 -5.25013e-05 0)
(-0.000472256 -4.7316e-05 0)
(-0.000317105 -4.16116e-05 0)
(-0.000180879 -3.54572e-05 0)
(-6.48411e-05 -2.89322e-05 0)
(3.00369e-05 -2.21274e-05 0)
(0.000103126 -1.51469e-05 0)
(0.000154194 -8.11751e-06 0)
(0.000183486 -1.19875e-06 0)
(0.000191837 5.39391e-06 0)
(0.000180869 1.13512e-05 0)
(0.00015327 1.61953e-05 0)
(0.000113176 1.91776e-05 0)
(6.69109e-05 1.9077e-05 0)
(2.51722e-05 1.40616e-05 0)
(3.57449e-06 3.58705e-06 0)
(1.59892e-05 -3.36282e-05 0)
(5.43176e-05 -5.39257e-05 0)
(8.82474e-05 -4.10729e-05 0)
(8.98988e-05 -9.65398e-06 0)
(4.35119e-05 3.0745e-05 0)
(-5.7774e-05 7.43865e-05 0)
(-0.000216113 0.000117906 0)
(-0.000430642 0.000159376 0)
(-0.00069856 0.000197738 0)
(-0.00101589 0.000232466 0)
(-0.00137802 0.000263355 0)
(-0.00178004 0.000290398 0)
(-0.00221702 0.000313704 0)
(-0.00268409 0.000333451 0)
(-0.00317658 0.000349852 0)
(-0.00369003 0.000363132 0)
(-0.00422025 0.00037351 0)
(-0.00476329 0.000381188 0)
(-0.00531543 0.000386348 0)
(-0.00587315 0.000389145 0)
(-0.00643314 0.00038971 0)
(-0.00699219 0.000388141 0)
(-0.00754726 0.000384514 0)
(-0.00809535 0.000378879 0)
(-0.00863355 0.000371263 0)
(-0.00915897 0.00036168 0)
(-0.00966874 0.000350127 0)
(-0.01016 0.000336597 0)
(-0.0106299 0.000321073 0)
(-0.0110755 0.000303543 0)
(-0.011494 0.000283996 0)
(-0.0118825 0.000262433 0)
(-0.0122381 0.000238869 0)
(-0.0125582 0.000213333 0)
(-0.0128399 0.000185878 0)
(-0.0130807 0.000156578 0)
(-0.0132781 0.000125537 0)
(-0.0134299 9.28842e-05 0)
(-0.0135338 5.87818e-05 0)
(-0.0135883 2.34224e-05 0)
(-0.0135916 -1.29699e-05 0)
(-0.0135427 -5.01401e-05 0)
(-0.0134407 -8.78028e-05 0)
(-0.0132853 -0.000125645 0)
(-0.0130766 -0.000163327 0)
(-0.0128152 -0.00020049 0)
(-0.012502 -0.000236755 0)
(-0.0121388 -0.000271732 0)
(-0.0117277 -0.000305022 0)
(-0.0112714 -0.000336227 0)
(-0.010773 -0.000364952 0)
(-0.0102365 -0.000390817 0)
(-0.00966591 -0.000413461 0)
(-0.00906612 -0.000432547 0)
(-0.00844226 -0.000447776 0)
(-0.00779985 -0.000458884 0)
(-0.00714477 -0.000465657 0)
(-0.00648312 -0.000467932 0)
(-0.00582121 -0.000465599 0)
(-0.00516541 -0.000458612 0)
(-0.00452215 -0.000446985 0)
(-0.00389776 -0.000430798 0)
(-0.00329841 -0.000410195 0)
(-0.00273003 -0.000385388 0)
(-0.0021982 -0.000356652 0)
(-0.00170806 -0.000324329 0)
(-0.00126422 -0.000288826 0)
(-0.000870659 -0.000250618 0)
(-0.000530631 -0.000210256 0)
(-0.000246546 -0.000168372 0)
(-1.98381e-05 -0.000125701 0)
(0.00014919 -8.31151e-05 0)
(0.000261572 -4.16769e-05 0)
(0.000319954 -2.7293e-06 0)
(0.000328973 3.19676e-05 0)
(0.000295754 6.00245e-05 0)
(0.000230392 7.8153e-05 0)
(0.000146647 8.1804e-05 0)
(6.50284e-05 6.51552e-05 0)
(1.39489e-05 2.50846e-05 0)
(1.48277e-05 -6.42861e-05 0)
(4.18752e-05 -8.80778e-05 0)
(4.54241e-05 -4.46539e-05 0)
(-4.68272e-06 3.84444e-05 0)
(-0.000126413 0.000142854 0)
(-0.000328587 0.000256287 0)
(-0.000614453 0.000370756 0)
(-0.000983311 0.000481222 0)
(-0.0014317 0.000584639 0)
(-0.00195436 0.00067927 0)
(-0.00254494 0.000764248 0)
(-0.00319648 0.000839274 0)
(-0.00390181 0.000904412 0)
(-0.00465373 0.000959963 0)
(-0.0054452 0.00100636 0)
(-0.00626943 0.00104408 0)
(-0.00711992 0.00107365 0)
(-0.00799051 0.00109554 0)
(-0.0088753 0.00111021 0)
(-0.0097687 0.00111805 0)
(-0.0106654 0.00111939 0)
(-0.0115601 0.0011145 0)
(-0.0124481 0.00110357 0)
(-0.0133243 0.00108675 0)
(-0.0141841 0.00106414 0)
(-0.0150228 0.00103578 0)
(-0.0158357 0.0010017 0)
(-0.0166183 0.000961885 0)
(-0.0173658 0.000916332 0)
(-0.0180739 0.000865032 0)
(-0.0187378 0.000807993 0)
(-0.019353 0.000745249 0)
(-0.0199152 0.000676873 0)
(-0.0204199 0.000602985 0)
(-0.020863 0.000523761 0)
(-0.0212405 0.000439445 0)
(-0.0215485 0.000350351 0)
(-0.0217836 0.000256873 0)
(-0.0219427 0.000159483 0)
(-0.0220231 5.87401e-05 0)
(-0.0220225 -4.47137e-05 0)
(-0.0219393 -0.000150154 0)
(-0.0217724 -0.000256778 0)
(-0.0215214 -0.000363709 0)
(-0.0211865 -0.000470004 0)
(-0.0207688 -0.000574665 0)
(-0.0202701 -0.00067665 0)
(-0.019693 -0.000774883 0)
(-0.0190409 -0.000868276 0)
(-0.0183181 -0.000955738 0)
(-0.0175298 -0.0010362 0)
(-0.0166817 -0.00110862 0)
(-0.0157805 -0.00117203 0)
(-0.0148336 -0.00122551 0)
(-0.013849 -0.00126826 0)
(-0.0128352 -0.00129956 0)
(-0.0118013 -0.00131885 0)
(-0.0107566 -0.00132568 0)
(-0.00971094 -0.00131979 0)
(-0.00867402 -0.00130103 0)
(-0.00765571 -0.00126948 0)
(-0.00666574 -0.00122536 0)
(-0.00571355 -0.00116909 0)
(-0.00480823 -0.00110126 0)
(-0.00395829 -0.00102266 0)
(-0.00317157 -0.000934251 0)
(-0.00245507 -0.000837204 0)
(-0.00181481 -0.000732872 0)
(-0.00125565 -0.000622827 0)
(-0.00078115 -0.00050888 0)
(-0.000393319 -0.000393131 0)
(-9.2436e-05 -0.000278041 0)
(0.000123243 -0.000166548 0)
(0.000257825 -6.22342e-05 0)
(0.000318211 3.04284e-05 0)
(0.000314587 0.000105761 0)
(0.000260778 0.000156547 0)
(0.000174684 0.00017374 0)
(8.197e-05 0.000146775 0)
(1.89309e-05 6.66054e-05 0)
(9.26851e-06 -8.35942e-05 0)
(1.05604e-05 -9.00557e-05 0)
(-3.83577e-05 5.49747e-06 0)
(-0.000163915 0.000162875 0)
(-0.000382993 0.000354981 0)
(-0.000704622 0.000562708 0)
(-0.00113211 0.000772909 0)
(-0.00166449 0.000976858 0)
(-0.00229767 0.00116896 0)
(-0.00302541 0.00134581 0)
(-0.00384005 0.00150552 0)
(-0.00473312 0.00164725 0)
(-0.00569568 0.00177088 0)
(-0.00671869 0.00187672 0)
(-0.0077932 0.00196541 0)
(-0.00891046 0.00203769 0)
(-0.010062 0.00209439 0)
(-0.0112398 0.00213634 0)
(-0.0124359 0.0021643 0)
(-0.0136429 0.00217896 0)
(-0.0148536 0.0021809 0)
(-0.0160612 0.0021706 0)
(-0.0172588 0.00214843 0)
(-0.0184398 0.00211468 0)
(-0.0195979 0.00206952 0)
(-0.0207267 0.00201307 0)
(-0.0218199 0.00194539 0)
(-0.0228712 0.00186653 0)
(-0.0238744 0.00177648 0)
(-0.0248235 0.00167528 0)
(-0.0257122 0.00156299 0)
(-0.0265347 0.00143972 0)
(-0.0272849 0.00130566 0)
(-0.0279573 0.00116107 0)
(-0.0285462 0.00100635 0)
(-0.0290465 0.000841999 0)
(-0.0294532 0.000668655 0)
(-0.0297619 0.000487105 0)
(-0.0299686 0.000298285 0)
(-0.03007 0.000103286 0)
(-0.0300631 -9.66471e-05 0)
(-0.029946 -0.000300119 0)
(-0.0297174 -0.000505589 0)
(-0.0293769 -0.000711386 0)
(-0.028925 -0.000915718 0)
(-0.0283633 -0.00111669 0)
(-0.0276942 -0.00131234 0)
(-0.0269214 -0.00150065 0)
(-0.0260493 -0.00167955 0)
(-0.0250838 -0.00184702 0)
(-0.0240315 -0.00200104 0)
(-0.0229003 -0.00213969 0)
(-0.0216987 -0.00226112 0)
(-0.0204365 -0.00236366 0)
(-0.0191241 -0.0024458 0)
(-0.0177727 -0.00250622 0)
(-0.016394 -0.00254386 0)
(-0.0150003 -0.00255791 0)
(-0.0136042 -0.00254786 0)
(-0.0122184 -0.0025135 0)
(-0.0108557 -0.00245495 0)
(-0.00952872 -0.00237266 0)
(-0.00824977 -0.00226743 0)
(-0.00703059 -0.00214042 0)
(-0.0058822 -0.00199312 0)
(-0.00481476 -0.00182739 0)
(-0.00383731 -0.00164547 0)
(-0.0029576 -0.00144996 0)
(-0.00218187 -0.00124389 0)
(-0.00151466 -0.00103073 0)
(-0.00095851 -0.000814473 0)
(-0.00051376 -0.000599766 0)
(-0.000178207 -0.00039205 0)
(5.32235e-05 -0.000197795 0)
(0.000188879 -2.48094e-05 0)
(0.000240831 0.000117386 0)
(0.000225095 0.000217191 0)
(0.000161963 0.000260679 0)
(7.99259e-05 0.000231787 0)
(1.92402e-05 0.000113021 0)
(1.82809e-06 -8.28929e-05 0)
(-3.07719e-05 -4.3011e-05 0)
(-0.000146464 0.000129187 0)
(-0.000363778 0.000383122 0)
(-0.000696131 0.000683948 0)
(-0.00115138 0.00100627 0)
(-0.00173193 0.00133198 0)
(-0.00243595 0.0016486 0)
(-0.0032585 0.00194779 0)
(-0.00419238 0.00222425 0)
(-0.00522882 0.00247487 0)
(-0.00635805 0.00269808 0)
(-0.00756975 0.0028934 0)
(-0.00885337 0.00306109 0)
(-0.0101983 0.00320189 0)
(-0.0115943 0.00331679 0)
(-0.0130311 0.00340693 0)
(-0.014499 0.00347345 0)
(-0.0159884 0.00351746 0)
(-0.0174903 0.00353996 0)
(-0.0189958 0.00354181 0)
(-0.0204963 0.00352373 0)
(-0.0219835 0.0034863 0)
(-0.0234492 0.00342994 0)
(-0.0248855 0.00335496 0)
(-0.0262843 0.00326157 0)
(-0.0276379 0.0031499 0)
(-0.0289386 0.00302005 0)
(-0.0301787 0.00287208 0)
(-0.0313505 0.0027061 0)
(-0.0324468 0.00252226 0)
(-0.03346 0.0023208 0)
(-0.034383 0.00210208 0)
(-0.0352089 0.00186659 0)
(-0.035931 0.001615 0)
(-0.0365431 0.00134819 0)
(-0.0370393 0.00106721 0)
(-0.0374142 0.000773384 0)
(-0.0376632 0.000468228 0)
(-0.0377823 0.000153516 0)
(-0.0377683 -0.000168741 0)
(-0.0376188 -0.000496303 0)
(-0.0373325 -0.00082671 0)
(-0.036909 -0.0011573 0)
(-0.0363492 -0.00148523 0)
(-0.035655 -0.00180751 0)
(-0.0348296 -0.00212103 0)
(-0.0338774 -0.0024226 0)
(-0.0328041 -0.00270901 0)
(-0.0316165 -0.00297705 0)
(-0.030323 -0.00322357 0)
(-0.0289329 -0.00344556 0)
(-0.0274567 -0.00364014 0)
(-0.025906 -0.00380469 0)
(-0.0242935 -0.00393685 0)
(-0.0226325 -0.00403458 0)
(-0.0209372 -0.00409622 0)
(-0.0192223 -0.00412052 0)
(-0.0175028 -0.00410668 0)
(-0.0157942 -0.00405441 0)
(-0.0141117 -0.00396389 0)
(-0.0124705 -0.00383586 0)
(-0.0108852 -0.00367161 0)
(-0.00936996 -0.00347295 0)
(-0.00793804 -0.00324229 0)
(-0.00660158 -0.0029826 0)
(-0.00537142 -0.00269744 0)
(-0.00425686 -0.00239097 0)
(-0.0032654 -0.00206799 0)
(-0.00240247 -0.001734 0)
(-0.00167124 -0.00139532 0)
(-0.00107223 -0.00105916 0)
(-0.000603108 -0.000733882 0)
(-0.000258318 -0.000429225 0)
(-2.87356e-05 -0.000156644 0)
(9.86905e-05 7.02913e-05 0)
(0.000141122 0.00023546 0)
(0.000120133 0.000319912 0)
(6.52055e-05 0.0003017 0)
(1.68182e-05 0.000154483 0)
(-6.28113e-06 -5.87761e-05 0)
(-7.70037e-05 6.1821e-05 0)
(-0.000268116 0.000338239 0)
(-0.000587845 0.000712248 0)
(-0.0010445 0.00114264 0)
(-0.00164369 0.00159862 0)
(-0.00238603 0.0020576 0)
(-0.00326829 0.00250358 0)
(-0.00428432 0.00292556 0)
(-0.00542582 0.0033163 0)
(-0.0066829 0.00367135 0)
(-0.00804463 0.00398834 0)
(-0.00949947 0.00426633 0)
(-0.0110356 0.00450545 0)
(-0.012641 0.00470647 0)
(-0.0143041 0.00487058 0)
(-0.0160131 0.00499918 0)
(-0.017757 0.00509376 0)
(-0.0195246 0.00515574 0)
(-0.0213055 0.00518643 0)
(-0.0230892 0.00518699 0)
(-0.0248658 0.0051584 0)
(-0.0266254 0.00510143 0)
(-0.0283585 0.0050167 0)
(-0.0300555 0.00490465 0)
(-0.0317072 0.0047656 0)
(-0.0333044 0.00459978 0)
(-0.034838 0.00440737 0)
(-0.036299 0.00418854 0)
(-0.0376784 0.0039435 0)
(-0.0389677 0.00367253 0)
(-0.0401581 0.00337607 0)
(-0.0412415 0.0030547 0)
(-0.0422097 0.00270922 0)
(-0.0430551 0.00234066 0)
(-0.0437706 0.00195034 0)
(-0.0443493 0.00153986 0)
(-0.0447854 0.00111116 0)
(-0.0450734 0.000666492 0)
(-0.0452089 0.000208433 0)
(-0.0451883 -0.000260093 0)
(-0.0450091 -0.000735847 0)
(-0.0446698 -0.00121528 0)
(-0.0441703 -0.00169458 0)
(-0.0435115 -0.00216967 0)
(-0.0426959 -0.00263627 0)
(-0.0417271 -0.00308997 0)
(-0.0406104 -0.00352622 0)
(-0.0393524 -0.00394044 0)
(-0.0379611 -0.00432811 0)
(-0.036446 -0.00468474 0)
(-0.0348179 -0.00500608 0)
(-0.033089 -0.00528805 0)
(-0.0312724 -0.00552695 0)
(-0.0293828 -0.00571944 0)
(-0.0274354 -0.00586264 0)
(-0.0254465 -0.0059542 0)
(-0.0234329 -0.00599237 0)
(-0.021412 -0.00597603 0)
(-0.0194012 -0.00590475 0)
(-0.0174181 -0.00577883 0)
(-0.0154801 -0.00559932 0)
(-0.013604 -0.00536806 0)
(-0.011806 -0.00508768 0)
(-0.0101014 -0.0047616 0)
(-0.00850402 -0.0043941 0)
(-0.00702646 -0.00399027 0)
(-0.00567941 -0.00355605 0)
(-0.00447159 -0.00309832 0)
(-0.00340939 -0.00262491 0)
(-0.00249665 -0.00214472 0)
(-0.00173433 -0.00166787 0)
(-0.00112026 -0.00120591 0)
(-0.000648823 -0.000772088 0)
(-0.000310693 -0.000381676 0)
(-9.25134e-05 -5.24007e-05 0)
(2.32548e-05 0.000195086 0)
(5.86159e-05 0.00033683 0)
(4.25519e-05 0.00034512 0)
(1.29314e-05 0.000185709 0)
(-1.44875e-05 -9.8854e-06 0)
(-0.000125233 0.000229178 0)
(-0.00039651 0.000639842 0)
(-0.000825098 0.00115873 0)
(-0.0014132 0.00173979 0)
(-0.00216335 0.00234786 0)
(-0.00307374 0.00295659 0)
(-0.00413915 0.00354688 0)
(-0.00535188 0.0041053 0)
(-0.0067023 0.00462278 0)
(-0.00817931 0.0050936 0)
(-0.00977084 0.00551455 0)
(-0.0114642 0.00588421 0)
(-0.0132464 0.00620251 0)
(-0.0151043 0.00647022 0)
(-0.0170249 0.00668871 0)
(-0.0189955 0.00685962 0)
(-0.0210034 0.00698472 0)
(-0.0230366 0.00706574 0)
(-0.0250829 0.00710433 0)
(-0.0271309 0.00710191 0)
(-0.0291692 0.00705971 0)
(-0.0311866 0.00697875 0)
(-0.0331723 0.00685981 0)
(-0.0351155 0.0067035 0)
(-0.0370056 0.00651027 0)
(-0.0388321 0.00628047 0)
(-0.0405848 0.00601439 0)
(-0.0422534 0.00571233 0)
(-0.0438278 0.00537464 0)
(-0.0452983 0.00500181 0)
(-0.0466551 0.00459448 0)
(-0.047889 0.00415355 0)
(-0.0489909 0.00368017 0)
(-0.0499522 0.00317582 0)
(-0.050765 0.00264236 0)
(-0.0514218 0.00208203 0)
(-0.0519159 0.00149747 0)
(-0.0522416 0.000891789 0)
(-0.0523938 0.000268497 0)
(-0.0523687 -0.000368446 0)
(-0.0521635 -0.00101466 0)
(-0.0517768 -0.00166539 0)
(-0.0512085 -0.00231548 0)
(-0.0504597 -0.0029595 0)
(-0.0495333 -0.00359174 0)
(-0.0484334 -0.00420628 0)
(-0.0471659 -0.00479708 0)
(-0.0457382 -0.00535806 0)
(-0.0441594 -0.00588318 0)
(-0.0424399 -0.00636651 0)
(-0.0405918 -0.00680236 0)
(-0.0386287 -0.00718537 0)
(-0.0365652 -0.0075106 0)
(-0.0344176 -0.00777361 0)
(-0.0322028 -0.00797059 0)
(-0.0299389 -0.00809843 0)
(-0.0276446 -0.00815479 0)
(-0.0253392 -0.00813818 0)
(-0.0230422 -0.00804804 0)
(-0.0207732 -0.00788476 0)
(-0.0185515 -0.00764975 0)
(-0.0163959 -0.00734545 0)
(-0.0143245 -0.00697537 0)
(-0.0123544 -0.00654411 0)
(-0.0105012 -0.00605735 0)
(-0.00877899 -0.00552189 0)
(-0.00719989 -0.00494569 0)
(-0.00577384 -0.00433788 0)
(-0.00450828 -0.00370883 0)
(-0.00340787 -0.00307028 0)
(-0.0024742 -0.00243547 0)
(-0.00170558 -0.00181932 0)
(-0.00109672 -0.00123873 0)
(-0.000638535 -0.00071288 0)
(-0.000317905 -0.000263663 0)
(-0.000117515 8.38217e-05 0)
(-1.56065e-05 0.000300826 0)
(1.51906e-05 0.000354322 0)
(8.3219e-06 0.000203632 0)
(-2.25409e-05 6.41333e-05 0)
(-0.000173854 0.00046128 0)
(-0.000527454 0.00103794 0)
(-0.00106833 0.00172762 0)
(-0.00179205 0.00248089 0)
(-0.00269751 0.00325927 0)
(-0.00377997 0.00403346 0)
(-0.00503178 0.0047818 0)
(-0.00644335 0.0054888 0)
(-0.00800348 0.00614383 0)
(-0.00969972 0.00674 0)
(-0.0115188 0.00727332 0)
(-0.0134469 0.00774195 0)
(-0.0154699 0.00814561 0)
(-0.0175736 0.00848508 0)
(-0.0197439 0.00876184 0)
(-0.021967 0.00897777 0)
(-0.0242291 0.0091349 0)
(-0.026517 0.0092353 0)
(-0.0288175 0.00928086 0)
(-0.0311179 0.00927331 0)
(-0.0334057 0.00921414 0)
(-0.0356686 0.00910458 0)
(-0.0378944 0.00894559 0)
(-0.0400713 0.00873796 0)
(-0.0421876 0.00848229 0)
(-0.0442317 0.00817905 0)
(-0.0461921 0.00782869 0)
(-0.0480576 0.00743166 0)
(-0.0498169 0.00698849 0)
(-0.0514593 0.00649991 0)
(-0.0529741 0.00596683 0)
(-0.0543511 0.00539051 0)
(-0.0555803 0.00477251 0)
(-0.0566525 0.00411486 0)
(-0.0575588 0.00342 0)
(-0.0582911 0.0026909 0)
(-0.0588423 0.00193102 0)
(-0.0592059 0.0011444 0)
(-0.0593767 0.000335602 0)
(-0.0593504 -0.000490274 0)
(-0.0591242 -0.0013276 0)
(-0.0586964 -0.00217025 0)
(-0.058067 -0.00301165 0)
(-0.0572374 -0.00384486 0)
(-0.0562106 -0.00466259 0)
(-0.0549913 -0.00545731 0)
(-0.0535857 -0.00622134 0)
(-0.0520021 -0.00694694 0)
(-0.0502502 -0.00762644 0)
(-0.0483415 -0.00825231 0)
(-0.046289 -0.00881733 0)
(-0.0441075 -0.0093147 0)
(-0.041813 -0.00973812 0)
(-0.039423 -0.010082 0)
(-0.0369562 -0.0103414 0)
(-0.0344321 -0.0105124 0)
(-0.0318713 -0.0105921 0)
(-0.0292946 -0.0105785 0)
(-0.0267234 -0.0104709 0)
(-0.0241791 -0.0102697 0)
(-0.0216829 -0.00997673 0)
(-0.0192555 -0.00959511 0)
(-0.0169167 -0.00912925 0)
(-0.0146853 -0.008585 0)
(-0.0125786 -0.00796957 0)
(-0.0106123 -0.00729162 0)
(-0.00879987 -0.00656122 0)
(-0.00715259 -0.00578995 0)
(-0.00567904 -0.00499089 0)
(-0.00438486 -0.00417879 0)
(-0.00327254 -0.00337013 0)
(-0.00234109 -0.00258335 0)
(-0.00158592 -0.00183907 0)
(-0.000998542 -0.00116041 0)
(-0.000566505 -0.00057338 0)
(-0.000273191 -0.000107358 0)
(-9.76345e-05 0.000204441 0)
(-1.477e-05 0.000324312 0)
(3.42753e-06 0.000206554 0)
(-3.03424e-05 0.000163075 0)
(-0.000222 0.000758733 0)
(-0.000658411 0.00153421 0)
(-0.00131288 0.00242146 0)
(-0.00217414 0.00336895 0)
(-0.00323714 0.00433593 0)
(-0.00449381 0.00529091 0)
(-0.00593375 0.00621032 0)
(-0.00754518 0.00707707 0)
(-0.00931509 0.00787923 0)
(-0.0112296 0.00860902 0)
(-0.013274 0.0092618 0)
(-0.0154334 0.00983536 0)
(-0.0176927 0.0103293 0)
(-0.0200365 0.0107444 0)
(-0.0224499 0.0110822 0)
(-0.0249179 0.0113449 0)
(-0.0274258 0.0115348 0)
(-0.0299593 0.0116542 0)
(-0.0325044 0.0117053 0)
(-0.0350472 0.0116901 0)
(-0.0375741 0.0116104 0)
(-0.040072 0.0114675 0)
(-0.0425275 0.0112627 0)
(-0.044928 0.0109968 0)
(-0.0472604 0.0106707 0)
(-0.0495124 0.010285 0)
(-0.0516713 0.00984029 0)
(-0.053725 0.00933719 0)
(-0.0556614 0.00877647 0)
(-0.0574686 0.0081591 0)
(-0.0591352 0.00748634 0)
(-0.0606501 0.00675983 0)
(-0.0620026 0.00598164 0)
(-0.0631825 0.00515435 0)
(-0.0641806 0.00428111 0)
(-0.0649879 0.00336564 0)
(-0.0655968 0.00241235 0)
(-0.0660005 0.00142626 0)
(-0.0661932 0.000413067 0)
(-0.0661704 -0.000620867 0)
(-0.065929 -0.00166857 0)
(-0.0654673 -0.00272246 0)
(-0.0647853 -0.00377442 0)
(-0.0638842 -0.00481589 0)
(-0.0627675 -0.00583789 0)
(-0.06144 -0.00683114 0)
(-0.0599085 -0.00778622 0)
(-0.0581816 -0.00869361 0)
(-0.0562697 -0.00954387 0)
(-0.0541852 -0.0103278 0)
(-0.0519419 -0.0110364 0)
(-0.0495555 -0.0116614 0)
(-0.0470433 -0.0121951 0)
(-0.044424 -0.0126305 0)
(-0.0417176 -0.0129616 0)
(-0.038945 -0.0131835 0)
(-0.0361283 -0.0132925 0)
(-0.0332901 -0.0132862 0)
(-0.0304533 -0.0131636 0)
(-0.0276411 -0.0129253 0)
(-0.0248764 -0.0125735 0)
(-0.0221816 -0.0121118 0)
(-0.0195784 -0.0115457 0)
(-0.0170873 -0.0108823 0)
(-0.0147272 -0.0101304 0)
(-0.0125153 -0.00930068 0)
(-0.0104668 -0.00840541 0)
(-0.00859422 -0.00745873 0)
(-0.00690747 -0.00647656 0)
(-0.00541338 -0.00547677 0)
(-0.00411551 -0.00447921 0)
(-0.00301389 -0.00350589 0)
(-0.00210487 -0.00258122 0)
(-0.0013809 -0.00173223 0)
(-0.000830545 -0.000988953 0)
(-0.000438235 -0.000384865 0)
(-0.000184156 4.2724e-05 0)
(-4.59803e-05 0.000252092 0)
(-1.51525e-06 0.000193657 0)
(-3.78617e-05 0.000286449 0)
(-0.000269208 0.00112115 0)
(-0.000787858 0.00212879 0)
(-0.00155577 0.00324098 0)
(-0.00255484 0.00440511 0)
(-0.00377593 0.00557911 0)
(-0.00520738 0.00673009 0)
(-0.00683583 0.00783318 0)
(-0.00864703 0.00887018 0)
(-0.010626 0.00982827 0)
(-0.0127573 0.010699 0)
(-0.0150248 0.0114773 0)
(-0.0174124 0.0121607 0)
(-0.0199037 0.0127488 0)
(-0.0224827 0.0132423 0)
(-0.0251332 0.0136432 0)
(-0.0278395 0.0139537 0)
(-0.0305859 0.0141764 0)
(-0.0333573 0.0143139 0)
(-0.0361387 0.0143687 0)
(-0.0389154 0.0143431 0)
(-0.0416729 0.014239 0)
(-0.044397 0.014058 0)
(-0.0470737 0.0138016 0)
(-0.0496891 0.0134709 0)
(-0.0522296 0.0130668 0)
(-0.0546816 0.01259 0)
(-0.0570319 0.0120414 0)
(-0.0592672 0.0114218 0)
(-0.0613747 0.0107322 0)
(-0.0633417 0.00997382 0)
(-0.065156 0.00914839 0)
(-0.0668056 0.00825792 0)
(-0.0682791 0.00730503 0)
(-0.0695659 0.00629292 0)
(-0.0706557 0.00522546 0)
(-0.0715393 0.00410727 0)
(-0.0722084 0.00294367 0)
(-0.0726556 0.0017408 0)
(-0.072875 0.000505568 0)
(-0.0728616 -0.000754359 0)
(-0.072612 -0.00203056 0)
(-0.0721244 -0.00331392 0)
(-0.0713986 -0.0045947 0)
(-0.0704359 -0.00586259 0)
(-0.0692398 -0.00710682 0)
(-0.0678152 -0.00831631 0)
(-0.0661693 -0.00947972 0)
(-0.0643111 -0.0105857 0)
(-0.0622515 -0.0116228 0)
(-0.0600032 -0.0125802 0)
(-0.0575812 -0.013447 0)
(-0.0550017 -0.0142132 0)
(-0.0522831 -0.0148696 0)
(-0.0494451 -0.0154078 0)
(-0.0465089 -0.0158205 0)
(-0.0434969 -0.0161018 0)
(-0.0404324 -0.0162471 0)
(-0.0373395 -0.0162536 0)
(-0.0342428 -0.0161199 0)
(-0.0311671 -0.0158467 0)
(-0.0281371 -0.0154363 0)
(-0.0251768 -0.0148931 0)
(-0.0223097 -0.0142237 0)
(-0.0195581 -0.0134363 0)
(-0.0169425 -0.0125416 0)
(-0.014482 -0.011552 0)
(-0.0121931 -0.0104823 0)
(-0.0100901 -0.00934928 0)
(-0.00818432 -0.00817173 0)
(-0.00648392 -0.00697072 0)
(-0.0049938 -0.00576957 0)
(-0.00371522 -0.00459393 0)
(-0.00264571 -0.003472 0)
(-0.00177898 -0.00243469 0)
(-0.00110482 -0.00151598 0)
(-0.000608999 -0.000753229 0)
(-0.00027308 -0.000187514 0)
(-7.76469e-05 0.000135969 0)
(-6.38166e-06 0.000164646 0)
(-4.50984e-05 0.000433635 0)
(-0.000315244 0.00154754 0)
(-0.00091489 0.00282082 0)
(-0.00179508 0.00418559 0)
(-0.00293104 0.00558907 0)
(-0.00430945 0.00698865 0)
(-0.005915 0.00835081 0)
(-0.00773114 0.00964997 0)
(-0.00974108 0.0108673 0)
(-0.0119277 0.0119895 0)
(-0.0142737 0.0130078 0)
(-0.0167617 0.0139169 0)
(-0.0193741 0.0147143 0)
(-0.0220936 0.0153996 0)
(-0.0249031 0.0159739 0)
(-0.0277855 0.016439 0)
(-0.0307242 0.0167977 0)
(-0.0337028 0.0170527 0)
(-0.0367054 0.017207 0)
(-0.0397161 0.0172634 0)
(-0.0427194 0.0172243 0)
(-0.0457001 0.017092 0)
(-0.0486431 0.0168683 0)
(-0.0515338 0.0165548 0)
(-0.0543573 0.0161528 0)
(-0.0570993 0.0156633 0)
(-0.0597454 0.0150874 0)
(-0.0622815 0.0144259 0)
(-0.0646936 0.0136801 0)
(-0.0669682 0.012851 0)
(-0.0690918 0.0119404 0)
(-0.0710513 0.0109503 0)
(-0.0728343 0.00988305 0)
(-0.0744285 0.00874199 0)
(-0.0758227 0.00753096 0)
(-0.0770061 0.0062546 0)
(-0.0779688 0.00491842 0)
(-0.078702 0.00352878 0)
(-0.0791979 0.00209294 0)
(-0.07945 0.000619072 0)
(-0.0794531 -0.000883757 0)
(-0.0792033 -0.00240563 0)
(-0.0786987 -0.00393581 0)
(-0.0779387 -0.00546285 0)
(-0.0769246 -0.00697464 0)
(-0.0756598 -0.00845855 0)
(-0.0741494 -0.00990153 0)
(-0.0724006 -0.0112903 0)
(-0.0704225 -0.0126115 0)
(-0.0682265 -0.0138517 0)
(-0.0658258 -0.0149981 0)
(-0.0632357 -0.016038 0)
(-0.0604735 -0.0169595 0)
(-0.0575581 -0.0177517 0)
(-0.0545103 -0.0184047 0)
(-0.0513522 -0.0189099 0)
(-0.0481076 -0.0192601 0)
(-0.044801 -0.0194499 0)
(-0.041458 -0.0194758 0)
(-0.0381047 -0.019336 0)
(-0.0347676 -0.0190311 0)
(-0.031473 -0.0185639 0)
(-0.0282468 -0.0179392 0)
(-0.0251141 -0.0171645 0)
(-0.0220991 -0.0162495 0)
(-0.0192243 -0.0152065 0)
(-0.0165102 -0.0140501 0)
(-0.0139755 -0.0127973 0)
(-0.0116359 -0.0114675 0)
(-0.00950451 -0.0100828 0)
(-0.00759101 -0.00866727 0)
(-0.00590183 -0.00724787 0)
(-0.00443971 -0.00585392 0)
(-0.00320361 -0.0045174 0)
(-0.00218865 -0.0032731 0)
(-0.00138613 -0.00215885 0)
(-0.000783296 -0.00121574 0)
(-0.000363195 -0.000488348 0)
(-0.000109344 -2.4938e-05 0)
(-1.11171e-05 0.00011951 0)
(-5.20638e-05 0.000603953 0)
(-0.000359993 0.00203658 0)
(-0.00103898 0.00360876 0)
(-0.0020296 0.00525379 0)
(-0.00330063 0.00691943 0)
(-0.00483461 0.00856327 0)
(-0.00661251 0.0101518 0)
(-0.00861457 0.0116593 0)
(-0.0108213 0.0130668 0)
(-0.0132134 0.014361 0)
(-0.0157716 0.015533 0)
(-0.018477 0.0165777 0)
(-0.0213108 0.0174927 0)
(-0.0242545 0.0182777 0)
(-0.02729 0.0189342 0)
(-0.0303993 0.0194643 0)
(-0.0335652 0.0198711 0)
(-0.0367704 0.0201576 0)
(-0.0399981 0.0203272 0)
(-0.043232 0.0203827 0)
(-0.0464557 0.0203271 0)
(-0.0496534 0.0201628 0)
(-0.0528094 0.0198918 0)
(-0.0559081 0.0195158 0)
(-0.0589342 0.0190365 0)
(-0.0618726 0.0184549 0)
(-0.0647082 0.0177722 0)
(-0.0674261 0.0169897 0)
(-0.0700118 0.0161085 0)
(-0.072451 0.0151303 0)
(-0.0747294 0.014057 0)
(-0.0768336 0.0128909 0)
(-0.0787501 0.0116352 0)
(-0.0804663 0.0102935 0)
(-0.0819702 0.00887053 0)
(-0.0832505 0.00737164 0)
(-0.0842967 0.00580329 0)
(-0.0850994 0.00417289 0)
(-0.0856504 0.00248889 0)
(-0.0859426 0.000760771 0)
(-0.0859703 -0.00100097 0)
(-0.0857294 -0.00278486 0)
(-0.0852174 -0.00457851 0)
(-0.0844336 -0.00636866 0)
(-0.083379 -0.00814136 0)
(-0.0820566 -0.009882 0)
(-0.0804717 -0.0115755 0)
(-0.0786312 -0.0132066 0)
(-0.0765446 -0.0147597 0)
(-0.0742232 -0.0162195 0)
(-0.0716807 -0.0175709 0)
(-0.0689326 -0.0187993 0)
(-0.0659969 -0.0198909 0)
(-0.0628931 -0.0208329 0)
(-0.0596428 -0.0216137 0)
(-0.0562693 -0.0222232 0)
(-0.0527972 -0.0226531 0)
(-0.0492524 -0.0228968 0)
(-0.045662 -0.0229499 0)
(-0.0420535 -0.0228104 0)
(-0.0384549 -0.0224785 0)
(-0.0348945 -0.0219572 0)
(-0.0313998 -0.0212521 0)
(-0.027998 -0.0203714 0)
(-0.024715 -0.0193262 0)
(-0.0215754 -0.0181304 0)
(-0.0186016 -0.0168008 0)
(-0.0158142 -0.0153566 0)
(-0.0132308 -0.0138203 0)
(-0.0108664 -0.0122166 0)
(-0.00873245 -0.0105734 0)
(-0.00683711 -0.00892083 0)
(-0.00518481 -0.00729209 0)
(-0.00377614 -0.00572299 0)
(-0.00260785 -0.00425217 0)
(-0.00167287 -0.00292125 0)
(-0.000960036 -0.00177497 0)
(-0.000453931 -0.000861211 0)
(-0.000140896 -0.000231078 0)
(-1.57095e-05 5.83722e-05 0)
(-5.87728e-05 0.000796701 0)
(-0.000403407 0.00258672 0)
(-0.0011598 0.00449064 0)
(-0.00225854 0.00644344 0)
(-0.00366216 0.00839402 0)
(-0.00534918 0.0103008 0)
(-0.00729688 0.0121308 0)
(-0.00948222 0.0138587 0)
(-0.011883 0.0154661 0)
(-0.0144776 0.0169399 0)
(-0.0172449 0.0182715 0)
(-0.0201643 0.0194561 0)
(-0.0232157 0.0204919 0)
(-0.0263795 0.0213788 0)
(-0.0296366 0.0221187 0)
(-0.0329683 0.0227143 0)
(-0.0363563 0.0231687 0)
(-0.0397828 0.0234857 0)
(-0.0432304 0.0236686 0)
(-0.046682 0.023721 0)
(-0.0501208 0.0236458 0)
(-0.0535302 0.0234457 0)
(-0.056894 0.023123 0)
(-0.060196 0.0226797 0)
(-0.0634204 0.0221173 0)
(-0.0665512 0.0214372 0)
(-0.0695729 0.0206409 0)
(-0.07247 0.0197297 0)
(-0.0752274 0.018705 0)
(-0.07783 0.0175687 0)
(-0.0802631 0.0163231 0)
(-0.0825125 0.014971 0)
(-0.0845643 0.0135159 0)
(-0.0864052 0.0119622 0)
(-0.0880225 0.0103152 0)
(-0.0894044 0.00858115 0)
(-0.0905398 0.00676745 0)
(-0.0914188 0.00488256 0)
(-0.0920324 0.00293615 0)
(-0.0923732 0.000939031 0)
(-0.0924349 -0.00109685 0)
(-0.0922129 -0.00315842 0)
(-0.0917042 -0.00523156 0)
(-0.0909076 -0.00730122 0)
(-0.0898239 -0.00935149 0)
(-0.0884557 -0.0113658 0)
(-0.0868078 -0.0133269 0)
(-0.0848874 -0.0152173 0)
(-0.0827035 -0.0170194 0)
(-0.0802675 -0.0187156 0)
(-0.0775933 -0.0202887 0)
(-0.0746968 -0.0217217 0)
(-0.0715961 -0.022999 0)
(-0.0683115 -0.0241058 0)
(-0.0648653 -0.0250285 0)
(-0.0612814 -0.0257556 0)
(-0.0575857 -0.026277 0)
(-0.0538053 -0.0265852 0)
(-0.0499685 -0.0266748 0)
(-0.0461045 -0.0265431 0)
(-0.0422429 -0.0261902 0)
(-0.0384137 -0.0256191 0)
(-0.0346464 -0.0248357 0)
(-0.0309702 -0.0238493 0)
(-0.0274131 -0.0226722 0)
(-0.0240016 -0.0213199 0)
(-0.0207605 -0.0198113 0)
(-0.0177123 -0.0181681 0)
(-0.0148769 -0.0164153 0)
(-0.0122712 -0.0145811 0)
(-0.00990873 -0.0126965 0)
(-0.00779962 -0.0107955 0)
(-0.00595018 -0.00891482 0)
(-0.00436282 -0.00709429 0)
(-0.00303607 -0.0053764 0)
(-0.00196461 -0.00380658 0)
(-0.00113896 -0.00243316 0)
(-0.000545179 -0.00130726 0)
(-0.000172299 -0.000482737 0)
(-2.01735e-05 -1.86165e-05 0)
(-6.5239e-05 0.00101117 0)
(-0.000445465 0.00319629 0)
(-0.00127715 0.00546417 0)
(-0.00248135 0.00775191 0)
(-0.0040146 0.01001 0)
(-0.00585152 0.0121983 0)
(-0.00796575 0.0142848 0)
(-0.010331 0.0162453 0)
(-0.0129224 0.0180621 0)
(-0.015716 0.0197228 0)
(-0.0186886 0.0212197 0)
(-0.0218182 0.0225485 0)
(-0.0250831 0.0237079 0)
(-0.0284628 0.0246986 0)
(-0.031937 0.0255229 0)
(-0.0354862 0.026184 0)
(-0.0390916 0.0266856 0)
(-0.0427345 0.0270318 0)
(-0.0463971 0.0272264 0)
(-0.0500615 0.0272731 0)
(-0.0537106 0.0271754 0)
(-0.0573272 0.0269361 0)
(-0.0608945 0.0265576 0)
(-0.064396 0.0260422 0)
(-0.067815 0.0253916 0)
(-0.0711354 0.0246074 0)
(-0.0743409 0.0236911 0)
(-0.0774157 0.0226442 0)
(-0.0803439 0.0214685 0)
(-0.0831101 0.0201661 0)
(-0.0856989 0.0187396 0)
(-0.0880955 0.0171922 0)
(-0.0902854 0.0155279 0)
(-0.0922549 0.0137518 0)
(-0.0939906 0.0118698 0)
(-0.09548 0.00988901 0)
(-0.0967116 0.00781776 0)
(-0.0976747 0.0056656 0)
(-0.0983598 0.00344341 0)
(-0.0987588 0.00116333 0)
(-0.0988649 -0.0011612 0)
(-0.0986727 -0.00351549 0)
(-0.0981788 -0.0058837 0)
(-0.0973814 -0.0082489 0)
(-0.0962807 -0.0105932 0)
(-0.0948789 -0.0128979 0)
(-0.0931803 -0.0151438 0)
(-0.0911918 -0.0173109 0)
(-0.0889221 -0.0193795 0)
(-0.0863826 -0.0213296 0)
(-0.0835869 -0.0231416 0)
(-0.0805512 -0.0247965 0)
(-0.0772939 -0.0262762 0)
(-0.0738355 -0.0275638 0)
(-0.070199 -0.0286438 0)
(-0.0664093 -0.0295028 0)