/*--------------------------------*- C++ -*----------------------------------*\
  =========                 |
  \\      /  F ield         | OpenFOAM: The Open Source CFD Toolbox
   \\    /   O peration     | Website:  https://openfoam.org
    \\  /    A nd           | Version:  7
     \\/     M anipulation  |
\*---------------------------------------------------------------------------*/
FoamFile
{
    version     2.0;
    format      ascii;
    class       surfaceScalarField;
    location    "0.1";
    object      phi;
}
// * * * * * * * * * * * * * * * * * * * * * * * * * * * * * * * * * * * * * //

dimensions      [0 3 -1 0 0 0 0];

internalField   nonuniform List<scalar> 
12640
(
1.42398e-10
-1.42411e-10
2.99938e-10
-1.57536e-10
3.15638e-10
-1.56838e-11
1.44968e-10
1.70668e-10
-2.22209e-10
3.67178e-10
-7.76094e-10
5.53883e-10
-1.49834e-09
7.22247e-10
-2.36746e-09
8.69113e-10
-3.3615e-09
9.94049e-10
-4.45955e-09
1.09805e-09
-5.64208e-09
1.18252e-09
-6.89115e-09
1.24907e-09
-8.19056e-09
1.2994e-09
-9.52584e-09
1.33528e-09
-1.08842e-08
1.35834e-09
-1.22543e-08
1.37009e-09
-1.36262e-08
1.37194e-09
-1.49914e-08
1.36514e-09
-1.63422e-08
1.35081e-09
-1.76721e-08
1.32988e-09
-1.89752e-08
1.30316e-09
-2.02465e-08
1.27133e-09
-2.14815e-08
1.23502e-09
-2.26762e-08
1.19469e-09
-2.3827e-08
1.15074e-09
-2.49304e-08
1.10344e-09
-2.59835e-08
1.05305e-09
-2.69833e-08
9.99785e-10
-2.7927e-08
9.43785e-10
-2.88122e-08
8.85157e-10
-2.96362e-08
8.2399e-10
-3.03966e-08
7.60359e-10
-3.10909e-08
6.94323e-10
-3.17168e-08
6.25945e-10
-3.22721e-08
5.55288e-10
-3.27546e-08
4.82419e-10
-3.3162e-08
4.07412e-10
-3.34923e-08
3.30343e-10
-3.37436e-08
2.51305e-10
-3.3914e-08
1.7041e-10
-3.40018e-08
8.77968e-11
-3.40055e-08
3.62988e-12
-3.39235e-08
-8.19098e-11
-3.37549e-08
-1.68628e-10
-3.34986e-08
-2.56308e-10
-3.31539e-08
-3.44701e-10
-3.27204e-08
-4.33531e-10
-3.21979e-08
-5.22481e-10
-3.15867e-08
-6.11198e-10
-3.08874e-08
-6.99293e-10
-3.01011e-08
-7.86345e-10
-2.92292e-08
-8.7189e-10
-2.82737e-08
-9.55429e-10
-2.72373e-08
-1.03641e-09
-2.61231e-08
-1.11422e-09
-2.49349e-08
-1.18819e-09
-2.36773e-08
-1.25761e-09
-2.23556e-08
-1.32168e-09
-2.09761e-08
-1.37957e-09
-1.95457e-08
-1.43036e-09
-1.80726e-08
-1.47311e-09
-1.65658e-08
-1.50676e-09
-1.50356e-08
-1.53024e-09
-1.34932e-08
-1.54239e-09
-1.19512e-08
-1.542e-09
-1.04234e-08
-1.52782e-09
-8.92483e-09
-1.49856e-09
-7.4719e-09
-1.45292e-09
-6.08231e-09
-1.3896e-09
-4.77499e-09
-1.30732e-09
-3.57007e-09
-1.20492e-09
-2.48867e-09
-1.0814e-09
-1.55254e-09
-9.36124e-10
-7.83384e-10
-7.6916e-10
-2.0149e-10
-5.81897e-10
1.76981e-10
-3.78467e-10
3.45481e-10
-1.68497e-10
3.17582e-10
2.78941e-11
1.51702e-10
1.6588e-10
1.51703e-10
1.41876e-10
-2.84285e-10
1.65982e-10
-1.81655e-10
-1.39192e-10
2.89498e-10
-8.75072e-10
9.0655e-10
-2.07119e-09
1.56329e-09
-3.71832e-09
2.20101e-09
-5.78457e-09
2.78847e-09
-8.22617e-09
3.3107e-09
-1.09944e-08
3.76228e-09
-1.40396e-08
4.14323e-09
-1.73134e-08
4.45634e-09
-2.07703e-08
4.70593e-09
-2.4368e-08
4.89717e-09
-2.80683e-08
5.03552e-09
-3.18363e-08
5.12637e-09
-3.56411e-08
5.17491e-09
-3.94552e-08
5.186e-09
-4.32541e-08
5.16406e-09
-4.70163e-08
5.11307e-09
-5.0723e-08
5.0365e-09
-5.43572e-08
4.93739e-09
-5.79042e-08
4.81835e-09
-6.13507e-08
4.6816e-09
-6.4685e-08
4.52898e-09
-6.78963e-08
4.36201e-09
-7.09747e-08
4.18193e-09
-7.39114e-08
3.98974e-09
-7.66979e-08
3.78626e-09
-7.93263e-08
3.57213e-09
-8.1789e-08
3.34786e-09
-8.40789e-08
3.11387e-09
-8.6189e-08
2.87049e-09
-8.81127e-08
2.61803e-09
-8.98435e-08
2.35677e-09
-9.13752e-08
2.08701e-09
-9.27018e-08
1.80903e-09
-9.38176e-08
1.52315e-09
-9.4717e-08
1.22972e-09
-9.53948e-08
9.29142e-10
-9.58463e-08
6.21871e-10
-9.60669e-08
3.08442e-10
-9.60527e-08
-1.05417e-11
-9.58002e-08
-3.34399e-10
-9.53065e-08
-6.62368e-10
-9.45692e-08
-9.93602e-10
-9.35868e-08
-1.32715e-09
-9.23584e-08
-1.66193e-09
-9.08841e-08
-1.99677e-09
-8.91649e-08
-2.33036e-09
-8.7203e-08
-2.66123e-09
-8.50015e-08
-2.98781e-09
-8.25651e-08
-3.30833e-09
-7.98996e-08
-3.6209e-09
-7.70126e-08
-3.92343e-09
-7.39131e-08
-4.21364e-09
-7.06123e-08
-4.48904e-09
-6.7123e-08
-4.74695e-09
-6.34602e-08
-4.98446e-09
-5.96413e-08
-5.19844e-09
-5.56861e-08
-5.38556e-09
-5.1617e-08
-5.54224e-09
-4.74591e-08
-5.66471e-09
-4.32403e-08
-5.74898e-09
-3.89918e-08
-5.7909e-09
-3.47476e-08
-5.78616e-09
-3.05451e-08
-5.73034e-09
-2.64247e-08
-5.619e-09
-2.24299e-08
-5.44775e-09
-1.86071e-08
-5.21238e-09
-1.50054e-08
-4.90907e-09
-1.16756e-08
-4.53466e-09
-8.6699e-09
-4.08713e-09
-6.03966e-09
-3.56638e-09
-3.83333e-09
-2.9755e-09
-2.09217e-09
-2.32305e-09
-8.43479e-10
-1.62716e-09
-8.93214e-11
-9.22667e-10
2.11198e-10
-2.72631e-10
1.65888e-10
2.11187e-10
3.17584e-10
1.51806e-11
-2.9945e-10
-2.97415e-10
1.3094e-10
-1.12754e-09
1.11963e-09
-2.57788e-09
2.35689e-09
-4.68371e-09
3.66913e-09
-7.4351e-09
4.9524e-09
-1.07928e-08
6.14622e-09
-1.47004e-08
7.21827e-09
-1.90923e-08
8.15413e-09
-2.38993e-08
8.95029e-09
-2.90528e-08
9.60975e-09
-3.44862e-08
1.01394e-08
-4.01374e-08
1.05483e-08
-4.59485e-08
1.08466e-08
-5.18668e-08
1.10447e-08
-5.78448e-08
1.11528e-08
-6.38395e-08
1.11807e-08
-6.98128e-08
1.11374e-08
-7.57308e-08
1.1031e-08
-8.15631e-08
1.08688e-08
-8.7283e-08
1.06573e-08
-9.28666e-08
1.04019e-08
-9.82925e-08
1.01075e-08
-1.03542e-07
9.77806e-09
-1.08596e-07
9.41686e-09
-1.13441e-07
9.02669e-09
-1.18061e-07
8.60981e-09
-1.22443e-07
8.16807e-09
-1.26574e-07
7.70295e-09
-1.30442e-07
7.21566e-09
-1.34035e-07
6.70722e-09
-1.37343e-07
6.17846e-09
-1.40355e-07
5.63015e-09
-1.43061e-07
5.06297e-09
-1.45452e-07
4.47762e-09
-1.47518e-07
3.8748e-09
-1.4925e-07
3.25524e-09
-1.5064e-07
2.61978e-09
-1.5168e-07
1.96933e-09
-1.52363e-07
1.30491e-09
-1.52682e-07
6.27712e-10
-1.52632e-07
-6.09541e-11
-1.52207e-07
-7.59603e-10
-1.51403e-07
-1.46657e-09
-1.50216e-07
-2.17999e-09
-1.48646e-07
-2.89781e-09
-1.4669e-07
-3.6177e-09
-1.4435e-07
-4.33711e-09
-1.41627e-07
-5.05322e-09
-1.38525e-07
-5.76291e-09
-1.3505e-07
-6.46276e-09
-1.31209e-07
-7.14902e-09
-1.27013e-07
-7.8176e-09
-1.22472e-07
-8.46403e-09
-1.17602e-07
-9.08344e-09
-1.12421e-07
-9.67053e-09
-1.06948e-07
-1.02196e-08
-1.01208e-07
-1.07245e-08
-9.5228e-08
-1.11785e-08
-8.90389e-08
-1.15747e-08
-8.26757e-08
-1.19055e-08
-7.61774e-08
-1.21629e-08
-6.95876e-08
-1.23388e-08
-6.2954e-08
-1.24245e-08
-5.63291e-08
-1.2411e-08
-4.97699e-08
-1.22896e-08
-4.33376e-08
-1.20513e-08
-3.70979e-08
-1.16875e-08
-3.112e-08
-1.11903e-08
-2.54762e-08
-1.05529e-08
-2.02405e-08
-9.77032e-09
-1.54872e-08
-8.84044e-09
-1.12879e-08
-7.76565e-09
-7.70805e-09
-6.5554e-09
-4.80077e-09
-5.23033e-09
-2.59894e-09
-3.82901e-09
-1.10293e-09
-2.41868e-09
-2.6504e-10
-1.11052e-09
3.0294e-11
-8.41607e-11
3.47872e-10
-1.69562e-10
-1.29884e-10
-9.10475e-10
8.71853e-10
-2.36614e-09
2.5753e-09
-4.61377e-09
4.60452e-09
-7.67667e-09
6.73202e-09
-1.15368e-08
8.81255e-09
-1.6147e-08
1.07563e-08
-2.14408e-08
1.25121e-08
-2.73407e-08
1.40541e-08
-3.3764e-08
1.53736e-08
-4.0627e-08
1.64727e-08
-4.78478e-08
1.73602e-08
-5.53485e-08
1.8049e-08
-6.30561e-08
1.85543e-08
-7.09034e-08
1.8892e-08
-7.88289e-08
1.90783e-08
-8.6777e-08
1.91288e-08
-9.46976e-08
1.9058e-08
-1.02546e-07
1.88792e-08
-1.10281e-07
1.86045e-08
-1.17869e-07
1.82446e-08
-1.25276e-07
1.78089e-08
-1.32474e-07
1.73053e-08
-1.39436e-07
1.67407e-08
-1.4614e-07
1.61209e-08
-1.52564e-07
1.54507e-08
-1.58688e-07
1.4734e-08
-1.64494e-07
1.3974e-08
-1.69965e-07
1.31736e-08
-1.75084e-07
1.23349e-08
-1.79837e-07
1.14598e-08
-1.84208e-07
1.05498e-08
-1.88184e-07
9.60637e-09
-1.91752e-07
8.63084e-09
-1.94899e-07
7.62448e-09
-1.97613e-07
6.58858e-09
-1.99882e-07
5.52451e-09
-2.01696e-07
4.43375e-09
-2.03045e-07
3.31794e-09
-2.03919e-07
2.17891e-09
-2.0431e-07
1.01871e-09
-2.0421e-07
-1.60367e-10
-2.03614e-07
-1.35574e-09
-2.02516e-07
-2.56455e-09
-2.00913e-07
-3.78357e-09
-1.98801e-07
-5.00925e-09
-1.96181e-07
-6.23764e-09
-1.93054e-07
-7.46435e-09
-1.89423e-07
-8.68457e-09
-1.85293e-07
-9.89298e-09
-1.80672e-07
-1.10838e-08
-1.7557e-07
-1.22505e-08
-1.70001e-07
-1.33863e-08
-1.63982e-07
-1.44836e-08
-1.57531e-07
-1.5534e-08
-1.50673e-07
-1.65287e-08
-1.43435e-07
-1.7458e-08
-1.35847e-07
-1.83115e-08
-1.27948e-07
-1.90782e-08
-1.19776e-07
-1.97461e-08
-1.11379e-07
-2.03027e-08
-1.02807e-07
-2.07348e-08
-9.41173e-08
-2.10288e-08
-8.53713e-08
-2.11705e-08
-7.6637e-08
-2.11454e-08
-6.79875e-08
-2.09391e-08
-5.95013e-08
-2.05375e-08
-5.12615e-08
-1.99272e-08
-4.33554e-08
-1.90964e-08
-3.5873e-08
-1.80353e-08
-2.89058e-08
-1.67376e-08
-2.2544e-08
-1.52022e-08
-1.68737e-08
-1.3436e-08
-1.19721e-08
-1.14569e-08
-7.90183e-09
-9.30065e-09
-4.70236e-09
-7.02849e-09
-2.3804e-09
-4.74064e-09
-8.98046e-10
-2.59288e-09
-1.60582e-10
-8.21636e-10
1.8729e-10
-3.65112e-10
2.35233e-10
-1.57169e-09
2.07843e-09
-3.69606e-09
4.69967e-09
-6.77627e-09
7.68473e-09
-1.08123e-08
1.0768e-08
-1.5771e-08
1.37713e-08
-2.15939e-08
1.65793e-08
-2.8205e-08
1.91231e-08
-3.55166e-08
2.13657e-08
-4.34353e-08
2.32923e-08
-5.18661e-08
2.49035e-08
-6.07153e-08
2.62094e-08
-6.98931e-08
2.72267e-08
-7.93144e-08
2.79756e-08
-8.89002e-08
2.84778e-08
-9.85779e-08
2.8756e-08
-1.08281e-07
2.8832e-08
-1.1795e-07
2.87266e-08
-1.2753e-07
2.84591e-08
-1.36972e-07
2.8047e-08
-1.46233e-07
2.75059e-08
-1.55274e-07
2.68496e-08
-1.64059e-07
2.60901e-08
-1.72556e-07
2.52376e-08
-1.80736e-07
2.43008e-08
-1.88572e-07
2.3287e-08
-1.9604e-07
2.22023e-08
-2.03118e-07
2.10517e-08
-2.09784e-07
1.98395e-08
-2.16018e-07
1.85692e-08
-2.21802e-07
1.72437e-08
-2.27118e-07
1.58657e-08
-2.31949e-07
1.44373e-08
-2.36279e-07
1.29608e-08
-2.40092e-07
1.14381e-08
-2.43375e-07
9.87148e-09
-2.46114e-07
8.26297e-09
-2.48295e-07
6.61495e-09
-2.49907e-07
4.92996e-09
-2.50939e-07
3.21086e-09
-2.51381e-07
1.46078e-09
-2.51225e-07
-3.16768e-10
-2.50463e-07
-2.11785e-09
-2.49089e-07
-3.93811e-09
-2.471e-07
-5.77269e-09
-2.44493e-07
-7.61619e-09
-2.41268e-07
-9.46266e-09
-2.37427e-07
-1.13055e-08
-2.32974e-07
-1.31375e-08
-2.27916e-07
-1.49506e-08
-2.22264e-07
-1.67362e-08
-2.1603e-07
-1.84846e-08
-2.09231e-07
-2.01855e-08
-2.01887e-07
-2.18274e-08
-1.94023e-07
-2.33982e-08
-1.85667e-07
-2.48845e-08
-1.76853e-07
-2.62719e-08
-1.67619e-07
-2.75451e-08
-1.5801e-07
-2.86876e-08
-1.48074e-07
-2.96819e-08
-1.37867e-07
-3.05097e-08
-1.2745e-07
-3.11515e-08
-1.16892e-07
-3.15875e-08
-1.06265e-07
-3.1797e-08
-9.56513e-08
-3.17594e-08
-8.51362e-08
-3.14541e-08
-7.48123e-08
-3.08614e-08
-6.47767e-08
-2.99628e-08
-5.51308e-08
-2.87423e-08
-4.59785e-08
-2.71876e-08
-3.74243e-08
-2.52918e-08
-2.95708e-08
-2.30557e-08
-2.25153e-08
-2.04915e-08
-1.6345e-08
-1.76272e-08
-1.11317e-08
-1.45139e-08
-6.92524e-09
-1.1235e-08
-3.74582e-09
-7.92006e-09
-1.57737e-09
-4.76135e-09
-3.62136e-10
-2.03687e-09
-1.74847e-10
-5.55002e-10
7.90236e-10
-2.22681e-09
3.75023e-09
-5.02292e-09
7.49578e-09
-8.9356e-09
1.15974e-08
-1.39344e-08
1.57668e-08
-1.99658e-08
1.98027e-08
-2.6957e-08
2.35705e-08
-3.48203e-08
2.69864e-08
-4.34584e-08
3.00038e-08
-5.27686e-08
3.26025e-08
-6.26465e-08
3.47814e-08
-7.2989e-08
3.65519e-08
-8.36966e-08
3.79343e-08
-9.46748e-08
3.89538e-08
-1.05835e-07
3.96383e-08
-1.17096e-07
4.00168e-08
-1.28382e-07
4.01181e-08
-1.39625e-07
3.99695e-08
-1.50763e-07
3.95968e-08
-1.61739e-07
3.90233e-08
-1.72504e-07
3.82704e-08
-1.83011e-07
3.73566e-08
-1.93219e-07
3.62984e-08
-2.03091e-07
3.51097e-08
-2.12593e-07
3.38028e-08
-2.21694e-07
3.23878e-08
-2.30365e-07
3.08732e-08
-2.38579e-07
2.92663e-08
-2.46313e-07
2.7573e-08
-2.53542e-07
2.57984e-08
-2.60245e-07
2.39469e-08
-2.66402e-07
2.20222e-08
-2.71992e-07
2.00277e-08
-2.76998e-07
1.79664e-08
-2.81401e-07
1.58416e-08
-2.85186e-07
1.36561e-08
-2.88336e-07
1.14131e-08
-2.90837e-07
9.11607e-09
-2.92676e-07
6.76861e-09
-2.9384e-07
4.37474e-09
-2.94318e-07
1.93894e-09
-2.94101e-07
-5.33858e-10
-2.93181e-07
-3.03815e-09
-2.91551e-07
-5.56783e-09
-2.89207e-07
-8.11611e-09
-2.86148e-07
-1.06755e-08
-2.82373e-07
-1.32376e-08
-2.77885e-07
-1.57935e-08
-2.7269e-07
-1.83329e-08
-2.66796e-07
-2.08448e-08
-2.60215e-07
-2.33172e-08
-2.52962e-07
-2.57369e-08
-2.45058e-07
-2.80894e-08
-2.36527e-07
-3.03591e-08
-2.27396e-07
-3.25292e-08
-2.17699e-07
-3.45812e-08
-2.07475e-07
-3.64956e-08
-1.96769e-07
-3.82512e-08
-1.85631e-07
-3.98256e-08
-1.74118e-07
-4.11951e-08
-1.62293e-07
-4.23344e-08
-1.50227e-07
-4.32177e-08
-1.37996e-07
-4.3818e-08
-1.25686e-07
-4.41077e-08
-1.13386e-07
-4.40594e-08
-1.01194e-07
-4.36461e-08
-8.92131e-08
-4.28419e-08
-7.75525e-08
-4.16233e-08
-6.63245e-08
-3.99704e-08
-5.56437e-08
-3.78684e-08
-4.56255e-08
-3.531e-08
-3.63825e-08
-3.22987e-08
-2.80217e-08
-2.88523e-08
-2.06401e-08
-2.50088e-08
-1.43203e-08
-2.08337e-08
-9.12575e-09
-1.64296e-08
-5.0959e-09
-1.19499e-08
-2.24357e-09
-7.61368e-09
-5.55261e-10
-3.72518e-09
-7.30115e-10
-7.3131e-10
1.52155e-09
-2.84783e-09
5.86674e-09
-6.29362e-09
1.09416e-08
-1.10144e-08
1.63181e-08
-1.69459e-08
2.16983e-08
-2.4011e-08
2.68678e-08
-3.21195e-08
3.16791e-08
-4.11709e-08
3.60378e-08
-5.10572e-08
3.98901e-08
-6.16667e-08
4.3212e-08
-7.28865e-08
4.60011e-08
-8.46055e-08
4.82709e-08
-9.67162e-08
5.00451e-08
-1.09117e-07
5.1354e-08
-1.2171e-07
5.2232e-08
-1.34408e-07
5.27146e-08
-1.47128e-07
5.28377e-08
-1.59794e-07
5.26355e-08
-1.72337e-07
5.21406e-08
-1.84697e-07
5.13827e-08
-1.96815e-07
5.03888e-08
-2.08642e-07
4.91831e-08
-2.2013e-07
4.77866e-08
-2.31238e-07
4.62177e-08
-2.41927e-07
4.44921e-08
-2.52163e-07
4.26233e-08
-2.61912e-07
4.06227e-08
-2.71146e-07
3.84997e-08
-2.79835e-07
3.62625e-08
-2.87955e-07
3.39179e-08
-2.9548e-07
3.14719e-08
-3.02387e-07
2.89295e-08
-3.08655e-07
2.62954e-08
-3.14262e-07
2.35739e-08
-3.1919e-07
2.07692e-08
-3.23419e-07
1.78855e-08
-3.26933e-07
1.49271e-08
-3.29716e-07
1.18985e-08
-3.31752e-07
8.80465e-09
-3.33028e-07
5.65097e-09
-3.33532e-07
2.44339e-09
-3.33255e-07
-8.11495e-10
-3.32187e-07
-4.10641e-09
-3.30321e-07
-7.43327e-09
-3.27654e-07
-1.07831e-08
-3.24183e-07
-1.41461e-08
-3.1991e-07
-1.75113e-08
-3.14837e-07
-2.08666e-08
-3.08971e-07
-2.41989e-08
-3.02322e-07
-2.74937e-08
-2.94904e-07
-3.07352e-08
-2.86735e-07
-3.39061e-08
-2.77836e-07
-3.69875e-08
-2.68236e-07
-3.99592e-08
-2.57967e-07
-4.2799e-08
-2.47065e-07
-4.54831e-08
-2.35574e-07
-4.7986e-08
-2.23545e-07
-5.02804e-08
-2.11034e-07
-5.23372e-08
-1.98103e-07
-5.41257e-08
-1.84824e-07
-5.56138e-08
-1.71273e-07
-5.67682e-08
-1.57537e-07
-5.75543e-08
-1.43707e-07
-5.79375e-08
-1.29884e-07
-5.7883e-08
-1.16173e-07
-5.7357e-08
-1.02687e-07
-5.63275e-08
-8.95445e-08
-5.47659e-08
-7.68668e-08
-5.26481e-08
-6.47781e-08
-4.99571e-08
-5.34024e-08
-4.66857e-08
-4.28616e-08
-4.28395e-08
-3.32721e-08
-3.84418e-08
-2.47414e-08
-3.35396e-08
-1.73646e-08
-2.82105e-08
-1.12213e-08
-2.25728e-08
-6.37387e-09
-1.67974e-08
-2.86689e-09
-1.11207e-08
-7.31814e-10
-5.86027e-09
-1.46194e-09
-8.91397e-10
2.41294e-09
-3.42245e-09
8.3978e-09
-7.48177e-09
1.50009e-08
-1.2971e-08
2.18073e-08
-1.97919e-08
2.85193e-08
-2.78419e-08
3.49178e-08
-3.70119e-08
4.0849e-08
-4.71868e-08
4.62127e-08
-5.82474e-08
5.09507e-08
-7.00723e-08
5.50369e-08
-8.25407e-08
5.84696e-08
-9.55341e-08
6.12643e-08
-1.08938e-07
6.34491e-08
-1.22644e-07
6.50598e-08
-1.36549e-07
6.61369e-08
-1.50557e-07
6.67233e-08
-1.64581e-07
6.68617e-08
-1.7854e-07
6.65938e-08
-1.92358e-07
6.59591e-08
-2.05969e-07
6.49939e-08
-2.19312e-07
6.37314e-08
-2.3233e-07
6.22014e-08
-2.44974e-07
6.043e-08
-2.57196e-07
5.84401e-08
-2.68955e-07
5.62514e-08
-2.80213e-07
5.38809e-08
-2.90933e-07
5.13429e-08
-3.01083e-07
4.86497e-08
-3.10632e-07
4.58116e-08
-3.19552e-07
4.28375e-08
-3.27815e-07
3.97349e-08
-3.35396e-07
3.65106e-08
-3.42271e-07
3.31707e-08
-3.48418e-07
2.97208e-08
-3.53815e-07
2.61664e-08
-3.58443e-07
2.2513e-08
-3.62282e-07
1.8766e-08
-3.65315e-07
1.49315e-08
-3.67526e-07
1.10158e-08
-3.68901e-07
7.02574e-09
-3.69426e-07
2.96899e-09
-3.69092e-07
-1.1461e-09
-3.67888e-07
-5.31025e-09
-3.65808e-07
-9.51322e-09
-3.62847e-07
-1.37437e-08
-3.59004e-07
-1.79892e-08
-3.5428e-07
-2.22358e-08
-3.48678e-07
-2.64686e-08
-3.42206e-07
-3.06707e-08
-3.34876e-07
-3.4824e-08
-3.26702e-07
-3.89086e-08
-3.17705e-07
-4.29028e-08
-3.0791e-07
-4.67829e-08
-2.97346e-07
-5.05235e-08
-2.86048e-07
-5.40968e-08
-2.74058e-07
-5.7473e-08
-2.61424e-07
-6.06204e-08
-2.48199e-07
-6.35049e-08
-2.34446e-07
-6.60903e-08
-2.20233e-07
-6.83387e-08
-2.05636e-07
-7.02103e-08
-1.90741e-07
-7.1664e-08
-1.75637e-07
-7.26575e-08
-1.60426e-07
-7.31485e-08
-1.45215e-07
-7.30946e-08
-1.30117e-07
-7.24551e-08
-1.15252e-07
-7.11918e-08
-1.00748e-07
-6.92705e-08
-8.67326e-08
-6.66633e-08
-7.33389e-08
-6.33508e-08
-6.06994e-08
-5.93252e-08
-4.89445e-08
-5.45943e-08
-3.82004e-08
-4.9186e-08
-2.85857e-08
-4.31543e-08
-2.02097e-08
-3.65865e-08
-1.31701e-08
-2.96124e-08
-7.55292e-09
-2.24146e-08
-3.43496e-09
-1.52386e-08
-8.89324e-10
-8.40591e-09
-2.35126e-09
-1.03538e-09
3.44833e-09
-3.94713e-09
1.13095e-08
-8.57707e-09
1.96309e-08
-1.47869e-08
2.80172e-08
-2.24462e-08
3.61785e-08
-3.14265e-08
4.38982e-08
-4.1599e-08
5.10215e-08
-5.2833e-08
5.74468e-08
-6.49973e-08
6.31149e-08
-7.79607e-08
6.80003e-08
-9.15941e-08
7.21029e-08
-1.05772e-07
7.5442e-08
-1.20373e-07
7.80504e-08
-1.35283e-07
7.99698e-08
-1.50394e-07
8.12477e-08
-1.65605e-07
8.1934e-08
-1.80822e-07
8.2079e-08
-1.9596e-07
8.17318e-08
-2.1094e-07
8.0939e-08
-2.2569e-07
7.9744e-08
-2.40145e-07
7.81862e-08
-2.54245e-07
7.63013e-08
-2.67936e-07
7.41208e-08
-2.81168e-07
7.16722e-08
-2.93896e-07
6.89796e-08
-3.06079e-07
6.60635e-08
-3.17677e-07
6.29415e-08
-3.28656e-07
5.96288e-08
-3.38983e-07
5.61381e-08
-3.48626e-07
5.24804e-08
-3.57556e-07
4.86652e-08
-3.65746e-07
4.4701e-08
-3.73171e-07
4.05954e-08
-3.79806e-07
3.63556e-08
-3.85628e-07
3.19884e-08
-3.90616e-07
2.75006e-08
-3.94749e-07
2.28993e-08
-3.98009e-07
1.81918e-08
-4.00379e-07
1.3386e-08
-4.01844e-07
8.49057e-09
-4.0239e-07
3.51477e-09
-4.02005e-07
-1.53103e-09
-4.0068e-07
-6.63544e-09
-3.98407e-07
-1.17859e-08
-3.95183e-07
-1.69684e-08
-3.91004e-07
-2.21678e-08
-3.85872e-07
-2.73672e-08
-3.79793e-07
-3.25479e-08
-3.72774e-07
-3.76898e-08
-3.64828e-07
-4.27704e-08
-3.55971e-07
-4.77656e-08
-3.46225e-07
-5.26488e-08
-3.35616e-07
-5.73913e-08
-3.24178e-07
-6.1962e-08
-3.11947e-07
-6.63273e-08
-2.98969e-07
-7.04511e-08
-2.85295e-07
-7.42946e-08
-2.70983e-07
-7.78169e-08
-2.56099e-07
-8.09742e-08
-2.40717e-07
-8.37209e-08
-2.24918e-07
-8.60092e-08
-2.08792e-07
-8.77898e-08
-1.92437e-07
-8.90125e-08
-1.75959e-07
-8.96267e-08
-1.59471e-07
-8.95824e-08
-1.43094e-07
-8.88317e-08
-1.26956e-07
-8.73298e-08
-1.1119e-07
-8.50371e-08
-9.59317e-08
-8.19214e-08
-8.13218e-08
-7.79606e-08
-6.75009e-08
-7.31462e-08
-5.46082e-08
-6.7487e-08
-4.27801e-08
-6.10141e-08
-3.21473e-08
-5.3787e-08
-2.28339e-08
-4.58999e-08
-1.49563e-08
-3.749e-08
-8.62448e-09
-2.87464e-08
-3.94513e-09
-1.9918e-08
-1.0281e-09
-1.13229e-08
-3.37936e-09
-1.16432e-09
4.61266e-09
-4.42288e-09
1.45681e-08
-9.57872e-09
2.47867e-08
-1.64584e-08
3.48969e-08
-2.49016e-08
4.46217e-08
-3.47552e-08
5.37518e-08
-4.58703e-08
6.21366e-08
-5.81005e-08
6.9677e-08
-7.13018e-08
7.63162e-08
-8.53327e-08
8.20312e-08
-1.00056e-07
8.6826e-08
-1.15338e-07
9.07245e-08
-1.31053e-07
9.37652e-08
-1.4708e-07
9.59968e-08
-1.63306e-07
9.74737e-08
-1.79626e-07
9.82536e-08
-1.95941e-07
9.83945e-08
-2.12163e-07
9.79533e-08
-2.28207e-07
9.69839e-08
-2.44e-07
9.55367e-08
-2.59472e-07
9.36579e-08
-2.74559e-07
9.13891e-08
-2.89206e-07
8.87673e-08
-3.03359e-07
8.58251e-08
-3.1697e-07
8.25908e-08
-3.29995e-07
7.90888e-08
-3.42394e-07
7.53403e-08
-3.54129e-07
7.13632e-08
-3.65163e-07
6.71728e-08
-3.75466e-07
6.27826e-08
-3.85004e-07
5.8204e-08
-3.93751e-07
5.34474e-08
-4.01677e-07
4.8522e-08
-4.08758e-07
4.34366e-08
-4.1497e-07
3.81995e-08
-4.20288e-07
3.28191e-08
-4.24693e-07
2.73038e-08
-4.28163e-07
2.16627e-08
-4.30683e-07
1.59053e-08
-4.32234e-07
1.00418e-08
-4.32803e-07
4.0836e-09
-4.32377e-07
-1.95692e-09
-4.30946e-07
-8.06612e-09
-4.28503e-07
-1.42289e-08
-4.25043e-07
-2.04288e-08
-4.20563e-07
-2.66473e-08
-4.15066e-07
-3.28644e-08
-4.08556e-07
-3.90579e-08
-4.01042e-07
-4.52036e-08
-3.92538e-07
-5.12749e-08
-3.83061e-07
-5.72428e-08
-3.72634e-07
-6.30759e-08
-3.61285e-07
-6.87399e-08
-3.49049e-07
-7.41978e-08
-3.35967e-07
-7.94097e-08
-3.22085e-07
-8.43328e-08
-3.07459e-07
-8.89213e-08
-2.92149e-07
-9.31265e-08
-2.76226e-07
-9.68971e-08
-2.59768e-07
-1.00179e-07
-2.42861e-07
-1.02916e-07
-2.25599e-07
-1.05051e-07
-2.08086e-07
-1.06525e-07
-1.90434e-07
-1.07279e-07
-1.72761e-07
-1.07255e-07
-1.55195e-07
-1.06398e-07
-1.37869e-07
-1.04655e-07
-1.20924e-07
-1.01983e-07
-1.04502e-07
-9.83431e-08
-8.87514e-08
-9.37111e-08
-7.3821e-08
-8.80766e-08
-5.98594e-08
-8.14486e-08
-4.70133e-08
-7.38603e-08
-3.5426e-08
-6.53743e-08
-2.52369e-08
-5.60891e-08
-1.65809e-08
-4.6146e-08
-9.59076e-09
-3.57365e-08
-4.40003e-09
-2.51087e-08
-1.14973e-09
-1.45732e-08
-4.52909e-09
-1.27966e-09
5.89233e-09
-4.85314e-09
1.81416e-08
-1.04914e-08
3.0425e-08
-1.79907e-08
4.23962e-08
-2.71637e-08
5.37946e-08
-3.78339e-08
6.44221e-08
-4.98333e-08
7.4136e-08
-6.29995e-08
8.28432e-08
-7.71753e-08
9.0492e-08
-9.2209e-08
9.70649e-08
-1.07954e-07
1.02571e-07
-1.24271e-07
1.07041e-07
-1.41026e-07
1.10521e-07
-1.58095e-07
1.13065e-07
-1.75358e-07
1.14737e-07
-1.92707e-07
1.15603e-07
-2.1004e-07
1.15727e-07
-2.27263e-07
1.15177e-07
-2.44291e-07
1.14012e-07
-2.61045e-07
1.12291e-07
-2.77453e-07
1.10066e-07
-2.9345e-07
1.07386e-07
-3.08975e-07
1.04293e-07
-3.23974e-07
1.00824e-07
-3.38397e-07
9.70133e-08
-3.52197e-07
9.28885e-08
-3.65331e-07
8.84743e-08
-3.77759e-07
8.37917e-08
-3.89445e-07
7.8859e-08
-4.00354e-07
7.36917e-08
-4.10454e-07
6.83037e-08
-4.19714e-07
6.2707e-08
-4.28104e-07
5.69128e-08
-4.35599e-07
5.09314e-08
-4.42172e-07
4.47727e-08
-4.478e-07
3.84468e-08
-4.5246e-07
3.19636e-08
-4.56131e-07
2.53337e-08
-4.58794e-07
1.85685e-08
-4.60432e-07
1.16801e-08
-4.61031e-07
4.68179e-09
-4.60576e-07
-2.41193e-09
-4.59057e-07
-9.58501e-09
-4.56466e-07
-1.68198e-08
-4.52798e-07
-2.40968e-08
-4.48051e-07
-3.13946e-08
-4.42225e-07
-3.86896e-08
-4.35327e-07
-4.59559e-08
-4.27366e-07
-5.31651e-08
-4.18355e-07
-6.02861e-08
-4.08312e-07
-6.7285e-08
-3.97263e-07
-7.41251e-08
-3.85237e-07
-8.07663e-08
-3.72269e-07
-8.71654e-08
-3.58403e-07
-9.32759e-08
-3.43688e-07
-9.90479e-08
-3.28181e-07
-1.04428e-07
-3.11948e-07
-1.0936e-07
-2.95061e-07
-1.13784e-07
-2.77602e-07
-1.17638e-07
-2.59663e-07
-1.20856e-07
-2.41341e-07
-1.23373e-07
-2.22745e-07
-1.25121e-07
-2.03993e-07
-1.26032e-07
-1.85208e-07
-1.2604e-07
-1.66523e-07
-1.25082e-07
-1.48079e-07
-1.231e-07
-1.30021e-07
-1.2004e-07
-1.12501e-07
-1.15863e-07
-9.56739e-08
-1.10539e-07
-7.9696e-08
-1.04054e-07
-6.4726e-08
-9.64186e-08
-5.09216e-08
-8.76647e-08
-3.8439e-08
-7.78569e-08
-2.74325e-08
-6.70955e-08
-1.80551e-08
-5.55233e-08
-1.04602e-08
-4.33315e-08
-4.80505e-09
-3.07639e-08
-1.25636e-09
-1.81219e-08
-5.78545e-09
-1.38308e-09
7.27541e-09
-5.24256e-09
2.20011e-08
-1.1323e-08
3.65055e-08
-1.93947e-08
5.04678e-08
-2.92459e-08
6.36458e-08
-4.06792e-08
7.58553e-08
-5.35076e-08
8.69644e-08
-6.75534e-08
9.6889e-08
-8.26466e-08
1.05585e-07
-9.86244e-08
1.13043e-07
-1.15332e-07
1.19279e-07
-1.32622e-07
1.24331e-07
-1.50354e-07
1.28253e-07
-1.68399e-07
1.3111e-07
-1.86634e-07
1.32972e-07
-2.04946e-07
1.33914e-07
-2.23229e-07
1.3401e-07
-2.41386e-07
1.33334e-07
-2.59329e-07
1.31955e-07
-2.76977e-07
1.29938e-07
-2.94254e-07
1.27344e-07
-3.11095e-07
1.24226e-07
-3.27435e-07
1.20633e-07
-3.43219e-07
1.16608e-07
-3.58394e-07
1.12188e-07
-3.72912e-07
1.07406e-07
-3.86728e-07
1.02291e-07
-3.99802e-07
9.68652e-08
-4.12094e-07
9.1151e-08
-4.23568e-07
8.51662e-08
-4.34191e-07
7.89267e-08
-4.43931e-07
7.24467e-08
-4.52757e-07
6.57391e-08
-4.60642e-07
5.88159e-08
-4.67558e-07
5.16887e-08
-4.7348e-07
4.43691e-08
-4.78385e-07
3.68688e-08
-4.82252e-07
2.92e-08
-4.85059e-07
2.13758e-08
-4.86789e-07
1.34103e-08
-4.87426e-07
5.31878e-09
-4.86956e-07
-2.88198e-09
-4.85368e-07
-1.11735e-08
-4.82652e-07
-1.95354e-08
-4.78803e-07
-2.79453e-08
-4.7382e-07
-3.63785e-08
-4.67701e-07
-4.48077e-08
-4.60454e-07
-5.32032e-08
-4.52087e-07
-6.15322e-08
-4.42614e-07
-6.97589e-08
-4.32055e-07
-7.78443e-08
-4.20434e-07
-8.57459e-08
-4.07783e-07
-9.34178e-08
-3.94138e-07
-1.0081e-07
-3.79544e-07
-1.0787e-07
-3.64053e-07
-1.14539e-07
-3.47725e-07
-1.20756e-07
-3.30626e-07
-1.26458e-07
-3.12835e-07
-1.31575e-07
-2.94436e-07
-1.36037e-07
-2.75523e-07
-1.39769e-07
-2.562e-07
-1.42696e-07
-2.3658e-07
-1.44741e-07
-2.16784e-07
-1.45828e-07
-1.96943e-07
-1.45881e-07
-1.77195e-07
-1.4483e-07
-1.57686e-07
-1.42608e-07
-1.3857e-07
-1.39157e-07
-1.20004e-07
-1.34429e-07
-1.02151e-07
-1.28392e-07
-8.51771e-08
-1.21028e-07
-6.92505e-08
-1.12345e-07
-5.45399e-08
-1.02375e-07
-4.12145e-08
-9.11823e-08
-2.94433e-08
-7.88667e-08
-1.9396e-08
-6.55706e-08
-1.12447e-08
-5.14828e-08
-5.16694e-09
-3.68417e-08
-1.3503e-09
-2.19386e-08
-7.13575e-09
-1.47628e-09
8.75169e-09
-5.59636e-09
2.61212e-08
-1.20831e-08
4.29922e-08
-2.06842e-08
5.90689e-08
-3.11668e-08
7.41285e-08
-4.33137e-08
8.80022e-08
-5.69208e-08
1.00572e-07
-7.17953e-08
1.11763e-07
-8.77543e-08
1.21544e-07
-1.04624e-07
1.29913e-07
-1.22242e-07
1.36896e-07
-1.40451e-07
1.42541e-07
-1.59108e-07
1.4691e-07
-1.78075e-07
1.50077e-07
-1.97227e-07
1.52124e-07
-2.16445e-07
1.53132e-07
-2.35622e-07
1.53187e-07
-2.54657e-07
1.52369e-07
-2.73459e-07
1.50758e-07
-2.91946e-07
1.48425e-07
-3.10039e-07
1.45437e-07
-3.2767e-07
1.41857e-07
-3.44775e-07
1.37738e-07
-3.61294e-07
1.33127e-07
-3.77174e-07
1.28069e-07
-3.92366e-07
1.22598e-07
-4.06823e-07
1.16748e-07
-4.20503e-07
1.10545e-07
-4.33366e-07
1.04014e-07
-4.45374e-07
9.71743e-08
-4.56492e-07
9.00452e-08
-4.66688e-07
8.26424e-08
-4.7593e-07
7.49807e-08
-4.84188e-07
6.70739e-08
-4.91434e-07
5.89354e-08
-4.97643e-07
5.05781e-08
-5.0279e-07
4.20156e-08
-5.06852e-07
3.32618e-08
-5.09808e-07
2.43315e-08
-5.11638e-07
1.52407e-08
-5.12326e-07
6.00691e-09
-5.11857e-07
-3.35091e-09
-5.10219e-07
-1.28117e-08
-5.07402e-07
-2.23525e-08
-5.034e-07
-3.19477e-08
-4.98209e-07
-4.15692e-08
-4.9183e-07
-5.11861e-08
-4.84269e-07
-6.07646e-08
-4.75534e-07
-7.02673e-08
-4.65639e-07
-7.96536e-08
-4.54604e-07
-8.88791e-08
-4.42455e-07
-9.78955e-08
-4.29222e-07
-1.0665e-07
-4.14945e-07
-1.15087e-07
-3.9967e-07
-1.23145e-07
-3.83449e-07
-1.30759e-07
-3.66345e-07
-1.3786e-07
-3.48428e-07
-1.44375e-07
-3.29778e-07
-1.50226e-07
-3.10483e-07
-1.55332e-07
-2.90641e-07
-1.59611e-07
-2.70361e-07
-1.62977e-07
-2.49758e-07
-1.65343e-07
-2.28961e-07
-1.66625e-07
-2.08105e-07
-1.66738e-07
-1.87334e-07
-1.65601e-07
-1.66801e-07
-1.63141e-07
-1.46665e-07
-1.59293e-07
-1.27093e-07
-1.54002e-07
-1.08255e-07
-1.4723e-07
-9.03258e-08
-1.38957e-07
-7.34847e-08
-1.29186e-07
-5.79114e-08
-1.17949e-07
-4.37877e-08
-1.05306e-07
-3.12968e-08
-9.13576e-08
-2.06239e-08
-7.62435e-08
-1.19577e-08
-6.01489e-08
-5.49294e-09
-4.33064e-08
-1.43388e-09
-2.59976e-08
-8.56962e-09
-1.56095e-09
1.03126e-08
-5.91995e-09
3.04802e-08
-1.27817e-08
4.9854e-08
-2.18748e-08
6.8162e-08
-3.29473e-08
8.5201e-08
-4.57644e-08
1.00819e-07
-6.01055e-08
1.14913e-07
-7.57637e-08
1.27422e-07
-9.25436e-08
1.38324e-07
-1.10261e-07
1.47631e-07
-1.28744e-07
1.55378e-07
-1.47828e-07
1.61626e-07
-1.67364e-07
1.66445e-07
-1.87209e-07
1.69922e-07
-2.07232e-07
1.72146e-07
-2.27311e-07
1.73212e-07
-2.47337e-07
1.73212e-07
-2.67205e-07
1.72238e-07
-2.86823e-07
1.70375e-07
-3.06104e-07
1.67706e-07
-3.24971e-07
1.64304e-07
-3.43351e-07
1.60237e-07
-3.61179e-07
1.55566e-07
-3.78396e-07
1.50344e-07
-3.94946e-07
1.44618e-07
-4.10777e-07
1.3843e-07
-4.25844e-07
1.31814e-07
-4.40101e-07
1.24803e-07
-4.53509e-07
1.17421e-07
-4.66028e-07
1.09693e-07
-4.77622e-07
1.0164e-07
-4.88258e-07
9.32779e-08
-4.97902e-07
8.4625e-08
-5.06525e-07
7.56964e-08
-5.14096e-07
6.65071e-08
-5.2059e-07
5.70718e-08
-5.2598e-07
4.74056e-08
-5.30242e-07
3.75241e-08
-5.33355e-07
2.7444e-08
-5.35297e-07
1.71832e-08
-5.36052e-07
6.76122e-09
-5.35602e-07
-3.8006e-09
-5.33935e-07
-1.44787e-08
-5.3104e-07
-2.52473e-08
-5.2691e-07
-3.60776e-08
-5.21541e-07
-4.69382e-08
-5.14933e-07
-5.77944e-08
-5.0709e-07
-6.86079e-08
-4.9802e-07
-7.93369e-08
-4.87738e-07
-8.99355e-08
-4.76263e-07
-1.00354e-07
-4.63621e-07
-1.10537e-07
-4.49845e-07
-1.20427e-07
-4.34972e-07
-1.2996e-07
-4.19051e-07
-1.39066e-07
-4.02136e-07
-1.47674e-07
-3.84292e-07
-1.55705e-07
-3.6559e-07
-1.63076e-07
-3.46114e-07
-1.69702e-07
-3.25955e-07
-1.75491e-07
-3.05216e-07
-1.80351e-07
-2.84007e-07
-1.84185e-07
-2.62451e-07
-1.86899e-07
-2.40681e-07
-1.88396e-07
-2.18836e-07
-1.88582e-07
-1.97069e-07
-1.87368e-07
-1.75537e-07
-1.84672e-07
-1.54409e-07
-1.80421e-07
-1.33858e-07
-1.74553e-07
-1.14063e-07
-1.67024e-07
-9.52096e-08
-1.5781e-07
-7.74859e-08
-1.4691e-07
-6.10836e-08
-1.34351e-07
-4.6197e-08
-1.20193e-07
-3.30228e-08
-1.04532e-07
-2.17604e-08
-8.75059e-08
-1.26132e-08
-6.92962e-08
-5.79028e-09
-5.01293e-08
-1.5093e-09
-3.02786e-08
-1.00789e-08
-1.6387e-09
1.19514e-08
-6.21872e-09
3.50602e-08
-1.34295e-08
5.70647e-08
-2.29828e-08
7.77153e-08
-3.461e-08
9.68282e-08
-4.80598e-08
1.14269e-07
-6.3097e-08
1.2995e-07
-7.95006e-08
1.43825e-07
-9.70634e-08
1.55887e-07
-1.15591e-07
1.66158e-07
-1.34901e-07
1.74689e-07
-1.54825e-07
1.81549e-07
-1.75203e-07
1.86823e-07
-1.95889e-07
1.90608e-07
-2.16748e-07
1.93005e-07
-2.37654e-07
1.94118e-07
-2.58493e-07
1.94051e-07
-2.7916e-07
1.92904e-07
-2.99558e-07
1.90774e-07
-3.19601e-07
1.87749e-07
-3.39208e-07
1.83911e-07
-3.58307e-07
1.79336e-07
-3.76829e-07
1.74089e-07
-3.94715e-07
1.6823e-07
-4.11908e-07
1.61811e-07
-4.28355e-07
1.54877e-07
-4.44009e-07
1.47468e-07
-4.58824e-07
1.39618e-07
-4.7276e-07
1.31357e-07
-4.85775e-07
1.22709e-07
-4.97834e-07
1.13698e-07
-5.089e-07
1.04344e-07
-5.18942e-07
9.46662e-08
-5.27926e-07
8.46806e-08
-5.35823e-07
7.44043e-08
-5.42605e-07
6.38536e-08
-5.48244e-07
5.30451e-08
-5.52717e-07
4.19964e-08
-5.55998e-07
3.07256e-08
-5.58068e-07
1.92527e-08
-5.58906e-07
7.59929e-09
-5.58495e-07
-4.21106e-09
-5.56822e-07
-1.61523e-08
-5.53874e-07
-2.81956e-08
-5.49642e-07
-4.03092e-08
-5.44122e-07
-5.24581e-08
-5.37313e-07
-6.46037e-08
-5.29217e-07
-7.67034e-08