/*--------------------------------*- C++ -*----------------------------------*\
  =========                 |
  \\      /  F ield         | OpenFOAM: The Open Source CFD Toolbox
   \\    /   O peration     | Website:  https://openfoam.org
    \\  /    A nd           | Version:  7
     \\/     M anipulation  |
\*---------------------------------------------------------------------------*/
FoamFile
{
    version     2.0;
    format      ascii;
    class       surfaceScalarField;
    location    "3.6";
    object      phi;
}
// * * * * * * * * * * * * * * * * * * * * * * * * * * * * * * * * * * * * * //

dimensions      [0 3 -1 0 0 0 0];

internalField   nonuniform List<scalar> 
12640
(
4.01895e-10
-4.13391e-10
1.60311e-09
-1.20101e-09
3.10626e-09
-1.50313e-09
4.52767e-09
-1.42145e-09
5.64461e-09
-1.11689e-09
6.3406e-09
-6.95941e-10
6.56509e-09
-2.24492e-10
6.30628e-09
2.58808e-10
5.57252e-09
7.33767e-10
4.38045e-09
1.19208e-09
2.74773e-09
1.63271e-09
6.89089e-10
2.05865e-09
-1.78566e-09
2.47475e-09
-4.67194e-09
2.88628e-09
-7.96988e-09
3.29793e-09
-1.16831e-08
3.71325e-09
-1.58174e-08
4.13426e-09
-2.03787e-08
4.56131e-09
-2.53717e-08
4.993e-09
-3.07979e-08
5.42621e-09
-3.66541e-08
5.85622e-09
-4.29309e-08
6.27679e-09
-4.96113e-08
6.68031e-09
-5.66692e-08
7.05795e-09
-6.40691e-08
7.39986e-09
-7.17644e-08
7.69534e-09
-7.96975e-08
7.93307e-09
-8.77989e-08
8.10141e-09
-9.59875e-08
8.1886e-09
-1.04171e-07
8.1832e-09
-1.12245e-07
8.07437e-09
-1.20097e-07
7.85232e-09
-1.27606e-07
7.50868e-09
-1.34643e-07
7.03696e-09
-1.41076e-07
6.43297e-09
-1.46771e-07
5.69521e-09
-1.51597e-07
4.82526e-09
-1.55425e-07
3.82809e-09
-1.58137e-07
2.71231e-09
-1.59627e-07
1.49029e-09
-1.59808e-07
1.81207e-10
-1.58605e-07
-1.20394e-09
-1.55973e-07
-2.63143e-09
-1.51894e-07
-4.07926e-09
-1.46376e-07
-5.51762e-09
-1.39461e-07
-6.91529e-09
-1.31221e-07
-8.24002e-09
-1.21761e-07
-9.45958e-09
-1.11218e-07
-1.05428e-08
-9.97577e-08
-1.14607e-08
-8.75698e-08
-1.21879e-08
-7.48663e-08
-1.27035e-08
-6.18741e-08
-1.29922e-08
-4.88289e-08
-1.30452e-08
-3.59681e-08
-1.28607e-08
-2.35236e-08
-1.24445e-08
-1.17142e-08
-1.18094e-08
-7.38963e-10
-1.09752e-08
9.22999e-09
-9.96894e-09
1.80489e-08
-8.81892e-09
2.56099e-08
-7.56101e-09
3.18413e-08
-6.23131e-09
3.67075e-08
-4.86623e-09
4.02085e-08
-3.50099e-09
4.23765e-08
-2.16807e-09
4.32727e-08
-8.96105e-10
4.29817e-08
2.90948e-10
4.16078e-08
1.37394e-09
3.92694e-08
2.33839e-09
3.60961e-08
3.17331e-09
3.22265e-08
3.86961e-09
2.7809e-08
4.41748e-09
2.3006e-08
4.80295e-09
1.80026e-08
5.00346e-09
1.30199e-08
4.98266e-09
8.3338e-09
4.68613e-09
4.29183e-09
4.04197e-09
1.32343e-09
2.9684e-09
-1.08598e-10
1.43203e-09
-1.08597e-10
1.2105e-09
-1.62368e-09
3.62296e-09
-3.61336e-09
6.35664e-09
-4.23691e-09
8.76182e-09
-3.82662e-09
1.03931e-08
-2.74816e-09
1.09777e-08
-1.28048e-09
1.0369e-08
3.84169e-10
8.50418e-09
2.12363e-09
5.37032e-09
3.86762e-09
9.80533e-10
5.58185e-09
-4.64247e-09
7.25572e-09
-1.14765e-08
8.8927e-09
-1.95051e-08
1.05033e-08
-2.87192e-08
1.21004e-08
-3.91166e-08
1.36953e-08
-5.06995e-08
1.52961e-08
-6.34711e-08
1.69059e-08
-7.74319e-08
1.85221e-08
-9.25752e-08
2.01363e-08
-1.08883e-07
2.17342e-08
-1.26323e-07
2.32959e-08
-1.44842e-07
2.47964e-08
-1.64368e-07
2.62061e-08
-1.84802e-07
2.74916e-08
-2.06018e-07
2.86162e-08
-2.27864e-07
2.95411e-08
-2.50157e-07
3.02261e-08
-2.72686e-07
3.06307e-08
-2.95213e-07
3.07155e-08
-3.17473e-07
3.04429e-08
-3.39177e-07
2.97789e-08
-3.60019e-07
2.86944e-08
-3.79677e-07
2.71663e-08
-3.97819e-07
2.51792e-08
-4.14112e-07
2.27263e-08
-4.28228e-07
1.98106e-08
-4.39849e-07
1.64462e-08
-4.48679e-07
1.26583e-08
-4.54451e-07
8.48467e-09
-4.56936e-07
3.97458e-09
-4.55949e-07
-8.05545e-10
-4.51355e-07
-5.79763e-09
-4.43083e-07
-1.09036e-08
-4.31125e-07
-1.60372e-08
-4.15543e-07
-2.10995e-08
-3.96471e-07
-2.59873e-08
-3.74116e-07
-3.05953e-08
-3.48756e-07
-3.48194e-08
-3.20739e-07
-3.85601e-08
-2.90474e-07
-4.17254e-08
-2.58427e-07
-4.4235e-08
-2.25108e-07
-4.60231e-08
-1.91058e-07
-4.70415e-08
-1.56841e-07
-4.72621e-08
-1.23023e-07
-4.66788e-08
-9.01595e-08
-4.53083e-08
-5.87789e-08
-4.31901e-08
-2.93686e-08
-4.03855e-08
-2.36215e-09
-3.69754e-08
2.18763e-08
-3.30574e-08
4.30546e-08
-2.87394e-08
6.09641e-08
-2.41408e-08
7.54794e-08
-1.93815e-08
8.65583e-08
-1.458e-08
9.42386e-08
-9.84833e-09
9.86309e-08
-5.2884e-09
9.9911e-08
-9.89167e-10
9.83107e-08
2.97426e-09
9.41087e-08
6.54039e-09
8.76238e-08
9.65821e-09
7.92107e-08
1.22827e-08
6.92607e-08
1.43675e-08
5.82074e-08
1.58563e-08
4.65392e-08
1.66717e-08
3.48161e-08
1.67057e-08
2.36861e-08
1.58161e-08
1.3889e-08
1.38391e-08
6.22535e-09
1.06321e-08
1.44472e-09
6.21265e-09
1.33613e-09
1.53166e-09
-3.15531e-09
4.25764e-09
-6.3394e-09
7.0474e-09
-7.02659e-09
9.12257e-09
-5.90172e-09
9.94174e-09
-3.56732e-09
9.15543e-09
-4.9418e-10
6.56009e-09
2.97952e-09
2.05218e-09
6.63154e-09
-4.4073e-09
1.03271e-08
-1.28213e-08
1.39958e-08
-2.31762e-08
1.76106e-08
-3.54544e-08
2.11709e-08
-4.96412e-08
2.46901e-08
-6.57267e-08
2.81859e-08
-8.37052e-08
3.16738e-08
-1.03572e-07
3.51627e-08
-1.25317e-07
3.86516e-08
-1.48924e-07
4.21285e-08
-1.74357e-07
4.55697e-08
-2.01563e-07
4.89397e-08
-2.30459e-07
5.21921e-08
-2.60933e-07
5.52702e-08
-2.92836e-07
5.81091e-08
-3.2598e-07
6.06364e-08
-3.60139e-07
6.27746e-08
-3.95041e-07
6.44431e-08
-4.30375e-07
6.556e-08
-4.65789e-07
6.60449e-08
-5.00895e-07
6.5821e-08
-5.3527e-07
6.48182e-08
-5.68466e-07
6.29752e-08
-6.00015e-07
6.02426e-08
-6.29433e-07
5.65851e-08
-6.56238e-07
5.19839e-08
-6.79951e-07
4.64389e-08
-7.0011e-07
3.99702e-08
-7.16284e-07
3.26196e-08
-7.28077e-07
2.44513e-08
-7.35144e-07
1.5552e-08
-7.37201e-07
6.03137e-09
-7.34025e-07
-3.98093e-09
-7.25483e-07
-1.43394e-08
-7.11517e-07
-2.48699e-08
-6.92162e-07
-3.53926e-08
-6.67546e-07
-4.5715e-08
-6.37896e-07
-5.56379e-08
-6.03531e-07
-6.49604e-08
-5.64865e-07
-7.34852e-08
-5.224e-07
-8.10247e-08
-4.76719e-07
-8.74066e-08
-4.28474e-07
-9.24799e-08
-3.78376e-07
-9.6121e-08
-3.27179e-07
-9.82388e-08
-2.75662e-07
-9.87788e-08
-2.24614e-07
-9.7727e-08
-1.74811e-07
-9.51113e-08
-1.26999e-07
-9.10021e-08
-8.18736e-08
-8.55107e-08
-4.0063e-08
-7.8786e-08
-2.11159e-09
-7.10088e-08
3.15355e-08
-6.23865e-08
6.0537e-08
-5.31422e-08
8.4666e-08
-4.35105e-08
1.0381e-07
-3.37244e-08
1.17971e-07
-2.4009e-08
1.27256e-07
-1.45734e-08
1.31873e-07
-5.60594e-09
1.32118e-07
2.72894e-09
1.28368e-07
1.02908e-08
1.21068e-07
1.69583e-08
1.10728e-07
2.26223e-08
9.79217e-08
2.71739e-08
8.32872e-08
3.04908e-08
6.75375e-08
3.24213e-08
5.1471e-08
3.27723e-08
3.5979e-08
3.1308e-08
2.20428e-08
2.77753e-08
1.07038e-08
2.1971e-08
3.00713e-09
1.39094e-08
4.34326e-09
1.43388e-09
-4.58926e-09
3.72585e-09
-8.63133e-09
5.63263e-09
-8.93332e-09
6.32605e-09
-6.59512e-09
5.2396e-09
-2.48086e-09
2.00418e-09
2.74124e-09
-3.6045e-09
8.5882e-09
-1.17092e-08
1.47362e-08
-2.23673e-08
2.09853e-08
-3.55982e-08
2.72267e-08
-5.14013e-08
3.34137e-08
-6.97688e-08
3.95385e-08
-9.06915e-08
4.56128e-08
-1.1416e-07
5.16546e-08
-1.40164e-07
5.76774e-08
-1.68685e-07
6.3684e-08
-1.99695e-07
6.96612e-08
-2.33145e-07
7.55784e-08
-2.68961e-07
8.13858e-08
-3.07036e-07
8.70154e-08
-3.47226e-07
9.2382e-08
-3.89341e-07
9.73851e-08
-4.33144e-07
1.01912e-07
-4.78345e-07
1.05838e-07
-5.24607e-07
1.09036e-07
-5.71537e-07
1.11373e-07
-6.18694e-07
1.12717e-07
-6.65593e-07
1.12944e-07
-7.11707e-07
1.11936e-07
-7.5648e-07
1.09591e-07
-7.99329e-07
1.05824e-07
-8.39657e-07
1.00571e-07
-8.76867e-07
9.37942e-08
-9.10365e-07
8.54828e-08
-9.39584e-07
7.56572e-08
-9.63983e-07
6.43699e-08
-9.83071e-07
5.17073e-08
-9.96409e-07
3.77896e-08
-1.00363e-06
2.27706e-08
-1.00443e-06
6.83709e-09
-9.98614e-07
-9.80107e-09
-9.86056e-07
-2.68972e-08
-9.66743e-07
-4.4183e-08
-9.40761e-07
-6.1374e-08
-9.08305e-07
-7.81716e-08
-8.69673e-07
-9.42695e-08
-8.25272e-07
-1.09361e-07
-7.75611e-07
-1.23147e-07
-7.21293e-07
-1.35342e-07
-6.63014e-07
-1.45686e-07
-6.01545e-07
-1.53949e-07
-5.37724e-07
-1.59942e-07
-4.72439e-07
-1.63524e-07
-4.0661e-07
-1.64608e-07
-3.41171e-07
-1.63166e-07
-2.7705e-07
-1.59232e-07
-2.15146e-07
-1.52906e-07
-1.56309e-07
-1.44347e-07
-1.0132e-07
-1.33776e-07
-5.08675e-08
-1.21461e-07
-5.53821e-09
-1.07716e-07
3.42039e-08
-9.28843e-08
6.8022e-08
-7.73286e-08
9.57147e-08
-6.14172e-08
1.17217e-07
-4.55111e-08
1.32596e-07
-2.9953e-08
1.42049e-07
-1.50581e-08
1.45887e-07
-1.10943e-09
1.44534e-07
1.16444e-08
1.38509e-07
2.29831e-08
1.28424e-07
3.27068e-08
1.14978e-07
4.06205e-08
9.8952e-08
4.65165e-08
8.12182e-08
5.01551e-08
6.27403e-08
5.12501e-08
4.45797e-08
4.94687e-08
2.7896e-08
4.4459e-08
1.3946e-08
3.59211e-08
4.09889e-09
2.37564e-08
8.44216e-09
1.04669e-09
-5.63592e-09
2.292e-09
-9.87661e-09
2.52295e-09
-9.16426e-09
9.41355e-10
-5.01353e-09
-2.98806e-09
1.44858e-09
-9.61179e-09
9.36496e-09
-1.91426e-08
1.8119e-08
-3.17026e-08
2.72962e-08
-4.73564e-08
3.66391e-08
-6.61342e-08
4.60045e-08
-8.80478e-08
5.53273e-08
-1.13099e-07
6.45901e-08
-1.41286e-07
7.37991e-08
-1.72597e-07
8.29658e-08
-2.07014e-07
9.20942e-08
-2.44501e-07
1.01171e-07
-2.85001e-07
1.10161e-07
-3.28425e-07
1.19003e-07
-3.74649e-07
1.27609e-07
-4.235e-07
1.35867e-07
-4.74759e-07
1.43641e-07
-5.28148e-07
1.50774e-07
-5.83331e-07
1.57095e-07
-6.39913e-07
1.6242e-07
-6.9744e-07
1.66563e-07
-7.554e-07
1.69333e-07
-8.13233e-07
1.70549e-07
-8.7033e-07
1.70041e-07
-9.2605e-07
1.67656e-07
-9.79724e-07
1.63265e-07
-1.03067e-06
1.56768e-07
-1.0782e-06
1.481e-07
-1.12163e-06
1.37232e-07
-1.16033e-06
1.24177e-07
-1.19366e-06
1.0899e-07
-1.22106e-06
9.17722e-08
-1.24203e-06
7.26684e-08
-1.2561e-06
5.18685e-08
-1.26294e-06
2.9606e-08
-1.26226e-06
6.1554e-09
-1.25387e-06
-1.8186e-08
-1.23771e-06
-4.30633e-08
-1.21378e-06
-6.8107e-08
-1.18223e-06
-9.29251e-08
-1.14329e-06
-1.1711e-07
-1.09732e-06
-1.40246e-07
-1.04476e-06
-1.61918e-07
-9.86186e-07
-1.81722e-07
-9.22255e-07
-1.99273e-07
-8.53723e-07
-2.14217e-07
-7.81429e-07
-2.26242e-07
-7.06284e-07
-2.35088e-07
-6.29254e-07
-2.40554e-07
-5.5135e-07
-2.42512e-07
-4.73603e-07
-2.40913e-07
-3.97046e-07
-2.3579e-07
-3.22692e-07
-2.27259e-07
-2.51513e-07
-2.15526e-07
-1.84415e-07
-2.00874e-07
-1.22216e-07
-1.8366e-07
-6.56294e-08
-1.64303e-07
-1.52435e-08
-1.4327e-07
2.84905e-08
-1.21063e-07
6.52683e-08
-9.81949e-08
9.49377e-08
-7.51806e-08
1.175e-07
-5.25153e-08
1.33106e-07
-3.06642e-08
1.4205e-07
-1.00534e-08
1.44761e-07
8.9337e-09
1.41791e-07
2.59527e-08
1.3381e-07
4.06879e-08
1.21594e-07
5.28367e-08
1.06022e-07
6.20882e-08
8.80755e-08
6.81018e-08
6.88368e-08
7.04888e-08
4.9496e-08
6.88095e-08
3.13615e-08
6.25935e-08
1.58862e-08
5.13965e-08
4.73306e-09
3.49095e-08
1.31752e-08
4.51507e-10
-6.08739e-09
1.56436e-10
-9.58154e-09
-1.95203e-09
-7.05581e-09
-6.57015e-09
-3.9541e-10
-1.41495e-08
9.02793e-09
-2.49764e-08
2.01919e-08
-3.92249e-08
3.23675e-08
-5.69978e-08
4.50691e-08
-7.83544e-08
5.79957e-08
-1.03329e-07
7.09791e-08
-1.31942e-07
8.39398e-08
-1.64202e-07
9.68505e-08
-2.0011e-07
1.09707e-07
-2.39653e-07
1.22509e-07
-2.82797e-07
1.35239e-07
-3.29484e-07
1.47858e-07
-3.7962e-07
1.60297e-07
-4.33068e-07
1.7245e-07
-4.8964e-07
1.84181e-07
-5.49092e-07
1.9532e-07
-6.11118e-07
2.05667e-07
-6.75347e-07
2.15003e-07
-7.41341e-07
2.23088e-07
-8.08596e-07
2.29675e-07
-8.76547e-07
2.34514e-07
-9.44574e-07
2.3736e-07
-1.01201e-06
2.37984e-07
-1.07814e-06
2.36175e-07
-1.14224e-06
2.31755e-07
-1.20356e-06
2.24581e-07
-1.26134e-06
2.14551e-07
-1.31485e-06
2.01611e-07
-1.36338e-06
1.85757e-07
-1.40624e-06
1.6704e-07
-1.44281e-06
1.45564e-07
-1.47253e-06
1.21489e-07
-1.49489e-06
9.50294e-08
-1.50947e-06
6.64525e-08
-1.51594e-06
3.60768e-08
-1.51406e-06
4.27028e-09
-1.50366e-06
-2.8589e-08
-1.48469e-06
-6.20322e-08
-1.4572e-06
-9.55917e-08
-1.42136e-06
-1.28771e-07
-1.37741e-06
-1.61057e-07
-1.32573e-06
-1.91927e-07
-1.26679e-06
-2.20859e-07
-1.20116e-06
-2.47345e-07
-1.12954e-06
-2.70898e-07
-1.05269e-06
-2.91069e-07
-9.71474e-07
-3.07454e-07
-8.86846e-07
-3.19715e-07
-7.99816e-07
-3.27584e-07
-7.11446e-07
-3.30882e-07
-6.22836e-07
-3.29523e-07
-5.35101e-07
-3.23525e-07
-4.49346e-07
-3.13014e-07
-3.66647e-07
-2.98225e-07
-2.88024e-07
-2.79497e-07
-2.14417e-07
-2.57267e-07
-1.46664e-07
-2.32056e-07
-8.54782e-08
-2.04455e-07
-3.14343e-08
-1.75107e-07
1.50499e-08
-1.44679e-07
5.37202e-08
-1.13851e-07
8.44909e-08
-8.3286e-08
1.07446e-07
-5.36189e-08
1.22832e-07
-2.54402e-08
1.31058e-07
7.08183e-10
1.32675e-07
2.43353e-08
1.28378e-07
4.49857e-08
1.18985e-07
6.22291e-08
1.05439e-07
7.56341e-08
8.87968e-08
8.47444e-08
7.02288e-08
8.90567e-08
5.10287e-08
8.80097e-08
3.26306e-08
8.09916e-08
1.66527e-08
6.73744e-08
4.98338e-09
4.65788e-08
1.81586e-08
-3.03385e-10
-5.78401e-09
-2.53559e-09
-7.34932e-09
-7.54067e-09
-2.05072e-09
-1.58413e-08
7.90521e-09
-2.77608e-08
2.09474e-08
-4.34901e-08
3.59212e-08
-6.31406e-08
5.2018e-08
-8.67785e-08
6.8707e-08
-1.14446e-07
8.56636e-08
-1.46175e-07
1.02708e-07
-1.81986e-07
1.19751e-07
-2.21894e-07
1.36758e-07
-2.65897e-07
1.53711e-07
-3.13974e-07
1.70585e-07
-3.66073e-07
1.87338e-07
-4.22104e-07
2.03889e-07
-4.81928e-07
2.20121e-07
-5.45353e-07
2.35875e-07
-6.12122e-07
2.5095e-07
-6.8191e-07
2.65108e-07
-7.54321e-07
2.78079e-07
-8.28889e-07
2.8957e-07
-9.05073e-07
2.99273e-07
-9.8227e-07
3.06872e-07
-1.05981e-06
3.12059e-07
-1.13699e-06
3.14538e-07
-1.21305e-06
3.14039e-07
-1.2872e-06
3.10326e-07
-1.35865e-06
3.03205e-07
-1.4266e-06
2.92533e-07
-1.49027e-06
2.78223e-07
-1.54891e-06
2.60245e-07
-1.60178e-06
2.38635e-07
-1.64824e-06
2.13491e-07
-1.68765e-06
1.84978e-07
-1.71948e-06
1.5332e-07
-1.74326e-06
1.18806e-07
-1.75859e-06
8.1781e-08
-1.76516e-06
4.26465e-08
-1.76276e-06
1.87592e-09
-1.75123e-06
-4.01171e-08
-1.73055e-06
-8.27184e-08
-1.70076e-06
-1.25381e-07
-1.66202e-06
-1.67514e-07
-1.61457e-06
-2.08501e-07
-1.55878e-06
-2.4772e-07
-1.49509e-06
-2.84544e-07
-1.42408e-06
-3.1836e-07
-1.3464e-06
-3.4858e-07
-1.26282e-06
-3.74651e-07
-1.1742e-06
-3.96074e-07
-1.08149e-06
-4.12421e-07
-9.85731e-07
-4.23344e-07
-8.88018e-07
-4.28595e-07
-7.89501e-07
-4.2804e-07
-6.91361e-07
-4.21664e-07
-5.9479e-07
-4.09586e-07
-5.00961e-07
-3.92054e-07
-4.11006e-07
-3.69452e-07
-3.25988e-07
-3.42285e-07
-2.46875e-07
-3.11169e-07
-1.74512e-07
-2.76818e-07
-1.09606e-07
-2.40013e-07
-5.26997e-08
-2.01585e-07
-4.16386e-09
-1.62387e-07
3.58141e-08
-1.23264e-07
6.7232e-08
-8.50369e-08
9.0273e-08
-4.84811e-08
1.05298e-07
-1.4317e-08
1.12841e-07
1.67927e-08
1.13592e-07
4.42346e-08
1.08392e-07
6.74291e-08
9.82196e-08
8.58064e-08
8.41851e-08
9.87789e-08
6.7528e-08
1.05714e-07
4.96248e-08
1.05913e-07
3.20126e-08
9.86038e-08
1.64354e-08
8.29517e-08
4.92873e-09
5.80855e-08
2.30873e-08
-1.18522e-09
-4.5988e-09
-5.68558e-09
-2.84895e-09
-1.40507e-08
6.31444e-09
-2.65789e-08
2.04334e-08
-4.34201e-08
3.77886e-08
-6.46406e-08
5.71417e-08
-9.0267e-08
7.76444e-08
-1.20314e-07
9.87538e-08
-1.54796e-07
1.20146e-07
-1.93734e-07
1.41645e-07
-2.37145e-07
1.63162e-07
-2.85041e-07
1.84655e-07
-3.37416e-07
2.06085e-07
-3.94232e-07
2.27402e-07
-4.55413e-07
2.48519e-07
-5.20831e-07
2.69306e-07
-5.90296e-07
2.89587e-07
-6.63552e-07
3.09132e-07
-7.40269e-07
3.27667e-07
-8.20039e-07
3.44877e-07
-9.02376e-07
3.60416e-07
-9.86719e-07
3.73913e-07
-1.07244e-06
3.84991e-07
-1.15884e-06
3.93271e-07
-1.24517e-06
3.98391e-07
-1.33064e-06
4.00014e-07
-1.41445e-06
3.97845e-07
-1.49576e-06
3.91632e-07
-1.57374e-06
3.81184e-07
-1.64757e-06
3.66371e-07
-1.71648e-06
3.47132e-07
-1.77972e-06
3.23479e-07
-1.83658e-06
2.95495e-07
-1.88642e-06
2.63334e-07
-1.92866e-06
2.27222e-07
-1.9628e-06
1.87454e-07
-1.98838e-06
1.44386e-07
-2.00503e-06
9.84384e-08
-2.01246e-06
5.0077e-08
-2.01053e-06
-6.38115e-11
-1.99896e-06
-5.16804e-08
-1.97779e-06
-1.03886e-07
-1.94704e-06
-1.56131e-07
-1.90683e-06
-2.07725e-07
-1.85737e-06
-2.57961e-07
-1.79898e-06
-3.06117e-07
-1.73205e-06
-3.51467e-07
-1.65712e-06
-3.93295e-07
-1.57479e-06
-4.30903e-07
-1.48581e-06
-4.63633e-07
-1.39101e-06
-4.9088e-07
-1.29132e-06
-5.1211e-07
-1.18778e-06
-5.2688e-07
-1.08152e-06
-5.3486e-07
-9.73715e-07
-5.35841e-07
-8.65619e-07
-5.2976e-07
-7.58499e-07
-5.16705e-07
-6.5363e-07
-4.96923e-07
-5.5226e-07
-4.70822e-07
-4.55582e-07
-4.38963e-07
-3.64703e-07
-4.02049e-07
-2.80612e-07
-3.60908e-07
-2.0416e-07
-3.16465e-07
-1.36031e-07
-2.69715e-07
-7.67246e-08
-2.21693e-07
-2.65471e-08
-1.73442e-07
1.43998e-08
-1.25984e-07
4.62173e-08
-8.02986e-08
6.92068e-08
-3.73066e-08
8.38623e-08
2.13723e-09
9.08577e-08
3.72392e-08
9.10362e-08
6.72505e-08
8.53981e-08
9.14446e-08
7.50911e-08
1.09086e-07
6.1408e-08
1.19397e-07
4.57921e-08
1.21529e-07
2.98592e-08
1.14537e-07
1.54389e-08
9.7372e-08
4.6438e-09
6.88806e-08
2.77311e-08
-2.17512e-09
-2.42368e-09
-9.21731e-09
4.19323e-09
-2.13301e-08
1.84272e-08
-3.85377e-08
3.7641e-08
-6.07808e-08
6.00318e-08
-8.79739e-08
8.43347e-08
-1.2004e-07
1.09711e-07
-1.5693e-07
1.35643e-07
-1.98621e-07
1.61837e-07
-2.45114e-07
1.88138e-07
-2.96419e-07
2.14468e-07
-3.5254e-07
2.40775e-07
-4.13456e-07
2.67002e-07
-4.79112e-07
2.93057e-07
-5.49396e-07
3.18804e-07
-6.24138e-07
3.44048e-07
-7.03092e-07
3.68541e-07
-7.85934e-07
3.91973e-07
-8.72256e-07
4.13989e-07
-9.61569e-07
4.3419e-07
-1.0533e-06
4.52149e-07
-1.14681e-06
4.67422e-07
-1.24138e-06
4.79562e-07
-1.33625e-06
4.88139e-07
-1.43061e-06
4.92746e-07
-1.52361e-06
4.9302e-07
-1.61442e-06
4.88652e-07
-1.70218e-06
4.79392e-07
-1.78606e-06
4.65065e-07
-1.86526e-06
4.4557e-07
-1.93901e-06
4.20884e-07
-2.0066e-06
3.91065e-07
-2.06735e-06
3.5625e-07
-2.12067e-06
3.16654e-07
-2.16601e-06
2.72562e-07
-2.20289e-06
2.24332e-07
-2.23089e-06
1.72385e-07
-2.24966e-06
1.17204e-07
-2.25891e-06
5.93297e-08
-2.25838e-06
-5.95185e-10
-2.24799e-06
-6.20709e-08
-2.2276e-06
-1.2427e-07
-2.19722e-06
-1.86511e-07
-2.15692e-06
-2.48031e-07
-2.10684e-06
-3.08038e-07
-2.04724e-06
-3.65721e-07
-1.97845e-06
-4.20256e-07
-1.90092e-06
-4.70822e-07
-1.81521e-06
-5.16611e-07
-1.722e-06
-5.56849e-07
-1.62206e-06
-5.90813e-07
-1.51632e-06
-6.17853e-07
-1.40579e-06
-6.37411e-07
-1.2916e-06
-6.49051e-07
-1.17497e-06
-6.52471e-07
-1.0572e-06
-6.47531e-07
-9.39634e-07
-6.34268e-07
-8.23657e-07
-6.129e-07
-7.10637e-07
-5.83842e-07
-6.01907e-07
-5.47693e-07
-4.98725e-07
-5.05231e-07
-4.02244e-07
-4.57389e-07
-3.13474e-07
-4.05235e-07
-2.33256e-07
-3.49933e-07
-1.6224e-07
-2.92709e-07
-1.00866e-07
-2.34816e-07
-4.93517e-08
-1.77498e-07
-7.69273e-09
-1.21958e-07
2.43381e-08
-6.93374e-08
4.71824e-08
-2.0707e-08
6.14851e-08
2.29365e-08
6.80804e-08
6.06552e-08
6.79788e-08
9.15462e-08
6.23555e-08
1.14709e-07
5.25445e-08
1.29208e-07
4.00417e-08
1.34032e-07
2.65196e-08
1.28059e-07
1.38587e-08
1.10033e-07
4.19456e-09
7.85447e-08
3.19257e-08
-3.25726e-09
8.33585e-10
-1.30703e-08
1.40063e-08
-2.92486e-08
3.46055e-08
-5.15015e-08
5.98938e-08
-7.9529e-08
8.80593e-08
-1.13071e-07
1.17877e-07
-1.51932e-07
1.48572e-07
-1.95987e-07
1.79698e-07
-2.45169e-07
2.11019e-07
-2.99454e-07
2.42423e-07
-3.58837e-07
2.73851e-07
-4.23307e-07
3.05245e-07
-4.92826e-07
3.36521e-07
-5.6731e-07
3.67541e-07
-6.46611e-07
3.98105e-07
-7.30508e-07
4.27945e-07
-8.18694e-07
4.56727e-07
-9.10776e-07
4.84056e-07
-1.00627e-06
5.09487e-07
-1.10462e-06
5.32535e-07
-1.20516e-06
5.52694e-07
-1.30719e-06
5.6945e-07
-1.40993e-06
5.82299e-07
-1.51255e-06
5.90764e-07
-1.61422e-06
5.94413e-07
-1.71407e-06
5.92869e-07
-1.81124e-06
5.85824e-07
-1.90489e-06
5.73046e-07
-1.99422e-06
5.54388e-07
-2.07844e-06
5.29788e-07
-2.15682e-06
4.99269e-07
-2.2287e-06
4.6294e-07
-2.29344e-06
4.20994e-07
-2.35048e-06
3.73699e-07
-2.39932e-06
3.21397e-07
-2.43949e-06
2.64501e-07
-2.47059e-06
2.03485e-07
-2.49227e-06
1.38886e-07
-2.50424e-06
7.12975e-08
-2.50622e-06
1.39034e-09
-2.49808e-06
-7.02165e-08
-2.47965e-06
-1.42699e-07
-2.45087e-06
-2.15292e-07
-2.41174e-06
-2.87164e-07
-2.36233e-06
-3.57447e-07
-2.3028e-06
-4.25244e-07
-2.23342e-06
-4.89637e-07
-2.15454e-06
-5.49701e-07
-2.06664e-06
-6.04516e-07
-1.9703e-06
-6.53186e-07
-1.86626e-06
-6.94858e-07
-1.75536e-06
-7.2875e-07
-1.6386e-06
-7.54171e-07
-1.5171e-06
-7.70554e-07
-1.39209e-06
-7.7748e-07
-1.26492e-06
-7.74704e-07
-1.137e-06
-7.62179e-07
-1.00983e-06
-7.40072e-07
-8.84901e-07
-7.08774e-07
-7.63692e-07
-6.68902e-07
-6.47634e-07
-6.21288e-07
-5.38058e-07
-5.66966e-07
-4.36156e-07
-5.07137e-07
-3.42951e-07
-4.43138e-07
-2.59263e-07
-3.76397e-07
-1.85687e-07
-3.08392e-07
-1.2258e-07
-2.40605e-07
-7.00491e-08
-1.74488e-07
-2.79571e-08
-1.11429e-07
4.07322e-09
-5.27374e-08
2.66472e-08
3.62522e-10
4.05807e-08
4.67217e-08
4.68873e-08
8.52396e-08
4.67619e-08
1.14835e-07
4.15713e-08
1.34399e-07
3.2852e-08
1.42751e-07
2.23163e-08
1.38594e-07
1.18701e-08
1.20479e-07
3.63747e-09
8.67774e-08
3.55631e-08
-4.41765e-09
5.25124e-09
-1.71896e-08
2.67782e-08
-3.76863e-08
5.51022e-08
-6.52676e-08
8.74751e-08
-9.93667e-08
1.22158e-07
-1.39531e-07
1.58041e-07
-1.85433e-07
1.94474e-07
-2.36864e-07
2.31128e-07
-2.93707e-07
2.67862e-07
-3.55908e-07
3.04624e-07
-4.2344e-07
3.41383e-07
-4.96273e-07
3.78078e-07
-5.74344e-07
4.14592e-07
-6.57536e-07
4.50733e-07
-7.45657e-07
4.86226e-07
-8.38433e-07
5.2072e-07
-9.35495e-07
5.53789e-07
-1.03638e-06
5.84944e-07
-1.14055e-06
6.13649e-07
-1.24735e-06
6.39335e-07
-1.35607e-06
6.61419e-07
-1.46595e-06
6.79328e-07
-1.57616e-06
6.9251e-07
-1.68586e-06
7.0046e-07
-1.79417e-06
7.02729e-07
-1.90025e-06
6.98944e-07
-2.00324e-06
6.88814e-07
-2.10233e-06
6.72136e-07
-2.19674e-06
6.488e-07
-2.28574e-06
6.18789e-07
-2.36865e-06
5.82178e-07
-2.44483e-06
5.39125e-07
-2.51371e-06
4.89875e-07
-2.57476e-06
4.34745e-07
-2.62749e-06
3.74126e-07
-2.67146e-06
3.08473e-07
-2.70628e-06
2.38306e-07
-2.7316e-06
1.642e-07
-2.74709e-06
8.67902e-08
-2.75247e-06
6.76864e-09
-2.74753e-06
-7.51514e-08
-2.73208e-06
-1.58151e-07
-2.70598e-06
-2.41396e-07
-2.66915e-06
-3.23996e-07
-2.62157e-06
-4.05017e-07
-2.56333e-06
-4.83486e-07
-2.49457e-06
-5.58397e-07
-2.41555e-06
-6.28722e-07
-2.32664e-06
-6.93428e-07
-2.22833e-06
-7.51493e-07
-2.12126e-06
-8.01927e-07
-2.00621e-06
-8.43801e-07
-1.88411e-06
-8.76272e-07
-1.75605e-06
-8.98619e-07
-1.62325e-06
-9.10276e-07
-1.48709e-06
-9.10862e-07
-1.34906e-06
-9.00213e-07
-1.21072e-06
-8.78407e-07
-1.07372e-06
-8.45781e-07
-9.39681e-07
-8.02938e-07
-8.10226e-07
-7.50744e-07
-6.86881e-07
-6.90311e-07
-5.71049e-07
-6.22969e-07
-4.6396e-07
-5.50227e-07
-3.66634e-07
-4.73723e-07
-2.79851e-07
-3.95175e-07
-2.04128e-07
-3.16328e-07
-1.3971e-07
-2.38906e-07
-8.65684e-08
-1.64571e-07
-4.44034e-08
-9.49023e-08
-1.26627e-08
-3.13781e-08
9.44529e-09
2.46136e-08
2.29294e-08
7.17555e-08
2.89989e-08
1.08765e-07
2.90476e-08
1.3435e-07
2.46444e-08
1.47154e-07
1.7531e-08
1.45708e-07
9.62371e-09
1.28386e-07
3.01956e-09
9.33815e-08
3.85827e-08
-5.64342e-09
1.08947e-08
-2.15203e-08
4.26551e-08
-4.65245e-08
8.01065e-08
-7.96362e-08
1.20587e-07
-1.2e-07
1.62523e-07
-1.66958e-07
2.04998e-07
-2.20041e-07
2.47557e-07
-2.7895e-07
2.90038e-07
-3.43513e-07
3.32425e-07
-4.13641e-07
3.74752e-07
-4.89282e-07
4.17023e-07
-5.70379e-07
4.59176e-07
-6.56842e-07
5.01055e-07
-7.48512e-07
5.42403e-07
-8.45152e-07
5.82867e-07
-9.46432e-07
6.22e-07
-1.05192e-06
6.59279e-07
-1.1611e-06
6.9412e-07
-1.27334e-06
7.25895e-07
-1.38797e-06
7.53957e-07
-1.5042e-06
7.77657e-07
-1.62124e-06
7.96368e-07
-1.73824e-06
8.09509e-07
-1.85434e-06
8.16556e-07
-1.96867e-06
8.17064e-07
-2.0804e-06
8.10675e-07
-2.18872e-06
7.97125e-07
-2.29283e-06
7.7625e-07
-2.39201e-06
7.47985e-07
-2.48559e-06
7.12361e-07
-2.57291e-06
6.695e-07
-2.6534e-06
6.19612e-07
-2.7265e-06
5.62984e-07
-2.79174e-06
4.99977e-07
-2.84863e-06
4.31021e-07
-2.89676e-06
3.56607e-07
-2.93574e-06
2.77284e-07
-2.9652e-06
1.9366e-07
-2.98481e-06
1.06398e-07
-2.99425e-06
1.62132e-08
-2.99327e-06
-7.61313e-08
-2.98162e-06
-1.69801e-07
-2.9591e-06
-2.63917e-07
-2.92556e-06
-3.57544e-07
-2.88088e-06
-4.49691e-07
-2.82505e-06
-5.3932e-07
-2.7581e-06
-6.25345e-07
-2.68018e-06
-7.06647e-07
-2.59152e-06
-7.82081e-07
-2.49252e-06
-8.50499e-07
-2.38367e-06
-9.1077e-07
-2.26567e-06
-9.61805e-07
-2.13935e-06
-1.0026e-06
-2.00572e-06
-1.03224e-06
-1.866e-06
-1.05e-06
-1.72154e-06
-1.05532e-06
-1.57388e-06
-1.04788e-06
-1.42465e-06
-1.02763e-06
-1.27563e-06
-9.94806e-07
-1.1286e-06
-9.49964e-07
-9.85377e-07
-8.93968e-07
-8.47705e-07
-8.27983e-07
-7.17222e-07
-7.53452e-07
-5.95401e-07
-6.72048e-07
-4.83496e-07
-5.85628e-07
-3.82507e-07
-4.96164e-07
-2.93148e-07
-4.05687e-07
-2.15831e-07
-3.16223e-07
-1.50659e-07
-2.29744e-07
-9.74325e-08
-1.48129e-07
-5.56649e-08
-7.31457e-08
-2.46011e-08
-6.45024e-09
-3.24223e-09
5.03966e-08
9.63035e-09
9.58926e-08
1.54339e-08
1.28546e-07
1.57666e-08
1.46821e-07
1.23944e-08
1.4908e-07
7.24151e-09
1.33539e-07
2.37831e-09
9.82447e-08
4.0961e-08
-6.91871e-09
1.78134e-08
-2.60045e-08
6.17409e-08
-5.56406e-08
1.09743e-07
-9.44032e-08
1.59349e-07
-1.41133e-07
2.09253e-07
-1.94955e-07
2.58819e-07
-2.55253e-07
3.07856e-07
-3.21635e-07
3.56419e-07
-3.93869e-07
4.04659e-07
-4.71828e-07
4.5271e-07
-5.55428e-07
5.00623e-07
-6.44585e-07
5.48333e-07
-7.3917e-07
5.9564e-07
-8.38985e-07
6.42219e-07
-9.43743e-07
6.87624e-07
-1.05306e-06
7.31314e-07
-1.16644e-06
7.72662e-07
-1.28331e-06
8.1099e-07
-1.403e-06
8.45584e-07
-1.52476e-06
8.75723e-07
-1.64781e-06
9.00704e-07
-1.77131e-06
9.19863e-07
-1.8944e-06
9.32598e-07
-2.01623e-06
9.38386e-07
-2.13596e-06
9.36795e-07
-2.25278e-06
9.27493e-07
-2.36591e-06
9.10256e-07
-2.47462e-06
8.84961e-07
-2.57822e-06
8.51591e-07
-2.67609e-06
8.10224e-07
-2.76762e-06
7.61031e-07
-2.85227e-06
7.04264e-07
-2.92954e-06
6.40251e-07
-2.99895e-06
5.69388e-07
-3.06006e-06
4.92136e-07
-3.11247e-06
4.09015e-07
-3.15579e-06
3.20598e-07
-3.18964e-06
2.27515e-07
-3.21369e-06
1.30447e-07
-3.2276e-06
3.01288e-08
-3.23108e-06
-7.26509e-08
-3.22384e-06
-1.77042e-07
-3.20562e-06
-2.82138e-07
-3.1762e-06
-3.86971e-07
-3.13537e-06
-4.90512e-07
-3.08302e-06
-5.9167e-07
-3.01908e-06
-6.89295e-07
-2.94354e-06
-7.82185e-07
-2.85652e-06
-8.69099e-07
-2.75825e-06
-9.48766e-07
-2.64911e-06
-1.01991e-06
-2.52962e-06
-1.08129e-06
-2.4005e-06
-1.13171e-06
-2.26267e-06
-1.17007e-06
-2.11725e-06
-1.19543e-06
-1.96555e-06
-1.20701e-06
-1.80912e-06
-1.20432e-06
-1.64964e-06
-1.1871e-06
-1.48899e-06
-1.15546e-06
-1.3291e-06
-1.10985e-06
-1.17199e-06
-1.05108e-06
-1.01963e-06
-9.8034e-07
-8.73933e-07
-8.99153e-07
-7.36636e-07
-8.09345e-07
-6.09275e-07
-7.12988e-07
-4.93114e-07
-6.12324e-07
-3.89108e-07
-5.09693e-07
-2.97875e-07
-4.07456e-07
-2.19685e-07
-3.07933e-07
-1.54468e-07
-2.13346e-07
-1.01822e-07
-1.25791e-07
-6.10439e-08
-4.72287e-08
-3.11531e-08
2.05058e-08
-1.09261e-08
7.56656e-08
1.07592e-09
1.16544e-07
6.48042e-09
1.41417e-07
7.08081e-09
1.4848e-07
4.81506e-09
1.35805e-07
1.74143e-09
1.01318e-07
4.27024e-08
-8.22629e-09
2.60397e-08
-3.05798e-08
8.40943e-08
-6.49055e-08
1.44068e-07
-1.09358e-07
2.03802e-07
-1.62463e-07
2.62358e-07
-2.23121e-07
3.19478e-07
-2.90568e-07
3.75303e-07
-3.64314e-07
4.30165e-07
-4.44065e-07
4.84411e-07
-5.29652e-07
5.38297e-07
-6.20959e-07
5.9193e-07
-7.17865e-07
6.45239e-07
-8.20205e-07
6.9798e-07
-9.27734e-07
7.49748e-07
-1.04012e-06
8.00006e-07
-1.15691e-06
8.48107e-07
-1.27757e-06
8.93327e-07
-1.40148e-06
9.34893e-07
-1.52791e-06
9.72014e-07
-1.65609e-06
1.00391e-06
-1.78521e-06
1.02982e-06
-1.91443e-06
1.04908e-06
-2.04289e-06
1.06106e-06
-2.16977e-06
1.06526e-06
-2.29424e-06
1.06127e-06
-2.41554e-06
1.0488e-06
-2.53294e-06
1.02765e-06
-2.64574e-06
9.97761e-07
-2.7533e-06
9.59157e-07
-2.85504e-06
9.11964e-07
-2.95041e-06
8.56396e-07
-3.03889e-06
7.92744e-07
-3.12001e-06
7.21373e-07
-3.19334e-06
6.42712e-07
-3.25845e-06
5.57247e-07
-3.31495e-06
4.65522e-07
-3.36249e-06
3.68129e-07
-3.40069e-06
2.65715e-07
-3.42921e-06
1.58973e-07
-3.44773e-06
4.86484e-08
-3.45592e-06
-6.44591e-08
-3.45347e-06
-1.79492e-07
-3.44008e-06
-2.95532e-07
-3.41545e-06
-4.11596e-07
-3.37933e-06
-5.26633e-07
-3.33148e-06
-6.3952e-07
-3.27171e-06
-7.49063e-07
-3.1999e-06
-8.53996e-07
-3.11601e-06
-9.52996e-07
-3.02009e-06
-1.04468e-06
-2.91235e-06
-1.12766e-06
-2.79313e-06
-1.2005e-06
-2.663e-06
-1.26184e-06
-2.5227e-06
-1.31037e-06
-2.37323e-06
-1.3449e-06
-2.21582e-06
-1.36443e-06
-2.05194e-06
-1.36819e-06
-1.88332e-06
-1.35573e-06
-1.71186e-06
-1.32692e-06
-1.53965e-06
-1.28206e-06
-1.36889e-06
-1.22185e-06
-1.20179e-06
-1.14744e-06
-1.04054e-06
-1.0604e-06
-8.87206e-07
-9.62683e-07
-7.43634e-07
-8.56561e-07
-6.11406e-07
-7.44551e-07
-4.91772e-07
-6.29327e-07
-3.85608e-07
-5.1362e-07
-2.934e-07
-4.00141e-07
-2.15242e-07
-2.91504e-07
-1.50851e-07
-1.90183e-07
-9.95923e-08
-9.84869e-08
-6.05201e-08
-1.85664e-08
-3.2411e-08
4.75565e-08
-1.38055e-08
9.79389e-08
-3.04338e-09
1.30655e-07
1.70428e-09
1.43732e-07
2.40449e-09
1.35105e-07
1.12681e-09
1.02596e-07
4.38293e-08
-9.54699e-09
3.55867e-08
-3.51787e-08
1.09726e-07
-7.41833e-08
1.83073e-07
-1.24282e-07
2.53901e-07
-1.83681e-07
3.21757e-07
-2.51053e-07
3.8685e-07
-3.25483e-07
4.49734e-07
-4.06384e-07
5.11066e-07
-4.934e-07
5.71426e-07
-5.86315e-07
6.31212e-07
-6.84976e-07
6.90591e-07
-7.89226e-07
7.49489e-07
-8.98857e-07
8.07611e-07
-1.01358e-06
8.64471e-07
-1.13301e-06
9.19432e-07
-1.25664e-06
9.71746e-07
-1.38391e-06
1.02059e-06
-1.51412e-06
1.06511e-06
-1.64654e-06
1.10444e-06
-1.78038e-06
1.13774e-06
-1.91479e-06
1.16424e-06
-2.04896e-06
1.18324e-06
-2.18203e-06
1.19414e-06
-2.31322e-06
1.19644e-06
-2.44173e-06
1.18978e-06
-2.56683e-06
1.17389e-06
-2.68782e-06
1.14865e-06
-2.80407e-06
1.11401e-06
-2.91498e-06
1.07006e-06
-3.01999e-06
1.01697e-06
-3.11859e-06
9.54999e-07
-3.21032e-06
8.84469e-07
-3.29473e-06
8.05783e-07
-3.37142e-06
7.194e-07
-3.44e-06
6.25835e-07
-3.50013e-06
5.25651e-07
-3.55146e-06
4.19459e-07
-3.59367e-06
3.07917e-07
-3.62642e-06
1.91727e-07
-3.64941e-06
7.16365e-08
-3.66231e-06
-5.15555e-08
-3.66481e-06
-1.76995e-07
-3.65657e-06
-3.0377e-07
-3.63727e-06
-4.30901e-07
-3.60656e-06
-5.57335e-07
-3.56414e-06
-6.81941e-07
-3.5097e-06
-8.03504e-07
-3.44298e-06
-9.20722e-07
-3.36376e-06
-1.03221e-06
-3.27194e-06
-1.13651e-06
-3.1675e-06
-1.2321e-06
-3.05059e-06
-1.31741e-06
-2.92155e-06
-1.39089e-06
-2.78092e-06
-1.451e-06
-2.62951e-06
-1.49631e-06
-2.46838e-06
-1.52555e-06
-2.29891e-06
-1.53766e-06
-2.12276e-06
-1.53188e-06
-1.94186e-06
-1.50782e-06
-1.75837e-06
-1.46554e-06