/*--------------------------------*- C++ -*----------------------------------*\
  =========                 |
  \\      /  F ield         | OpenFOAM: The Open Source CFD Toolbox
   \\    /   O peration     | Website:  https://openfoam.org
    \\  /    A nd           | Version:  7
     \\/     M anipulation  |
\*---------------------------------------------------------------------------*/
FoamFile
{
    version     2.0;
    format      ascii;
    class       volVectorField;
    location    "1.5";
    object      U;
}
// * * * * * * * * * * * * * * * * * * * * * * * * * * * * * * * * * * * * * //

dimensions      [0 1 -1 0 0 0 0];

internalField   nonuniform List<vector> 
6400
(
(1.11795e-05 -1.10727e-05 0)
(4.71601e-05 -2.24583e-05 0)
(9.48478e-05 -2.22168e-05 0)
(0.000129984 -1.56074e-05 0)
(0.000140607 -6.4195e-06 0)
(0.000122816 3.35367e-06 0)
(7.61345e-05 1.27312e-05 0)
(1.85461e-06 2.12687e-05 0)
(-9.78181e-05 2.88224e-05 0)
(-0.000220332 3.54013e-05 0)
(-0.000363137 4.10926e-05 0)
(-0.00052387 4.60191e-05 0)
(-0.000700446 5.03132e-05 0)
(-0.000891085 5.4103e-05 0)
(-0.0010943 5.75007e-05 0)
(-0.00130888 6.05969e-05 0)
(-0.00153379 6.34598e-05 0)
(-0.00176816 6.61346e-05 0)
(-0.00201119 6.86424e-05 0)
(-0.00226212 7.09832e-05 0)
(-0.00252012 7.31388e-05 0)
(-0.00278428 7.50745e-05 0)
(-0.00305358 7.67419e-05 0)
(-0.0033268 7.80827e-05 0)
(-0.00360255 7.90311e-05 0)
(-0.00387923 7.95156e-05 0)
(-0.004155 7.94621e-05 0)
(-0.00442784 7.87966e-05 0)
(-0.00469546 7.7448e-05 0)
(-0.00495543 7.53493e-05 0)
(-0.00520511 7.24395e-05 0)
(-0.00544171 6.86668e-05 0)
(-0.00566234 6.39905e-05 0)
(-0.00586403 5.83836e-05 0)
(-0.00604377 5.18343e-05 0)
(-0.00619861 4.43482e-05 0)
(-0.00632565 3.595e-05 0)
(-0.00642215 2.66855e-05 0)
(-0.00648562 1.66238e-05 0)
(-0.00651379 5.85651e-06 0)
(-0.00650479 -5.51325e-06 0)
(-0.00645714 -1.73403e-05 0)
(-0.00636983 -2.94685e-05 0)
(-0.0062424 -4.17233e-05 0)
(-0.00607497 -5.39126e-05 0)
(-0.00586826 -6.58317e-05 0)
(-0.00562367 -7.72679e-05 0)
(-0.00534323 -8.80052e-05 0)
(-0.00502962 -9.78304e-05 0)
(-0.00468616 -0.000106539 0)
(-0.00431677 -0.00011394 0)
(-0.00392589 -0.000119865 0)
(-0.00351845 -0.000124171 0)
(-0.00309975 -0.000126748 0)
(-0.00267534 -0.000127521 0)
(-0.00225097 -0.000126455 0)
(-0.00183243 -0.000123554 0)
(-0.00142542 -0.000118865 0)
(-0.00103545 -0.000112477 0)
(-0.000667723 -0.000104513 0)
(-0.000327006 -9.51339e-05 0)
(-1.75499e-05 -8.45266e-05 0)
(0.000257003 -7.29024e-05 0)
(0.000493684 -6.04879e-05 0)
(0.00069025 -4.75229e-05 0)
(0.00084522 -3.42513e-05 0)
(0.000957896 -2.09183e-05 0)
(0.00102838 -7.76882e-06 0)
(0.00105758 4.95131e-06 0)
(0.00104725 1.69905e-05 0)
(0.000999991 2.80814e-05 0)
(0.000919356 3.79167e-05 0)
(0.000809963 4.61199e-05 0)
(0.000677701 5.21929e-05 0)
(0.00053006 5.54394e-05 0)
(0.000376611 5.48754e-05 0)
(0.000229512 4.91627e-05 0)
(0.000103875 3.6571e-05 0)
(1.83493e-05 1.58939e-05 0)
(-5.90332e-06 -5.87028e-06 0)
(2.28462e-05 -4.72301e-05 0)
(8.2937e-05 -8.22616e-05 0)
(0.000146648 -7.1726e-05 0)
(0.000173348 -3.46621e-05 0)
(0.000140726 1.53655e-05 0)
(3.93141e-05 6.99496e-05 0)
(-0.000133663 0.000124191 0)
(-0.000376785 0.000175406 0)
(-0.000686087 0.000222318 0)
(-0.00105633 0.00026451 0)
(-0.00148184 0.000302079 0)
(-0.00195706 0.000335405 0)
(-0.00247683 0.000365004 0)
(-0.00303653 0.000391421 0)
(-0.00363212 0.000415167 0)
(-0.00426006 0.00043667 0)
(-0.00491726 0.000456255 0)
(-0.00560091 0.000474131 0)
(-0.00630835 0.000490387 0)
(-0.00703694 0.000505 0)
(-0.0077839 0.000517844 0)
(-0.00854623 0.000528704 0)
(-0.00932056 0.000537291 0)
(-0.0101031 0.000543259 0)
(-0.0108896 0.00054622 0)
(-0.0116752 0.000545763 0)
(-0.0124547 0.000541465 0)
(-0.013222 0.000532912 0)
(-0.0139709 0.00051971 0)
(-0.0146944 0.000501503 0)
(-0.0153852 0.00047798 0)
(-0.0160359 0.000448893 0)
(-0.0166386 0.000414072 0)
(-0.0171854 0.000373433 0)
(-0.0176683 0.000326991 0)
(-0.0180796 0.000274868 0)
(-0.018412 0.000217306 0)
(-0.0186585 0.00015467 0)
(-0.0188128 8.74574e-05 0)
(-0.0188694 1.62939e-05 0)
(-0.0188238 -5.8098e-05 0)
(-0.0186727 -0.000134817 0)
(-0.0184138 -0.000212883 0)
(-0.0180466 -0.000291216 0)
(-0.0175719 -0.000368651 0)
(-0.016992 -0.000443964 0)
(-0.016311 -0.000515897 0)
(-0.0155346 -0.000583187 0)
(-0.0146702 -0.000644597 0)
(-0.0137266 -0.000698948 0)
(-0.0127143 -0.00074515 0)
(-0.011645 -0.000782241 0)
(-0.0105314 -0.000809409 0)
(-0.00938751 -0.000826025 0)
(-0.00822768 -0.000831665 0)
(-0.00706682 -0.000826123 0)
(-0.00591993 -0.000809426 0)
(-0.00480186 -0.000781836 0)
(-0.00372695 -0.000743843 0)
(-0.00270879 -0.000696158 0)
(-0.00175992 -0.000639693 0)
(-0.000891587 -0.000575534 0)
(-0.000113521 -0.000504917 0)
(0.00056625 -0.000429195 0)
(0.00114156 -0.000349812 0)
(0.00160822 -0.000268272 0)
(0.00196412 -0.000186123 0)
(0.00220927 -0.000104944 0)
(0.00234591 -2.63515e-05 0)
(0.00237856 4.79788e-05 0)
(0.00231411 0.000116267 0)
(0.00216205 0.000176546 0)
(0.00193463 0.000226553 0)
(0.00164725 0.000263576 0)
(0.00131893 0.00028427 0)
(0.000972739 0.000284529 0)
(0.000635838 0.000259604 0)
(0.000338719 0.000204664 0)
(0.000117744 0.000117986 0)
(1.56968e-05 1.82342e-05 0)
(2.30667e-05 -9.59798e-05 0)
(7.3091e-05 -0.000146428 0)
(0.000103319 -0.000103023 0)
(6.91255e-05 -3.25329e-06 0)
(-5.48532e-05 0.000126722 0)
(-0.000280451 0.000269085 0)
(-0.00061163 0.00041238 0)
(-0.00104703 0.000549753 0)
(-0.00158178 0.000677515 0)
(-0.00220908 0.000794082 0)
(-0.00292128 0.000899218 0)
(-0.00371063 0.000993498 0)
(-0.0045697 0.00107793 0)
(-0.00549167 0.00115368 0)
(-0.00647034 0.00122186 0)
(-0.00750013 0.00128344 0)
(-0.00857596 0.00133917 0)
(-0.00969309 0.0013895 0)
(-0.0108469 0.00143459 0)
(-0.0120327 0.00147434 0)
(-0.0132458 0.00150838 0)
(-0.0144807 0.00153611 0)
(-0.0157316 0.00155675 0)
(-0.0169923 0.00156937 0)
(-0.0182553 0.00157295 0)
(-0.0195129 0.00156641 0)
(-0.0207563 0.00154866 0)
(-0.0219761 0.00151863 0)
(-0.0231619 0.00147533 0)
(-0.0243031 0.00141788 0)
(-0.0253882 0.00134552 0)
(-0.0264055 0.00125771 0)
(-0.027343 0.00115411 0)
(-0.0281887 0.0010346 0)
(-0.0289307 0.000899373 0)
(-0.0295574 0.000748888 0)
(-0.0300579 0.000583933 0)
(-0.0304221 0.00040562 0)
(-0.0306409 0.000215394 0)
(-0.0307066 1.50361e-05 0)
(-0.0306128 -0.000193294 0)
(-0.0303552 -0.000407228 0)
(-0.029931 -0.000624073 0)
(-0.0293399 -0.000840889 0)
(-0.0285838 -0.00105455 0)
(-0.0276667 -0.00126179 0)
(-0.0265951 -0.0014593 0)
(-0.0253781 -0.00164373 0)
(-0.024027 -0.00181186 0)
(-0.0225554 -0.0019606 0)
(-0.0209789 -0.00208713 0)
(-0.0193152 -0.00218894 0)
(-0.0175837 -0.00226392 0)
(-0.0158047 -0.00231046 0)
(-0.0140001 -0.00232743 0)
(-0.0121919 -0.0023143 0)
(-0.0104025 -0.00227112 0)
(-0.00865408 -0.00219855 0)
(-0.00696817 -0.00209786 0)
(-0.00536518 -0.00197087 0)
(-0.00386406 -0.00181995 0)
(-0.00248189 -0.00164793 0)
(-0.00123359 -0.00145808 0)
(-0.000131568 -0.00125398 0)
(0.000814477 -0.0010395 0)
(0.0015978 -0.000818714 0)
(0.00221475 -0.00059585 0)
(0.00266494 -0.000375271 0)
(0.00295133 -0.000161476 0)
(0.0030804 4.08562e-05 0)
(0.00306224 0.000226776 0)
(0.00291078 0.000390934 0)
(0.00264406 0.000527378 0)
(0.00228444 0.000629344 0)
(0.00185902 0.000689064 0)
(0.00139983 0.000697809 0)
(0.000943256 0.000646502 0)
(0.000528665 0.000527379 0)
(0.000204742 0.000338905 0)
(3.62724e-05 0.000103368 0)
(1.65695e-05 -0.000132346 0)
(3.4286e-05 -0.000172226 0)
(-3.44996e-06 -6.77603e-05 0)
(-0.000136747 0.000124539 0)
(-0.000389348 0.00036543 0)
(-0.000772971 0.000627271 0)
(-0.00129126 0.000891441 0)
(-0.00194222 0.00114627 0)
(-0.00272008 0.00138509 0)
(-0.00361683 0.00160473 0)
(-0.00462339 0.00180433 0)
(-0.0057304 0.00198451 0)
(-0.00692875 0.00214672 0)
(-0.00820985 0.00229273 0)
(-0.00956574 0.0024243 0)
(-0.0109891 0.00254297 0)
(-0.0124729 0.0026499 0)
(-0.0140107 0.00274577 0)
(-0.0155958 0.00283078 0)
(-0.0172217 0.00290461 0)
(-0.0188813 0.00296653 0)
(-0.020567 0.00301538 0)
(-0.0222705 0.00304971 0)
(-0.0239827 0.0030678 0)
(-0.0256936 0.00306777 0)
(-0.0273923 0.00304766 0)
(-0.0290667 0.0030055 0)
(-0.0307041 0.00293941 0)
(-0.0322908 0.00284764 0)
(-0.0338124 0.00272868 0)
(-0.0352539 0.00258129 0)
(-0.0366001 0.00240461 0)
(-0.0378353 0.00219817 0)
(-0.0389442 0.00196197 0)
(-0.0399115 0.00169653 0)
(-0.0407228 0.00140293 0)
(-0.0413643 0.0010828 0)
(-0.0418236 0.000738388 0)
(-0.0420895 0.000372545 0)
(-0.0421527 -1.12852e-05 0)
(-0.0420058 -0.000409029 0)
(-0.0416439 -0.000816183 0)
(-0.0410644 -0.00122771 0)
(-0.0402672 -0.00163815 0)
(-0.0392553 -0.00204176 0)
(-0.0380345 -0.00243254 0)
(-0.0366136 -0.00280444 0)
(-0.0350045 -0.0031514 0)
(-0.0332217 -0.00346756 0)
(-0.0312828 -0.00374734 0)
(-0.0292077 -0.00398564 0)
(-0.027019 -0.00417795 0)
(-0.0247409 -0.00432045 0)
(-0.0223996 -0.00441021 0)
(-0.0200223 -0.0044452 0)
(-0.0176371 -0.00442442 0)
(-0.0152723 -0.00434792 0)
(-0.012956 -0.00421685 0)
(-0.0107156 -0.00403344 0)
(-0.00857723 -0.00380095 0)
(-0.00656516 -0.00352363 0)
(-0.00470148 -0.00320661 0)
(-0.00300562 -0.00285579 0)
(-0.00149394 -0.00247775 0)
(-0.000179391 -0.0020796 0)
(0.00092876 -0.0016689 0)
(0.00182518 -0.00125355 0)
(0.00250865 -0.000841738 0)
(0.00298229 -0.000441938 0)
(0.00325366 -6.29609e-05 0)
(0.00333497 0.000285937 0)
(0.00324322 0.000594891 0)
(0.0030004 0.000853199 0)
(0.00263368 0.00104911 0)
(0.0021756 0.00116969 0)
(0.00166414 0.00120109 0)
(0.00114184 0.00112948 0)
(0.000654644 0.000943243 0)
(0.000261949 0.000637844 0)
(4.90745e-05 0.000229061 0)
(6.72264e-06 -0.000142595 0)
(-2.19949e-05 -0.0001325 0)
(-0.000152345 6.71007e-05 0)
(-0.000413505 0.000382764 0)
(-0.000824227 0.000763313 0)
(-0.00139393 0.00117192 0)
(-0.00212451 0.00158317 0)
(-0.00301247 0.00198066 0)
(-0.00405075 0.00235469 0)
(-0.0052301 0.00270038 0)
(-0.00654019 0.00301613 0)
(-0.00797036 0.00330252 0)
(-0.00951015 0.00356133 0)
(-0.0111496 0.00379487 0)
(-0.0128791 0.00400549 0)
(-0.01469 0.00419525 0)
(-0.0165736 0.00436563 0)
(-0.0185215 0.00451747 0)
(-0.0205255 0.00465085 0)
(-0.0225769 0.00476517 0)
(-0.0246665 0.00485915 0)
(-0.0267844 0.00493095 0)
(-0.02892 0.00497824 0)
(-0.0310614 0.00499837 0)
(-0.0331961 0.00498843 0)
(-0.03531 0.00494544 0)
(-0.0373882 0.00486643 0)
(-0.0394149 0.00474859 0)
(-0.0413731 0.00458938 0)
(-0.0432454 0.00438662 0)
(-0.0450136 0.0041386 0)
(-0.0466592 0.00384422 0)
(-0.0481639 0.003503 0)
(-0.0495092 0.00311522 0)
(-0.0506775 0.00268195 0)
(-0.0516518 0.00220512 0)
(-0.0524163 0.00168755 0)
(-0.0529567 0.00113298 0)
(-0.0532604 0.00054603 0)
(-0.0533172 -6.77491e-05 0)
(-0.053119 -0.00070201 0)
(-0.0526605 -0.00134956 0)
(-0.0519392 -0.00200255 0)
(-0.050956 -0.00265254 0)
(-0.0497147 -0.00329064 0)
(-0.0482227 -0.00390768 0)
(-0.0464908 -0.00449437 0)
(-0.0445329 -0.00504148 0)
(-0.0423666 -0.00554008 0)
(-0.0400124 -0.00598172 0)
(-0.0374939 -0.00635861 0)
(-0.0348372 -0.0066639 0)
(-0.0320709 -0.0068918 0)
(-0.0292253 -0.00703778 0)
(-0.0263325 -0.00709874 0)
(-0.023425 -0.00707306 0)
(-0.0205363 -0.00696077 0)
(-0.0176992 -0.00676349 0)
(-0.0149462 -0.00648451 0)
(-0.012308 -0.00612871 0)
(-0.00981368 -0.00570246 0)
(-0.00748972 -0.00521352 0)
(-0.0053596 -0.0046709 0)
(-0.00344332 -0.00408467 0)
(-0.00175701 -0.00346579 0)
(-0.000312481 -0.00282598 0)
(0.000882995 -0.00217755 0)
(0.001827 -0.00153331 0)
(0.0025222 -0.000906554 0)
(0.00297647 -0.000311081 0)
(0.00320312 0.000238721 0)
(0.003221 0.000727681 0)
(0.00305465 0.00113965 0)
(0.00273435 0.00145732 0)
(0.00229627 0.00166217 0)
(0.00178248 0.00173482 0)
(0.0012401 0.00165602 0)
(0.000720491 0.00140869 0)
(0.000292035 0.000981757 0)
(5.54978e-05 0.000377943 0)
(-4.77076e-06 -0.000120032 0)
(-8.87285e-05 -1.08504e-05 0)
(-0.000329123 0.000323717 0)
(-0.000739752 0.000796437 0)
(-0.00133154 0.00134607 0)
(-0.00211008 0.0019278 0)
(-0.0030742 0.00251025 0)
(-0.00421799 0.00307278 0)
(-0.00553256 0.00360299 0)
(-0.00700717 0.00409441 0)
(-0.0086302 0.00454481 0)
(-0.0103898 0.00495467 0)
(-0.0122743 0.00532608 0)
(-0.0142725 0.00566186 0)
(-0.0163738 0.00596485 0)
(-0.0185678 0.00623752 0)
(-0.0208446 0.00648157 0)
(-0.0231943 0.00669786 0)
(-0.0256066 0.00688626 0)
(-0.0280712 0.00704567 0)
(-0.0305768 0.00717417 0)
(-0.0331113 0.00726902 0)
(-0.0356617 0.00732692 0)
(-0.0382137 0.00734409 0)
(-0.0407521 0.00731651 0)
(-0.0432601 0.00724005 0)
(-0.0457201 0.00711068 0)
(-0.0481134 0.00692462 0)
(-0.0504202 0.00667849 0)
(-0.0526203 0.0063695 0)
(-0.0546926 0.00599555 0)
(-0.0566163 0.00555536 0)
(-0.0583702 0.00504864 0)
(-0.0599339 0.00447611 0)
(-0.0612873 0.00383962 0)
(-0.0624116 0.00314224 0)
(-0.0632895 0.00238823 0)
(-0.0639054 0.00158313 0)
(-0.0642456 0.000733692 0)
(-0.064299 -0.000152106 0)
(-0.0640573 -0.00106518 0)
(-0.063515 -0.00199537 0)
(-0.06267 -0.00293164 0)
(-0.0615235 -0.00386217 0)
(-0.0600804 -0.00477458 0)
(-0.0583493 -0.00565613 0)
(-0.0563423 -0.00649395 0)
(-0.0540754 -0.00727531 0)
(-0.0515682 -0.00798786 0)
(-0.0488436 -0.00861993 0)
(-0.045928 -0.0091608 0)
(-0.0428505 -0.00960095 0)
(-0.0396429 -0.00993238 0)
(-0.0363391 -0.0101488 0)
(-0.0329747 -0.0102457 0)
(-0.0295864 -0.0102208 0)
(-0.0262116 -0.0100739 0)
(-0.0228875 -0.00980713 0)
(-0.0196505 -0.00942485 0)
(-0.0165358 -0.0089336 0)
(-0.0135767 -0.00834203 0)
(-0.0108036 -0.00766078 0)
(-0.00824378 -0.00690223 0)
(-0.00592087 -0.00608035 0)
(-0.00385411 -0.00521042 0)
(-0.00205805 -0.00430884 0)
(-0.000542142 -0.00339294 0)
(0.000689569 -0.00248081 0)
(0.00163872 -0.00159124 0)
(0.00231282 -0.000743695 0)
(0.00272542 4.16158e-05 0)
(0.00289625 0.000743594 0)
(0.00285125 0.00134009 0)
(0.00262264 0.00180773 0)
(0.00224898 0.00212196 0)
(0.00177524 0.00225731 0)
(0.00125211 0.00218823 0)
(0.000735483 0.00189065 0)
(0.000300469 0.00134441 0)
(5.73992e-05 0.00053661 0)
(-1.70957e-05 -6.0796e-05 0)
(-0.000161949 0.000203788 0)
(-0.000524488 0.000718061 0)
(-0.00110043 0.00138453 0)
(-0.00189094 0.00213385 0)
(-0.00289641 0.00291482 0)
(-0.0041115 0.00369125 0)
(-0.00552703 0.00443915 0)
(-0.00713168 0.00514396 0)
(-0.0089129 0.00579806 0)
(-0.0108576 0.00639875 0)
(-0.0129527 0.00694658 0)
(-0.0151855 0.00744399 0)
(-0.0175437 0.00789424 0)
(-0.0200154 0.00830063 0)
(-0.0225893 0.00866589 0)
(-0.0252541 0.00899188 0)
(-0.0279983 0.00927928 0)
(-0.0308102 0.00952758 0)
(-0.0336776 0.00973509 0)
(-0.0365874 0.00989902 0)
(-0.0395253 0.0100156 0)
(-0.0424762 0.0100805 0)
(-0.0454234 0.0100886 0)
(-0.0483492 0.0100346 0)
(-0.0512345 0.00991337 0)
(-0.0540591 0.00971961 0)
(-0.0568015 0.00944861 0)
(-0.0594397 0.00909621 0)
(-0.0619508 0.00865904 0)
(-0.0643117 0.0081347 0)
(-0.066499 0.00752193 0)
(-0.0684896 0.00682072 0)
(-0.070261 0.00603246 0)
(-0.0717916 0.00516 0)
(-0.0730611 0.00420776 0)
(-0.0740508 0.00318171 0)
(-0.0747441 0.00208947 0)
(-0.0751265 0.000940173 0)
(-0.0751863 -0.000255485 0)
(-0.0749149 -0.00148541 0)
(-0.0743067 -0.00273621 0)
(-0.0733598 -0.00399336 0)
(-0.0720756 -0.0052414 0)
(-0.0704598 -0.00646419 0)
(-0.0685216 -0.00764515 0)
(-0.0662743 -0.00876757 0)
(-0.0637352 -0.00981493 0)
(-0.0609254 -0.0107712 0)
(-0.0578696 -0.0116213 0)
(-0.0545962 -0.0123512 0)
(-0.0511367 -0.0129485 0)
(-0.0475254 -0.0134027 0)
(-0.043799 -0.0137055 0)
(-0.0399963 -0.0138509 0)
(-0.0361572 -0.0138357 0)
(-0.0323227 -0.0136593 0)
(-0.0285335 -0.0133242 0)
(-0.0248302 -0.0128358 0)
(-0.0212516 -0.0122022 0)
(-0.017835 -0.0114344 0)
(-0.0146148 -0.0105461 0)
(-0.011622 -0.00955329 0)
(-0.00888373 -0.00847404 0)
(-0.00642258 -0.00732834 0)
(-0.00425603 -0.00613769 0)
(-0.00239607 -0.00492493 0)
(-0.000848787 -0.00371397 0)
(0.000385912 -0.00252964 0)
(0.00131454 -0.00139766 0)
(0.00195019 -0.000344624 0)
(0.00231264 0.000601899 0)
(0.00242843 0.00141325 0)
(0.00233083 0.00205953 0)
(0.00205993 0.00250964 0)
(0.00166279 0.00273141 0)
(0.0011928 0.00269216 0)
(0.000709488 0.00235967 0)
(0.000292377 0.00170347 0)
(5.61986e-05 0.000694878 0)
(-2.98552e-05 3.75833e-05 0)
(-0.000239286 0.000519071 0)
(-0.000732389 0.00126192 0)
(-0.00148516 0.00216139 0)
(-0.0024877 0.00314225 0)
(-0.00373413 0.00414868 0)
(-0.005214 0.00514108 0)
(-0.00691414 0.00609318 0)
(-0.00882027 0.00698908 0)
(-0.0109176 0.00782054 0)
(-0.0131915 0.00858481 0)
(-0.0156274 0.00928273 0)
(-0.0182116 0.00991719 0)
(-0.0209307 0.0104919 0)
(-0.0237721 0.0110106 0)
(-0.026723 0.0114763 0)
(-0.0297712 0.0118907 0)
(-0.0329039 0.0122542 0)
(-0.0361079 0.0125658 0)
(-0.0393693 0.012823 0)
(-0.0426733 0.013022 0)
(-0.0460037 0.013158 0)
(-0.0493432 0.0132252 0)
(-0.0526731 0.0132173 0)
(-0.0559735 0.0131278 0)
(-0.0592229 0.0129501 0)
(-0.0623989 0.0126779 0)
(-0.0654779 0.0123056 0)
(-0.0684354 0.0118282 0)
(-0.0712467 0.0112419 0)
(-0.0738864 0.0105441 0)
(-0.0763293 0.00973366 0)
(-0.0785507 0.00881111 0)
(-0.0805265 0.00777864 0)
(-0.0822337 0.00664029 0)
(-0.0836506 0.00540202 0)
(-0.0847576 0.00407175 0)
(-0.0855371 0.00265934 0)
(-0.085974 0.00117654 0)
(-0.0860562 -0.000363064 0)
(-0.0857743 -0.00194417 0)
(-0.0851228 -0.00354994 0)
(-0.0840995 -0.0051622 0)
(-0.082706 -0.00676165 0)
(-0.0809481 -0.00832819 0)
(-0.0788354 -0.00984122 0)
(-0.0763818 -0.01128 0)
(-0.0736054 -0.012624 0)
(-0.070528 -0.0138532 0)
(-0.0671758 -0.0149489 0)
(-0.0635784 -0.0158936 0)
(-0.0597691 -0.0166718 0)
(-0.0557841 -0.0172701 0)
(-0.0516626 -0.0176779 0)
(-0.0474457 -0.0178876 0)
(-0.0431765 -0.0178945 0)
(-0.0388989 -0.0176977 0)
(-0.0346572 -0.0172998 0)
(-0.0304953 -0.0167069 0)
(-0.0264562 -0.0159289 0)
(-0.0225808 -0.014979 0)
(-0.0189075 -0.0138739 0)
(-0.0154712 -0.0126333 0)
(-0.0123027 -0.0112797 0)
(-0.00942817 -0.00983806 0)
(-0.00686834 -0.00833526 0)
(-0.00463808 -0.00680006 0)
(-0.00274601 -0.00526264 0)
(-0.00119406 -0.0037544 0)
(2.27082e-05 -0.0023078 0)
(0.000916334 -0.000956318 0)
(0.00150604 0.000265505 0)
(0.00181826 0.00132201 0)
(0.00188668 0.00217631 0)
(0.0017523 0.00279023 0)
(0.00146356 0.00312433 0)
(0.00107585 0.00313818 0)
(0.00065136 0.00279074 0)
(0.000272002 0.00204088 0)
(5.29269e-05 0.000845291 0)
(-4.28865e-05 0.000176654 0)
(-0.000319338 0.000940187 0)
(-0.000948801 0.00196361 0)
(-0.00188662 0.00313752 0)
(-0.00311094 0.004383 0)
(-0.00460881 0.00564147 0)
(-0.00636394 0.00687144 0)
(-0.00835858 0.0080456 0)
(-0.010575 0.00914764 0)
(-0.0129959 0.0101694 0)
(-0.0156047 0.0111087 0)
(-0.0183855 0.0119669 0)
(-0.0213233 0.0127475 0)
(-0.024404 0.0134549 0)
(-0.0276138 0.0140931 0)
(-0.0309391 0.0146652 0)
(-0.0343666 0.0151729 0)
(-0.0378823 0.0156161 0)
(-0.0414717 0.0159932 0)
(-0.0451195 0.0163006 0)
(-0.0488091 0.0165335 0)
(-0.0525227 0.0166857 0)
(-0.0562413 0.0167501 0)
(-0.059944 0.0167191 0)
(-0.063609 0.0165847 0)
(-0.0672128 0.016339 0)
(-0.0707309 0.0159748 0)
(-0.0741379 0.0154855 0)
(-0.0774075 0.0148654 0)
(-0.080513 0.0141104 0)
(-0.0834273 0.0132178 0)
(-0.0861239 0.0121868 0)
(-0.0885763 0.0110184 0)
(-0.0907593 0.00971589 0)
(-0.0926486 0.00828463 0)
(-0.0942217 0.00673228 0)
(-0.0954578 0.00506883 0)
(-0.0963386 0.00330652 0)
(-0.0968482 0.00145984 0)
(-0.0969738 -0.000454579 0)
(-0.0967056 -0.00241815 0)
(-0.0960374 -0.00441047 0)
(-0.0949668 -0.00640958 0)
(-0.0934949 -0.00839225 0)
(-0.0916273 -0.0103343 0)
(-0.0893735 -0.012211 0)
(-0.0867473 -0.0139972 0)
(-0.083767 -0.0156684 0)
(-0.080455 -0.0172005 0)
(-0.0768378 -0.0185707 0)
(-0.072946 -0.0197578 0)
(-0.068814 -0.0207427 0)
(-0.0644797 -0.0215092 0)
(-0.0599839 -0.022044 0)
(-0.0553701 -0.0223371 0)
(-0.0506838 -0.0223827 0)
(-0.045972 -0.0221788 0)
(-0.0412822 -0.021728 0)
(-0.0366619 -0.0210369 0)
(-0.0321579 -0.0201168 0)
(-0.027815 -0.0189832 0)
(-0.0236757 -0.0176558 0)
(-0.019779 -0.0161581 0)
(-0.0161598 -0.014517 0)
(-0.0128482 -0.0127626 0)
(-0.00986841 -0.0109277 0)
(-0.00723881 -0.00904711 0)
(-0.00497092 -0.00715782 0)
(-0.00306924 -0.00529817 0)
(-0.00153089 -0.00350786 0)
(-0.000345441 -0.00182777 0)
(0.000505224 -0.000299863 0)
(0.00104695 0.00103271 0)
(0.00131329 0.00212557 0)
(0.00134562 0.00293298 0)
(0.00119321 0.00340777 0)
(0.000912798 0.00350127 0)
(0.000568372 0.00316338 0)
(0.00024261 0.00234256 0)
(4.82952e-05 0.0009825 0)
(-5.60852e-05 0.000357411 0)
(-0.000401169 0.00147063 0)
(-0.0011709 0.00282886 0)
(-0.0022994 0.00432036 0)
(-0.00375229 0.0058646 0)
(-0.00550897 0.00740206 0)
(-0.00754682 0.008891 0)
(-0.00984299 0.0103044 0)
(-0.0123759 0.0116266 0)
(-0.0151256 0.0128504 0)
(-0.0180731 0.0139745 0)
(-0.0212013 0.0150015 0)
(-0.0244939 0.0159359 0)
(-0.0279358 0.0167825 0)
(-0.0315123 0.0175459 0)
(-0.035209 0.0182292 0)
(-0.0390115 0.0188339 0)
(-0.042905 0.0193594 0)
(-0.0468738 0.0198031 0)
(-0.0509011 0.0201605 0)
(-0.0549691 0.0204254 0)
(-0.0590583 0.0205903 0)
(-0.0631479 0.0206466 0)
(-0.0672156 0.0205852 0)
(-0.0712377 0.0203968 0)
(-0.0751891 0.0200723 0)
(-0.0790435 0.0196034 0)
(-0.0827738 0.0189825 0)
(-0.0863522 0.0182035 0)
(-0.0897503 0.017262 0)
(-0.0929399 0.0161554 0)
(-0.0958929 0.0148831 0)
(-0.0985819 0.013447 0)
(-0.10098 0.0118514 0)
(-0.103063 0.0101032 0)
(-0.104806 0.00821177 0)
(-0.106189 0.00618924 0)
(-0.107191 0.00405035 0)
(-0.107796 0.00181238 0)
(-0.107991 -0.000505004 0)
(-0.107765 -0.00287984 0)
(-0.107111 -0.00528813 0)
(-0.106025 -0.0077041 0)
(-0.104508 -0.0101005 0)
(-0.102564 -0.0124491 0)
(-0.100204 -0.0147206 0)
(-0.0974388 -0.0168859 0)
(-0.0942877 -0.0189159 0)
(-0.0907724 -0.0207821 0)
(-0.0869195 -0.0224576 0)
(-0.0827601 -0.0239171 0)
(-0.0783291 -0.0251379 0)
(-0.0736655 -0.0261001 0)
(-0.0688116 -0.0267875 0)
(-0.0638128 -0.0271876 0)
(-0.058717 -0.0272926 0)
(-0.0535739 -0.0270994 0)
(-0.0484344 -0.0266099 0)
(-0.0433495 -0.0258313 0)
(-0.0383699 -0.0247758 0)
(-0.0335447 -0.0234612 0)
(-0.0289207 -0.0219099 0)
(-0.0245414 -0.0201491 0)
(-0.0204462 -0.0182105 0)
(-0.0166693 -0.0161293 0)
(-0.0132394 -0.0139444 0)
(-0.0101785 -0.0116974 0)
(-0.00750162 -0.00943201 0)
(-0.00521642 -0.00719422 0)
(-0.00332258 -0.00503138 0)
(-0.00181175 -0.00299224 0)
(-0.00066741 -0.00112672 0)
(0.000135225 0.000514048 0)
(0.000629164 0.00187771 0)
(0.000855686 0.0029105 0)
(0.000864427 0.00355709 0)
(0.000712892 0.00376028 0)
(0.000466188 0.00346094 0)
(0.000206619 0.00259762 0)
(4.27839e-05 0.00110267 0)
(-6.93902e-05 0.000580531 0)
(-0.000484106 0.00211269 0)
(-0.00139653 0.00386149 0)
(-0.00271926 0.00571488 0)
(-0.004405 0.00759272 0)
(-0.00642517 0.00943642 0)
(-0.00875039 0.0112056 0)
(-0.0113524 0.0128748 0)
(-0.0142056 0.0144303 0)
(-0.0172867 0.0158667 0)
(-0.020575 0.0171846 0)
(-0.0240513 0.0183878 0)
(-0.0276983 0.0194821 0)
(-0.0314998 0.0204733 0)
(-0.0354404 0.0213664 0)
(-0.039505 0.0221646 0)
(-0.0436782 0.022869 0)
(-0.0479443 0.0234784 0)
(-0.0522865 0.0239893 0)
(-0.0566871 0.024396 0)
(-0.0611268 0.0246908 0)
(-0.0655849 0.0248647 0)
(-0.0700392 0.0249077 0)
(-0.0744659 0.0248091 0)
(-0.0788398 0.0245583 0)
(-0.0831343 0.024145 0)
(-0.0873218 0.0235598 0)
(-0.0913738 0.0227944 0)
(-0.095261 0.0218421 0)
(-0.098954 0.0206984 0)
(-0.102423 0.0193608 0)
(-0.10564 0.0178292 0)
(-0.108575 0.0161063 0)
(-0.111202 0.0141975 0)
(-0.113494 0.0121112 0)
(-0.115426 0.00985865 0)
(-0.116976 0.00745413 0)
(-0.118125 0.00491482 0)
(-0.118853 0.00226075 0)
(-0.119146 -0.000485341 0)
(-0.118994 -0.00329818 0)
(-0.118386 -0.00615021 0)
(-0.117319 -0.00901186 0)
(-0.115793 -0.0118519 0)
(-0.113809 -0.0146377 0)
(-0.111377 -0.0173358 0)
(-0.108508 -0.0199126 0)
(-0.105219 -0.0223344 0)
(-0.101531 -0.0245682 0)
(-0.0974711 -0.0265826 0)
(-0.0930693 -0.0283478 0)
(-0.0883609 -0.0298371 0)
(-0.0833855 -0.0310265 0)
(-0.0781867 -0.0318965 0)
(-0.0728115 -0.0324316 0)
(-0.0673099 -0.0326215 0)
(-0.0617345 -0.0324614 0)
(-0.0561392 -0.0319523 0)
(-0.0505789 -0.0311013 0)
(-0.0451085 -0.0299215 0)
(-0.0397815 -0.0284323 0)
(-0.0346495 -0.026659 0)
(-0.0297609 -0.0246325 0)
(-0.02516 -0.022389 0)
(-0.0208861 -0.0199692 0)
(-0.0169724 -0.0174183 0)
(-0.0134453 -0.0147846 0)
(-0.0103242 -0.0121196 0)
(-0.00762004 -0.00947697 0)
(-0.0053358 -0.0069123 0)
(-0.00346572 -0.00448272 0)
(-0.00199531 -0.00224666 0)
(-0.000901266 -0.000263742 0)
(-0.000151543 0.00140519 0)
(0.00029468 0.00269791 0)
(0.00048698 0.00355053 0)
(0.000483194 0.0038972 0)
(0.000349054 0.0036698 0)
(0.00016577 0.0027976 0)
(3.67155e-05 0.00120306 0)
(-8.27507e-05 0.000846405 0)
(-0.000567598 0.00286767 0)
(-0.00162393 0.00506365 0)
(-0.00314263 0.00732393 0)
(-0.00506332 0.00957063 0)
(-0.00734916 0.0117479 0)
(-0.00996385 0.0138183 0)
(-0.0128735 0.0157596 0)
(-0.0160481 0.017561 0)
(-0.0194613 0.0192198 0)
(-0.02309 0.0207391 0)
(-0.0269133 0.0221249 0)
(-0.0309127 0.0233845 0)
(-0.0350711 0.0245247 0)
(-0.0393722 0.0255511 0)
(-0.0438001 0.026467 0)
(-0.048339 0.0272732 0)
(-0.0529721 0.0279678 0)
(-0.0576819 0.028546 0)
(-0.0624496 0.0290009 0)
(-0.067255 0.0293233 0)
(-0.0720762 0.0295028 0)
(-0.0768897 0.0295277 0)
(-0.0816707 0.0293859 0)
(-0.0863926 0.0290653 0)
(-0.0910277 0.0285545 0)
(-0.0955472 0.027843 0)
(-0.0999216 0.0269218 0)
(-0.10412 0.025784 0)
(-0.108114 0.0244247 0)
(-0.11187 0.0228417 0)
(-0.115361 0.0210354 0)
(-0.118556 0.0190094 0)
(-0.121427 0.0167702 0)
(-0.123946 0.0143278 0)
(-0.12609 0.011695 0)
(-0.127833 0.0088884 0)
(-0.129155 0.00592747 0)
(-0.130036 0.00283494 0)
(-0.13046 -0.000363501 0)
(-0.130415 -0.00363936 0)
(-0.12989 -0.00696158 0)
(-0.128879 -0.0102968 0)
(-0.12738 -0.0136099 0)
(-0.125394 -0.016864 0)
(-0.122926 -0.0200213 0)
(-0.119988 -0.0230434 0)
(-0.116595 -0.025892 0)
(-0.112766 -0.0285294 0)
(-0.108527 -0.0309192 0)
(-0.103907 -0.033027 0)
(-0.0989422 -0.0348213 0)
(-0.0936718 -0.036274 0)
(-0.08814 -0.0373613 0)
(-0.0823954 -0.0380642 0)
(-0.07649 -0.0383695 0)
(-0.0704789 -0.03827 0)
(-0.0644194 -0.0377653 0)
(-0.0583703 -0.0368618 0)
(-0.0523908 -0.0355732 0)
(-0.0465394 -0.0339201 0)
(-0.0408727 -0.0319303 0)
(-0.0354448 -0.0296384 0)
(-0.0303054 -0.0270851 0)
(-0.0254993 -0.0243168 0)
(-0.0210652 -0.021385 0)
(-0.0170346 -0.0183453 0)
(-0.0134314 -0.015257 0)
(-0.0102711 -0.0121823 0)
(-0.00756031 -0.00918544 0)
(-0.00529631 -0.0063325 0)
(-0.00346718 -0.00369098 0)
(-0.00205155 -0.00132957 0)
(-0.00101867 0.000681869 0)
(-0.000328552 0.00227217 0)
(6.80017e-05 0.00336857 0)
(0.000228836 0.00389637 0)
(0.000220011 0.00377862 0)
(0.000121278 0.00293581 0)
(3.03026e-05 0.00128166 0)
(-9.61097e-05 0.00115517 0)
(-0.000651124 0.00373604 0)
(-0.00185146 0.00643614 0)
(-0.00356629 0.00914849 0)
(-0.00572201 0.0117994 0)
(-0.00827351 0.0143374 0)
(-0.0111773 0.0167299 0)
(-0.0143939 0.0189591 0)
(-0.0178888 0.0210182 0)
(-0.0216324 0.0229087 0)
(-0.025599 0.0246366 0)
(-0.0297663 0.0262105 0)
(-0.0341144 0.0276399 0)
(-0.0386253 0.0289328 0)
(-0.0432819 0.0300954 0)
(-0.0480679 0.0311314 0)
(-0.0529665 0.032041 0)
(-0.0579605 0.0328214 0)
(-0.0630317 0.0334669 0)
(-0.0681603 0.0339691 0)
(-0.0733253 0.0343174 0)
(-0.078504 0.0344995 0)
(-0.083672 0.0345022 0)
(-0.0888032 0.034312 0)
(-0.0938704 0.0339155 0)
(-0.0988449 0.0332998 0)
(-0.103697 0.0324538 0)
(-0.108396 0.0313678 0)
(-0.112911 0.0300344 0)
(-0.117212 0.0284486 0)
(-0.121266 0.0266084 0)
(-0.125043 0.024515 0)
(-0.128512 0.0221725 0)
(-0.131646 0.0195887 0)
(-0.134415 0.0167748 0)
(-0.136794 0.0137457 0)
(-0.138757 0.0105196 0)
(-0.140281 0.00711837 0)
(-0.141347 0.00356726 0)
(-0.141937 -0.000105258 0)
(-0.142035 -0.00386758 0)
(-0.14163 -0.00768531 0)
(-0.140712 -0.0115215 0)
(-0.139278 -0.015337 0)
(-0.137327 -0.0190908 0)
(-0.134862 -0.0227406 0)
(-0.131891 -0.0262435 0)
(-0.128428 -0.029556 0)
(-0.12449 -0.0326356 0)
(-0.120101 -0.0354407 0)
(-0.11529 -0.0379317 0)
(-0.110091 -0.0400719 0)
(-0.104542 -0.0418283 0)
(-0.0986903 -0.0431725 0)
(-0.0925836 -0.0440813 0)
(-0.0862763 -0.0445378 0)
(-0.079826 -0.0445318 0)
(-0.0732933 -0.0440607 0)
(-0.066741 -0.0431297 0)
(-0.0602328 -0.0417523 0)
(-0.0538326 -0.0399502 0)
(-0.0476029 -0.0377534 0)
(-0.0416034 -0.0351996 0)
(-0.0358903 -0.0323342 0)
(-0.0305145 -0.0292092 0)
(-0.0255209 -0.0258827 0)
(-0.020947 -0.0224181 0)
(-0.0168221 -0.0188827 0)
(-0.0131666 -0.0153478 0)
(-0.00999138 -0.0118868 0)
(-0.00729768 -0.00857559 0)
(-0.00507651 -0.00549121 0)
(-0.00330886 -0.00271208 0)
(-0.00196571 -0.00031767 0)
(-0.00100818 0.00161142 0)
(-0.000387738 0.00299318 0)
(-4.67355e-05 0.00374386 0)
(8.10929e-05 0.00377771 0)
(7.39411e-05 0.00300683 0)
(2.36795e-05 0.00133698 0)
(-0.0001094 0.00150672 0)
(-0.000734157 0.00471749 0)
(-0.00207757 0.00797842 0)
(-0.00398714 0.0111878 0)
(-0.00637615 0.0142779 0)
(-0.00919113 0.0172037 0)
(-0.0123816 0.0199387 0)
(-0.015902 0.022471 0)
(-0.0197136 0.0247995 0)
(-0.0237836 0.0269301 0)
(-0.0280838 0.0288731 0)
(-0.03259 0.0306403 0)
(-0.0372813 0.0322434 0)
(-0.0421387 0.0336922 0)
(-0.0471446 0.0349937 0)
(-0.0522818 0.0361516 0)
(-0.0575334 0.0371659 0)
(-0.0628813 0.0380329 0)
(-0.0683069 0.0387458 0)
(-0.0737898 0.0392945 0)
(-0.0793082 0.0396671 0)
(-0.0848388 0.0398495 0)
(-0.0903564 0.039827 0)
(-0.0958344 0.0395845 0)
(-0.101245 0.0391071 0)
(-0.106558 0.0383812 0)
(-0.111744 0.0373944 0)
(-0.116771 0.0361365 0)
(-0.121608 0.0345997 0)
(-0.126224 0.0327792 0)
(-0.130586 0.030673 0)
(-0.134663 0.0282826 0)
(-0.138424 0.0256132 0)
(-0.14184 0.0226734 0)
(-0.144881 0.0194759 0)
(-0.147519 0.0160369 0)
(-0.14973 0.0123766 0)
(-0.151488 0.00851885 0)
(-0.152771 0.0044912 0)
(-0.15356 0.000324766 0)
(-0.153837 -0.00394599 0)
(-0.153589 -0.00828348 0)
(-0.152804 -0.0126472 0)
(-0.151475 -0.0169943 0)
(-0.149598 -0.0212796 0)
(-0.147174 -0.0254563 0)
(-0.144208 -0.0294767 0)
(-0.140711 -0.0332924 0)
(-0.136698 -0.0368555 0)
(-0.132191 -0.0401188 0)
(-0.127216 -0.0430372 0)
(-0.121806 -0.0455684 0)
(-0.115999 -0.0476738 0)
(-0.109842 -0.0493197 0)
(-0.103382 -0.0504778 0)
(-0.0966772 -0.0511268 0)
(-0.0897859 -0.0512528 0)
(-0.0827723 -0.0508501 0)
(-0.0757033 -0.049922 0)
(-0.0686476 -0.0484812 0)
(-0.0616745 -0.0465498 0)
(-0.0548527 -0.0441593 0)
(-0.0482486 -0.0413507 0)
(-0.0419254 -0.0381736 0)
(-0.035941 -0.0346858 0)
(-0.0303472 -0.0309521 0)
(-0.0251882 -0.0270438 0)
(-0.0204998 -0.0230372 0)
(-0.0163081 -0.0190127 0)
(-0.0126292 -0.015054 0)
(-0.00946859 -0.0112471 0)
(-0.00682099 -0.00767955 0)