/*--------------------------------*- C++ -*----------------------------------*\
  =========                 |
  \\      /  F ield         | OpenFOAM: The Open Source CFD Toolbox
   \\    /   O peration     | Website:  https://openfoam.org
    \\  /    A nd           | Version:  7
     \\/     M anipulation  |
\*---------------------------------------------------------------------------*/
FoamFile
{
    version     2.0;
    format      ascii;
    class       volScalarField;
    location    "1";
    object      p;
}
// * * * * * * * * * * * * * * * * * * * * * * * * * * * * * * * * * * * * * //

dimensions      [0 2 -2 0 0 0 0];

internalField   nonuniform List<scalar> 
6400
(
-1.54726e-09
-4.43686e-06
-2.35974e-05
-5.4349e-05
-9.23329e-05
-0.000134322
-0.000177859
-0.000221226
-0.000263308
-0.000303452
-0.000341342
-0.000376881
-0.000410093
-0.000441047
-0.0004698
-0.000496358
-0.000520657
-0.000542545
-0.00056177
-0.000577983
-0.000590747
-0.000599546
-0.000603798
-0.000602876
-0.000596122
-0.000582871
-0.000562467
-0.000534292
-0.000497786
-0.000452473
-0.000397993
-0.000334123
-0.00026081
-0.000178194
-8.66299e-05
1.32844e-05
0.000120696
0.000234479
0.000353233
0.000475297
0.000598725
0.000721352
0.00084081
0.000954576
0.00106003
0.00115454
0.00123551
0.00130047
0.00134719
0.00137372
0.00137849
0.00136039
0.00131878
0.00125358
0.00116527
0.00105485
0.000923896
0.000774426
0.00060891
0.00043015
0.000241209
4.53153e-05
-0.000154232
-0.00035415
-0.000551252
-0.000742515
-0.000925128
-0.00109653
-0.00125441
-0.00139673
-0.00152172
-0.00162784
-0.00171383
-0.00177872
-0.00182197
-0.00184369
-0.0018452
-0.0018299
-0.00180429
-0.00177835
3.20151e-06
-1.27394e-06
-1.769e-05
-4.31674e-05
-7.47212e-05
-0.000109993
-0.000147137
-0.000184743
-0.000221817
-0.000257712
-0.000292042
-0.000324604
-0.000355309
-0.000384113
-0.000410972
-0.000435816
-0.000458524
-0.000478911
-0.000496711
-0.000511587
-0.000523126
-0.000530855
-0.000534251
-0.000532753
-0.000525779
-0.000512744
-0.000493078
-0.000466245
-0.000431767
-0.000389245
-0.000338385
-0.000279023
-0.000211146
-0.000134921
-5.07063e-05
4.09172e-05
0.000139138
0.000242895
0.00035087
0.000461569
0.00057315
0.000683626
0.000790825
0.000892436
0.000986065
0.0010693
0.00113979
0.00119529
0.00123378
0.00125351
0.00125308
0.00123152
0.00118829
0.00112336
0.00103723
0.000930886
0.000805794
0.000663872
0.000507418
0.000339043
0.000161584
-2.1978e-05
-0.000208603
-0.000395275
-0.000579076
-0.000757242
-0.000927217
-0.00108669
-0.00123359
-0.00136612
-0.00148276
-0.00158226
-0.00166365
-0.0017263
-0.00177001
-0.00179518
-0.00180314
-0.00179659
-0.00177848
-0.00175247
2.1066e-05
1.36503e-05
-2.94692e-06
-2.65746e-05
-5.5078e-05
-8.66904e-05
-0.000119974
-0.00015381
-0.000187382
-0.00022013
-0.000251695
-0.000281866
-0.000310513
-0.000337548
-0.000362885
-0.000386413
-0.000407981
-0.000427386
-0.000444354
-0.000458549
-0.000469573
-0.00047698
-0.000480283
-0.00047896
-0.000472475
-0.000460289
-0.000441884
-0.000416771
-0.000384516
-0.00034476
-0.000297241
-0.000241817
-0.000178486
-0.00010741
-2.89349e-05
5.63918e-05
0.000147803
0.000244306
0.000344678
0.000447427
0.000550895
0.000653191
0.000752256
0.000845904
0.000931868
0.00100787
0.00107166
0.00112114
0.00115438
0.00116974
0.00116589
0.00114194
0.0010974
0.00103228
0.000947083
0.000842783
0.000720829
0.000583086
0.000431782
0.000269435
9.87741e-05
-7.73443e-05
-0.000256022
-0.000434396
-0.000609712
-0.00077938
-0.000941023
-0.00109251
-0.00123197
-0.0013578
-0.00146867
-0.00156353
-0.0016416
-0.00170244
-0.0017459
-0.00177231
-0.0017827
-0.00177887
-0.00176055
-0.0017267
5.16384e-05
3.80882e-05
1.88634e-05
-5.19189e-06
-3.28695e-05
-6.27926e-05
-9.38519e-05
-0.000125213
-0.000156265
-0.000186592
-0.000215926
-0.0002441
-0.000271002
-0.000296545
-0.000320636
-0.000343153
-0.000363935
-0.000382769
-0.000399377
-0.000413421
-0.000424514
-0.000432226
-0.000436088
-0.000435601
-0.000430255
-0.000419537
-0.000402952
-0.000380034
-0.000350369
-0.000313609
-0.000269498
-0.000217889
-0.000158765
-9.22663e-05
-1.87036e-05
6.14181e-05
0.000147385
0.000238261
0.000332885
0.000429858
0.000527571
0.000624211
0.000717791
0.000806191
0.00088721
0.000958618
0.00101823
0.00106397
0.00109397
0.00110659
0.00110055
0.00107497
0.00102937
0.000963784
0.000878717
0.000775158
0.000654556
0.000518773
0.000370027
0.000210818
4.38432e-05
-0.000128083
-0.000302122
-0.000475487
-0.000645515
-0.000809726
-0.000965873
-0.00111196
-0.00124628
-0.00136738
-0.00147411
-0.00156557
-0.0016411
-0.00170031
-0.00174305
-0.00176941
-0.00178002
-0.00177587
-0.00175428
-0.001711
9.10887e-05
6.93053e-05
4.5711e-05
1.98034e-05
-8.33995e-06
-3.76958e-05
-6.74614e-05
-9.70924e-05
-0.000126208
-0.000154563
-0.000182009
-0.000208456
-0.000233846
-0.000258121
-0.000281201
-0.000302971
-0.000323272
-0.000341889
-0.000358542
-0.000372895
-0.000384569
-0.000393141
-0.000398153
-0.00039912
-0.000395543
-0.00038692
-0.000372765
-0.000352619
-0.000326065
-0.00029275
-0.000252403
-0.000204851
-0.000150047
-8.80872e-05
-1.92353e-05
5.6059e-05
0.000137142
0.000223141
0.000312949
0.000405249
0.000498472
0.000590859
0.000680467
0.00076521
0.000842906
0.00091134
0.00096833
0.0010118
0.00103985
0.00105085
0.0010435
0.00101689
0.000970544
0.000904489
0.00081923
0.000715769
0.000595572
0.000460525
0.000312869
0.000155127
-9.98585e-06
-0.00017965
-0.000351031
-0.000521367
-0.000688041
-0.000848644
-0.00100102
-0.00114328
-0.00127384
-0.00139142
-0.00149497
-0.00158375
-0.0016572
-0.00171497
-0.00175684
-0.00178272
-0.00179287
-0.00178769
-0.00176282
-0.00171199
0.000136081
0.000104708
7.55838e-05
4.67598e-05
1.71468e-05
-1.25444e-05
-4.17963e-05
-7.03583e-05
-9.80914e-05
-0.000124934
-0.000150876
-0.000175931
-0.000200115
-0.000223422
-0.000245805
-0.000267169
-0.000287367
-0.000306187
-0.000323354
-0.000338537
-0.000351361
-0.000361406
-0.00036822
-0.00037132
-0.000370207
-0.000364378
-0.00035334
-0.000336623
-0.000313793
-0.000284472
-0.000248351
-0.000205216
-0.000154967
-9.76441e-05
-3.34453e-05
3.72471e-05
0.000113848
0.000195549
0.000281298
0.000369866
0.000459697
0.000549075
0.000636076
0.000718618
0.00079451
0.000861513
0.000917404
0.000960061
0.000987534
0.000998133
0.000990498
0.00096367
0.000917146
0.000850913
0.000765471
0.000661826
0.000541467
0.000406315
0.000258662
0.000101082
-6.36525e-05
-0.000232671
-0.000403104
-0.000572166
-0.00073724
-0.000895942
-0.00104617
-0.00118611
-0.0013143
-0.00142953
-0.00153093
-0.00161783
-0.00168977
-0.00174645
-0.00178759
-0.00181296
-0.00182258
-0.00181643
-0.00178915
-0.0017333
0.000183572
0.000141839
0.00010641
7.39009e-05
4.20622e-05
1.1327e-05
-1.80552e-05
-4.61253e-05
-7.29862e-05
-9.87674e-05
-0.000123612
-0.000147654
-0.000170997
-0.000193704
-0.000215775
-0.000237146
-0.000257688
-0.000277205
-0.00029543
-0.000312038
-0.000326656
-0.000338868
-0.000348218
-0.000354221
-0.000356366
-0.000354138
-0.000347024
-0.000334527
-0.000316179
-0.000291555
-0.000260293
-0.000222118
-0.000176857
-0.000124474
-6.50872e-05
1.00356e-06
7.32927e-05
0.000151049
0.000233304
0.000318822
0.000406147
0.000493567
0.000579163
0.000660835
0.000736353
0.000803424
0.000859752
0.000903129
0.000931512
0.000943112
0.000936473
0.000910548
0.000864758
0.000799036
0.000713846
0.000610185
0.000489556
0.000353921
0.00020563
4.73329e-05
-0.000118114
-0.000287755
-0.000458639
-0.000627924
-0.000792941
-0.000951295
-0.00110089
-0.00123997
-0.00136711
-0.00148123
-0.00158152
-0.00166743
-0.00173858
-0.0017947
-0.00183551
-0.00186068
-0.00187008
-0.00186346
-0.00183493
-0.00177652
0.000230863
0.000178305
0.000136074
9.93661e-05
6.47779e-05
3.2483e-05
2.47286e-06
-2.5576e-05
-5.20065e-05
-7.71456e-05
-0.000101298
-0.000124724
-0.000147632
-0.000170159
-0.000192362
-0.000214217
-0.000235623
-0.000256403
-0.000276307
-0.000295017
-0.000312165
-0.000327334
-0.000340065
-0.000349861
-0.000356195
-0.000358529
-0.000356317
-0.000349022
-0.000336124
-0.000317136
-0.000291623
-0.000259226
-0.000219683
-0.00017286
-0.000118776
-5.76314e-05
1.01645e-05
8.39729e-05
0.00016291
0.00024577
0.00033117
0.000417412
0.000502571
0.000584517
0.00066097
0.000729552
0.000787871
0.000833597
0.000864555
0.000878815
0.000874783
0.000851279
0.000807606
0.000743598
0.000659651
0.000556722
0.00043631
0.000300404
0.000151411
-7.93398e-06
-0.000174674
-0.00034574
-0.00051807
-0.000688715
-0.00085493
-0.00101425
-0.00116456
-0.0013041
-0.00143148
-0.00154567
-0.00164594
-0.00173183
-0.00180302
-0.00185929
-0.00190039
-0.00192594
-0.00193573
-0.00192941
-0.00190089
-0.00184214
0.000275427
0.000211777
0.000162443
0.00012121
8.35229e-05
4.93022e-05
1.82895e-05
-1.0117e-05
-3.65004e-05
-6.13881e-05
-8.52491e-05
-0.000108479
-0.000131392
-0.000154209
-0.000177048
-0.000199932
-0.000222797
-0.000245495
-0.000267793
-0.000289386
-0.000309914
-0.000328961
-0.000346061
-0.000360704
-0.000372343
-0.000380406
-0.000384307
-0.000383455
-0.000377262
-0.000365162
-0.00034663
-0.0003212
-0.000288499
-0.000248271
-0.000200412
-0.000144998
-8.23199e-05
-1.29063e-05
6.24512e-05
0.000142652
0.000226346
0.000311871
0.000397302
0.000480482
0.000559068
0.000630589
0.000692527
0.000742404
0.000777873
0.000796822
0.000797467
0.00077844
0.00073887
0.000678442
0.000597428
0.000496701
0.000377718
0.000242465
9.33918e-05
-6.66896e-05
-0.000234712
-0.000407478
-0.000581786
-0.000754546
-0.000922891
-0.00108425
-0.00123644
-0.00137765
-0.00150648
-0.00162193
-0.00172332
-0.00181023
-0.00188241
-0.00193971
-0.0019819
-0.0020086
-0.00201961
-0.00201449
-0.00198725
-0.00193002
0.000314853
0.000239961
0.000183357
0.000137406
9.6397e-05
5.99994e-05
2.77054e-05
-1.36675e-06
-2.80421e-05
-5.30481e-05
-7.70211e-05
-0.000100494
-0.00012389
-0.000147517
-0.00017156
-0.000196096
-0.000221106
-0.000246475
-0.000271996
-0.000297384
-0.000322289
-0.000346301
-0.00036895
-0.00038971
-0.000408012
-0.000423246
-0.000434777
-0.00044195
-0.000444096
-0.000440552
-0.00043068
-0.000413888
-0.000389664
-0.000357604
-0.000317448
-0.000269118
-0.000212749
-0.000148728
-7.77204e-05
-7.08843e-07
8.10464e-05
0.000165928
0.000252036
0.000337195
0.000419004
0.000494891
0.000562199
0.000618272
0.000660557
0.000686706
0.000694688
0.000682884
0.000650178
0.000596029
0.000520516
0.000424363
0.000308918
0.000176121
2.84248e-05
-0.000131301
-0.000299887
-0.000473999
-0.000650273
-0.000825451
-0.000996497
-0.00116069
-0.00131572
-0.00145968
-0.00159113
-0.00170903
-0.00181271
-0.00190178
-0.00197605
-0.0020354
-0.00207964
-0.00210845
-0.0021216
-0.00211867
-0.00209389
-0.00203976
0.000346777
0.000260572
0.00019662
0.000145852
0.000101392
6.26531e-05
2.88692e-05
-1.12566e-06
-2.83999e-05
-5.38829e-05
-7.83795e-05
-0.00010256
-0.000126958
-0.00015197
-0.000177857
-0.000204755
-0.000232699
-0.000261614
-0.000291328
-0.000321583
-0.000352047
-0.000382323
-0.00041194
-0.000440364
-0.000467
-0.000491202
-0.00051228
-0.000529502
-0.000542109
-0.000549322
-0.00055037
-0.00054451
-0.000531058
-0.000509428
-0.000479167
-0.000439998
-0.000391859
-0.000334943
-0.000269741
-0.000197086
-0.000118068
-3.4242e-05
5.25555e-05
0.000140162
0.000226134
0.000307806
0.000382375
0.000446983
0.00049883
0.000535283
0.000553993
0.00055301
0.000530883
0.000486751
0.000420403
0.000332313
0.000223642
9.62e-05
-4.76141e-05
-0.000204917
-0.000372463
-0.000546783
-0.00072434
-0.000901676
-0.00107555
-0.00124303
-0.00140162
-0.00154927
-0.00168441
-0.00180594
-0.00191314
-0.00200561
-0.00208317
-0.00214572
-0.00219314
-0.00222512
-0.00224147
-0.00224175
-0.00222055
-0.00217085
0.000368838
0.000271302
0.000199987
0.000144374
9.64056e-05
5.52194e-05
1.97839e-05
-1.13581e-05
-3.95223e-05
-6.5842e-05
-9.12902e-05
-0.000116674
-0.00014264
-0.00016968
-0.000198134
-0.000228209
-0.000259996
-0.000293476
-0.000328522
-0.000364913
-0.000402349
-0.000440451
-0.000478762
-0.000516744
-0.000553783
-0.000589198
-0.00062224
-0.000652097
-0.000677904
-0.000698753
-0.000713714
-0.000721862
-0.000722309
-0.000714242
-0.000696968
-0.000669953
-0.000632879
-0.000585682
-0.000528606
-0.000462247
-0.000387524
-0.000305806
-0.000218824
-0.000128682
-3.78306e-05
5.0993e-05
0.000134838
0.000210631
0.000275288
0.000325832
0.000359519
0.000373971
0.00036729
0.000338174
0.000285992
0.000210844
0.000113574
-4.24e-06
-0.000140351
-0.000291933
-0.000455709
-0.000628102
-0.000805398
-0.000983914
-0.00116015
-0.00133093
-0.00149349
-0.00164555
-0.00178537
-0.00191167
-0.00202364
-0.00212082
-0.002203
-0.00227007
-0.00232192
-0.00235828
-0.00237895
-0.00238352
-0.00236695
-0.0023228
0.000378651
0.000269811
0.00019117
0.000130736
7.92447e-05
3.55441e-05
-1.67707e-06
-3.41755e-05
-6.35199e-05
-9.10489e-05
-0.000117903
-0.000145029
-0.000173191
-0.000202981
-0.000234826
-0.000269011
-0.0003057
-0.000344939
-0.000386661
-0.000430698
-0.000476796
-0.000524613
-0.000573718
-0.000623583
-0.000673586
-0.000723013
-0.000771059
-0.00081683
-0.000859343
-0.000897542
-0.000930315
-0.000956521
-0.000975022
-0.000984728
-0.000984641
-0.000973905
-0.000951864
-0.000918115
-0.000872556
-0.000815438
-0.000747507
-0.000669765
-0.000583781
-0.000491537
-0.00039543
-0.000298234
-0.000203027
-0.000113106
-3.18723e-05
3.72932e-05
9.11669e-05
0.000126829
0.000141804
0.000134193
0.000102785
4.71332e-05
-3.23929e-05
-0.000134607
-0.000257547
-0.000398554
-0.000554401
-0.000721449
-0.000895823
-0.0010736
-0.00125099
-0.00142447
-0.00159097
-0.00174787
-0.00189316
-0.00202531
-0.00214333
-0.0022466
-0.00233482
-0.00240784
-0.00246552
-0.00250757
-0.0025338
-0.00254376
-0.00253286
-0.00249526
0.000373794
0.000253724
0.000167833
0.000102637
4.76385e-05
1.3768e-06
-3.77545e-05
-7.18213e-05
-0.000102649
-0.000131785
-0.00016054
-0.000190005
-0.000221067
-0.000254424
-0.000290603
-0.000329978
-0.000372802
-0.000419201
-0.000469188
-0.00052267
-0.00057946
-0.000639276
-0.000701731
-0.000766326
-0.000832446
-0.000899358
-0.000966205
-0.00103201
-0.00109566
-0.00115593
-0.00121151
-0.00126099
-0.00130294
-0.00133592
-0.00135856
-0.00136959
-0.00136792
-0.00135269
-0.00132336
-0.00127976
-0.0012222
-0.0011513
-0.00106837
-0.000975157
-0.000873922
-0.000767414
-0.000658801
-0.000551595
-0.000449536
-0.000356467
-0.000276183
-0.000212266
-0.000167927
-0.000145842
-0.000148005
-0.000175619
-0.000229008
-0.000307582
-0.00040985
-0.000533484
-0.000675431
-0.000832074
-0.00099942
-0.00117331
-0.0013496
-0.00152441
-0.0016942
-0.00185595
-0.00200723
-0.00214617
-0.00227146
-0.00238224
-0.00247804
-0.00255856
-0.00262358
-0.00267279
-0.0027059
-0.00272242
-0.0027182
-0.00268807
0.000351804
0.000220628
0.000127599
5.77198e-05
-7.54052e-07
-4.96187e-05
-9.07903e-05
-0.000126653
-0.000159295
-0.000190475
-0.000221682
-0.000254157
-0.000288916
-0.000326776
-0.000368373
-0.000414191
-0.000464587
-0.000519793
-0.000579926
-0.000644995
-0.000714909
-0.000789472
-0.000868372
-0.000951164
-0.00103726
-0.00112592
-0.00121626
-0.0013072
-0.00139752
-0.00148578
-0.00157044
-0.00164979
-0.00172202
-0.0017853
-0.00183776
-0.00187762
-0.00190325
-0.0019132
-0.00190636
-0.00188196
-0.00183975
-0.00177984
-0.00170313
-0.00161101
-0.00150548
-0.00138919
-0.00126534
-0.00113762
-0.00101012
-0.00088719
-0.000773279
-0.000672766
-0.000589767
-0.00052794
-0.000490303
-0.000479074
-0.000495541
-0.000539981
-0.000611627
-0.000708705
-0.000828523
-0.000967623
-0.00112198
-0.00128721
-0.00145883
-0.00163247
-0.00180407
-0.00197007
-0.00212745
-0.00227387
-0.00240754
-0.00252725
-0.0026322
-0.00272189
-0.00279592
-0.00285385
-0.00289527
-0.0029196
-0.00292312
-0.00290133
0.000310179
0.000168075
6.805e-05
-6.4129e-06
-6.83267e-05
-0.000119843
-0.000163203
-0.000201117
-0.000235945
-0.000269665
-0.000303949
-0.000340196
-0.000379562
-0.000422998
-0.000471266
-0.000524979
-0.000584625
-0.000650571
-0.00072307
-0.000802265
-0.0008882
-0.000980803
-0.00107987
-0.00118504
-0.00129579
-0.00141139
-0.00153093
-0.00165327
-0.00177701
-0.00190054
-0.00202202
-0.00213937
-0.00225037
-0.00235266
-0.0024438
-0.00252137
-0.00258302
-0.00262661
-0.00265023
-0.00265239
-0.00263202
-0.00258883
-0.00252284
-0.002435
-0.00232697
-0.00220114
-0.00206066
-0.00190935
-0.00175163
-0.00159238
-0.00143677
-0.00129011
-0.00115759
-0.00104407
-0.000953874
-0.000890527
-0.000856614
-0.000853614
-0.000881817
-0.000940308
-0.00102702
-0.00113886
-0.00127191
-0.00142165
-0.00158323
-0.00175177
-0.00192256
-0.00209132
-0.00225432
-0.0024085
-0.00255146
-0.00268142
-0.00279715
-0.00289775
-0.00298255
-0.0030509
-0.00310219
-0.00313567
-0.00314802
-0.00313546
0.000246387
9.35931e-05
-1.32482e-05
-9.21847e-05
-0.000157505
-0.000211737
-0.000257461
-0.000297726
-0.000335168
-0.000371996
-0.000410072
-0.000450962
-0.00049598
-0.000546223
-0.000602606
-0.000665898
-0.000736748
-0.000815693
-0.000903162
-0.000999479
-0.00110486
-0.00121941
-0.00134307
-0.00147562
-0.00161661
-0.00176537
-0.00192099
-0.00208222
-0.00224756
-0.00241513
-0.00258276
-0.00274797
-0.002908
-0.00305987
-0.00320045
-0.00332651
-0.00343487
-0.00352245
-0.00358643
-0.00362437
-0.0036343
-0.00361497
-0.00356568
-0.0034867
-0.00337912
-0.00324497
-0.00308721
-0.00290969
-0.00271712
-0.00251488
-0.00230894
-0.00210561
-0.00191133
-0.0017324
-0.00157469
-0.00144342
-0.00134283
-0.00127601
-0.00124472
-0.0012493
-0.00128868
-0.00136043
-0.00146096
-0.00158576
-0.00172969
-0.00188728
-0.00205309
-0.00222194
-0.00238919
-0.00255083
-0.00270361
-0.00284498
-0.00297303
-0.00308633
-0.00318377
-0.00326435
-0.00332719
-0.00337127
-0.00339364
-0.00339123
0.00015789
-5.28656e-06
-0.000118733
-0.000202023
-0.000270724
-0.000327758
-0.000376061
-0.00041903
-0.000459588
-0.000500178
-0.000542865
-0.000589398
-0.000641262
-0.000699728
-0.000765889
-0.000840701
-0.000925016
-0.00101959
-0.00112506
-0.001242
-0.00137085
-0.00151193
-0.0016654
-0.0018312
-0.00200903
-0.0021983
-0.00239809
-0.00260712
-0.00282368
-0.00304565
-0.00327047
-0.00349516
-0.00371633
-0.00393027
-0.00413298
-0.0043203
-0.00448799
-0.00463188
-0.00474802
-0.00483282
-0.00488318
-0.00489671
-0.0048718
-0.00480778
-0.00470502
-0.00456501
-0.00439035
-0.00418483
-0.00395331
-0.00370167
-0.00343663
-0.00316559
-0.00289634
-0.00263683
-0.00239478
-0.0021774
-0.00199104
-0.00184085
-0.00173057
-0.0016623
-0.00163643
-0.00165161
-0.00170495
-0.00179217
-0.00190796
-0.00204631
-0.00220093
-0.00236561
-0.00253452
-0.00270248
-0.00286505
-0.00301865
-0.00316043
-0.00328819
-0.0034002
-0.00349495
-0.00357113
-0.00362736
-0.00366107
-0.00366984
4.21619e-05
-0.000131013
-0.000250814
-0.000338329
-0.000410397
-0.000470354
-0.000521502
-0.000567595
-0.000611851
-0.000656958
-0.000705197
-0.000758515
-0.000818591
-0.000886897
-0.000964737
-0.0010533
-0.00115368
-0.00126689
-0.00139388
-0.00153549
-0.00169246
-0.00186539
-0.00205471
-0.0022606
-0.00248292
-0.00272122
-0.00297459
-0.00324169
-0.00352062
-0.00380896
-0.00410369
-0.00440124
-0.00469747
-0.00498779
-0.00526719
-0.00553037
-0.00577188
-0.00598623
-0.00616812
-0.00631261
-0.00641525
-0.00647231
-0.00648109
-0.00643974
-0.00634772
-0.00620575
-0.00601596
-0.00578186
-0.00550835
-0.00520168
-0.00486929
-0.00451961
-0.0041619
-0.00380585
-0.00346127
-0.00313772
-0.00284404
-0.00258797
-0.00237579
-0.00221195
-0.0020989
-0.00203698
-0.00202445
-0.00205765
-0.00213134
-0.0022391
-0.00237375
-0.00252788
-0.00269426
-0.00286616
-0.00303769
-0.00320382
-0.00336046
-0.00350434
-0.00363284
-0.00374377
-0.00383522
-0.00390531
-0.00395176
-0.0039729
-0.000103276
-0.000285978
-0.000411845
-0.000503451
-0.000578891
-0.000641927
-0.000696245
-0.000745958
-0.000794589
-0.00084508
-0.000899944
-0.000961345
-0.00103118
-0.00111116
-0.00120284
-0.00130768
-0.00142709
-0.0015624
-0.0017149
-0.00188579
-0.00207619
-0.00228706
-0.00251913
-0.0027729
-0.00304845
-0.00334547
-0.00366311
-0.00399993
-0.00435385
-0.00472205
-0.00510099
-0.00548637
-0.0058732
-0.00625583
-0.00662807
-0.0069833
-0.00731462
-0.00761507
-0.00787778
-0.00809623
-0.00826446
-0.00837725
-0.00843044
-0.00842094
-0.0083471
-0.00820869
-0.00800713
-0.00774548
-0.00742851
-0.00706265
-0.00665588
-0.00621765
-0.00575857
-0.00529017
-0.00482448
-0.00437364
-0.00394939
-0.00356255
-0.00322252
-0.00293682
-0.00271068
-0.00254681
-0.00244531
-0.00240371
-0.00241727
-0.00247937
-0.00258205
-0.00271658
-0.00287407
-0.00304597
-0.00322444
-0.00340264
-0.00357483
-0.00373626
-0.00388313
-0.00401229
-0.00412103
-0.00420683
-0.00426762
-0.00430248
-0.000280821
-0.000472484
-0.000604088
-0.000699645
-0.000778483
-0.000844803
-0.000902676
-0.000956587
-0.00101037
-0.00106723
-0.00112993
-0.00120088
-0.00128223
-0.00137595
-0.0014839
-0.00160787
-0.00174963
-0.00191091
-0.00209342
-0.00229881
-0.00252862
-0.00278425
-0.00306684
-0.00337721
-0.00371575
-0.00408231
-0.00447609
-0.00489556
-0.00533836
-0.00580123
-0.00627998
-0.00676948
-0.00726371
-0.0077558
-0.00823817
-0.00870269
-0.00914085
-0.00954397
-0.00990347
-0.0102111
-0.0104591
-0.0106408
-0.0107502
-0.010783
-0.0107362
-0.0106084
-0.0104002
-0.0101139
-0.00975402
-0.00932689
-0.00884086
-0.00830613
-0.00773455
-0.00713936
-0.00653484
-0.00593584
-0.00535727
-0.00481345
-0.00431749
-0.00388068
-0.00351187
-0.00321702
-0.0029989
-0.00285704
-0.00278782
-0.00278488
-0.00283969
-0.00294224
-0.00308179
-0.00324759
-0.00342946
-0.00361822
-0.00380595
-0.003986
-0.00415296
-0.0043024
-0.00443053
-0.00453401
-0.00461093
-0.0046611
-0.000492752
-0.00069271
-0.000829675
-0.000929044
-0.00101133
-0.00108118
-0.00114306
-0.00120183
-0.00126165
-0.00132599
-0.00139789
-0.00148002
-0.00157482
-0.00168457
-0.00181149
-0.00195776
-0.00212557
-0.00231714
-0.00253466
-0.00278031
-0.00305615
-0.00336408
-0.00370573
-0.00408231
-0.00449453
-0.00494242
-0.00542522
-0.00594127
-0.00648787
-0.0070612
-0.00765631
-0.00826706
-0.00888621
-0.00950551
-0.0101158
-0.0107072
-0.0112695
-0.0117921
-0.0122645
-0.0126766
-0.0130188
-0.0132827
-0.0134608
-0.013547
-0.013537
-0.0134282
-0.0132201
-0.0129142
-0.0125144
-0.0120266
-0.0114593
-0.0108232
-0.0101309
-0.00939735
-0.00863874
-0.00787262
-0.00711713
-0.00639039
-0.00570971
-0.00509082
-0.00454704
-0.00408856
-0.0037219
-0.00344957
-0.00327
-0.0031778
-0.00316435
-0.00321855
-0.00332775
-0.00347869
-0.00365837
-0.00385472
-0.00405704
-0.00425622
-0.00444471
-0.00461639
-0.00476609
-0.00488935
-0.00498436
-0.00505172
-0.000741185
-0.000948667
-0.00109058
-0.00119361
-0.00127941
-0.00135309
-0.0014195
-0.00148388
-0.00155071
-0.00162377
-0.00170636
-0.00180147
-0.00191186
-0.00204017
-0.00218902
-0.00236106
-0.00255898
-0.00278554
-0.00304352
-0.00333571
-0.00366477
-0.00403319
-0.00444312
-0.00489623
-0.00539356
-0.00593532
-0.00652077
-0.00714803
-0.00781395
-0.00851405
-0.00924242
-0.00999176
-0.0107534
-0.0115175
-0.0122732
-0.0130086
-0.0137116
-0.0143697
-0.0149702
-0.0155013
-0.0159515
-0.0163105
-0.0165692
-0.0167199
-0.0167569
-0.0166764
-0.0164766
-0.016158
-0.0157236
-0.0151788
-0.0145319
-0.0137933
-0.0129766
-0.0120973
-0.0111735
-0.0102251
-0.0092733
-0.00834006
-0.00744716
-0.00661531
-0.00586308
-0.00520594
-0.00465534
-0.00421802
-0.00389565
-0.0036849
-0.00357783
-0.00356272
-0.00362514
-0.00374915
-0.00391848
-0.00411757
-0.00433225
-0.00455025
-0.00476129
-0.00495701
-0.00513045
-0.00527572
-0.005391
-0.0054777
-0.00102803
-0.00124216
-0.00138854
-0.00149509
-0.00158451
-0.00166234
-0.00173387
-0.0018047
-0.00187962
-0.00196274
-0.00205768
-0.00216773
-0.00229602
-0.00244562
-0.00261961
-0.00282115
-0.00305353
-0.00332015
-0.00362444
-0.00396988
-0.00435982
-0.0047974
-0.00528535
-0.00582582
-0.00642017
-0.0070688
-0.00777087
-0.00852421
-0.00932509
-0.0101682
-0.0110464
-0.0119512
-0.0128721
-0.0137976
-0.0147148
-0.0156099
-0.0164685
-0.0172762
-0.0180184
-0.0186811
-0.0192511
-0.0197165
-0.0200664
-0.0202918
-0.0203858
-0.0203429
-0.0201603
-0.0198375
-0.0193763
-0.0187814
-0.0180602
-0.0172229
-0.0162828
-0.0152561
-0.0141619
-0.0130219
-0.0118598
-0.0107012
-0.00957238
-0.00849917
-0.00750609
-0.0066148
-0.00584289
-0.00520278
-0.00470091
-0.00433737
-0.00410612
-0.00399568
-0.00399029
-0.00407136
-0.00421902
-0.0044136
-0.00463672
-0.00487215
-0.00510613
-0.00532742
-0.00552669
-0.00569628
-0.00583422
-0.00594278
-0.00135494
-0.00157472
-0.00172507
-0.00183498
-0.00192812
-0.0020105
-0.00208778
-0.00216596
-0.00225016
-0.0023448
-0.00245383
-0.00258091
-0.00272959
-0.00290338
-0.00310591
-0.00334093
-0.0036124
-0.0039244
-0.00428114
-0.00468686
-0.00514566
-0.00566139
-0.00623738
-0.00687627
-0.00757975
-0.00834826
-0.00918085
-0.0100749
-0.0110258
-0.0120274
-0.0130711
-0.0141466
-0.015242
-0.0163434
-0.017436
-0.0185038
-0.0195303
-0.0204989
-0.0213931
-0.0221971
-0.0228961
-0.0234765
-0.0239262
-0.0242349
-0.0243941
-0.0243977
-0.0242414
-0.0239237
-0.0234454
-0.0228099
-0.0220236
-0.021096
-0.0200395
-0.0188703
-0.0176075
-0.0162739
-0.0148951
-0.0134995
-0.0121174
-0.0107798
-0.00951727
-0.00835844
-0.00732816
-0.006446
-0.00572485
-0.00517006
-0.00477913
-0.00454213
-0.00444286
-0.00446045
-0.00457134
-0.00475122
-0.00497674
-0.00522679
-0.00548324
-0.00573117
-0.00595826
-0.00615453
-0.0063177
-0.00645096
-0.00172325
-0.0019476
-0.00210134
-0.00221444
-0.00231143
-0.00239877
-0.00248251
-0.002569
-0.00266373
-0.00277143
-0.00289642
-0.00304275
-0.00321441
-0.00341544
-0.00365006
-0.0039227
-0.00423802
-0.00460092
-0.00501643
-0.00548962
-0.0060254
-0.00662834
-0.00730241
-0.00805071
-0.00887517
-0.00977622
-0.0107526
-0.011801
-0.012916
-0.01409
-0.0153128
-0.0165725
-0.0178548
-0.0191439
-0.0204225
-0.0216726
-0.0228754
-0.0240124
-0.0250652
-0.0260165
-0.0268499
-0.0275505
-0.0281053
-0.0285029
-0.0287338
-0.028791
-0.0286694
-0.0283664
-0.0278815
-0.0272171
-0.0263782
-0.025373
-0.0242127
-0.0229124
-0.0214907
-0.0199701
-0.0183772
-0.0167423
-0.0150985
-0.0134816
-0.0119281
-0.0104735
-0.00915104
-0.00798862
-0.00700745
-0.00622016
-0.00562989
-0.00523015
-0.00500575
-0.0049344
-0.00498908
-0.00514058
-0.00535982
-0.00561987
-0.00589719
-0.00617223
-0.00642886
-0.00665416
-0.00684532
-0.00700647
-0.00213397
-0.00236168
-0.0025182
-0.00263431
-0.00273529
-0.00282802
-0.00291895
-0.00301478
-0.00312134
-0.00324371
-0.00338658
-0.00355444
-0.00375176
-0.00398316
-0.00425351
-0.00456796
-0.00493199
-0.00535135
-0.00583197
-0.00637979
-0.00700057
-0.00769962
-0.00848152
-0.00934977
-0.0103064
-0.0113518
-0.012484
-0.0136991
-0.0149903
-0.0163484
-0.0177616
-0.0192156
-0.0206941
-0.0221788
-0.0236502
-0.0250879
-0.0264712
-0.0277795
-0.0289931
-0.030093
-0.0310619
-0.0318839
-0.0325454
-0.0330342
-0.0333403
-0.0334562
-0.033376
-0.0330962
-0.0326155
-0.0319349
-0.0310582
-0.0299916
-0.0287449
-0.0273311
-0.0257675
-0.0240755
-0.022281
-0.0204149
-0.0185121
-0.0166118
-0.0147554
-0.0129855
-0.0113434
-0.00986681
-0.00858663
-0.007525
-0.00669312
-0.0060904
-0.00570471
-0.00551389
-0.00548824
-0.00559365
-0.00579481
-0.00605799
-0.00635313
-0.00665492
-0.00694244
-0.00719905
-0.00742108
-0.00761366
-0.00258767
-0.00281745
-0.00297608
-0.00309501
-0.00320011
-0.00329869
-0.00339756
-0.00350377
-0.0036235
-0.00376218
-0.0039249
-0.00411659
-0.00434228
-0.00460718
-0.00491688
-0.00527733
-0.00569487
-0.00617617
-0.00672808
-0.00735746
-0.00807093
-0.00887453
-0.00977336
-0.0107712
-0.0118702
-0.0130702
-0.0143688
-0.0157608
-0.0172379
-0.0187891
-0.0204006
-0.0220557
-0.0237356
-0.0254196
-0.0270859
-0.0287119
-0.030275
-0.0317528
-0.0331244
-0.0343697
-0.0354707
-0.0364111
-0.0371767
-0.0377555
-0.0381371
-0.0383138
-0.0382794
-0.0380299
-0.0375632
-0.0368792
-0.03598
-0.0348704
-0.0335579
-0.0320532
-0.0303713
-0.0285312
-0.0265571
-0.0244789
-0.0223316
-0.020156
-0.0179972
-0.0159038
-0.0139248
-0.0121077
-0.0104947
-0.00911922
-0.00800319
-0.00715476
-0.00656764
-0.00622202
-0.00608701
-0.00612424
-0.00629192
-0.0065487
-0.0068568
-0.00718391
-0.00750312
-0.00779313
-0.00804902
-0.00827684
-0.00308451
-0.00331496
-0.003475
-0.00359653
-0.00370588
-0.00381075
-0.00391831
-0.00403597
-0.0041702
-0.00432683
-0.00451134
-0.00472915
-0.00498585
-0.00528734
-0.00563993
-0.00605043
-0.00652609
-0.00707453
-0.00770357
-0.00842099
-0.00923425
-0.01015
-0.0111739
-0.0123099
-0.0135599
-0.0149231
-0.0163963
-0.0179728
-0.0196426
-0.0213926
-0.0232066
-0.0250655
-0.0269478
-0.0288304
-0.0306891
-0.0324994
-0.0342366
-0.0358775
-0.0373996
-0.0387826
-0.040008
-0.0410595
-0.0419231
-0.0425868
-0.0430407
-0.0432775
-0.0432907
-0.0430763
-0.0426315
-0.0419554
-0.041049
-0.0399151
-0.038559
-0.036989
-0.0352166
-0.0332581
-0.0311345
-0.028873
-0.0265071
-0.0240772
-0.0216302
-0.0192185
-0.016898
-0.0147254
-0.0127544
-0.0110314
-0.00959135
-0.00845434
-0.00762319
-0.00708349
-0.00680549
-0.00674789
-0.00686273
-0.00710048
-0.00741452
-0.00776416
-0.00811514
-0.00844037
-0.00873311
-0.00900025
-0.00362415
-0.00385381
-0.00401451
-0.00413839
-0.00425209
-0.00436369
-0.00448069
-0.0046108
-0.00476085
-0.00493701
-0.00514518
-0.00539132
-0.00568158
-0.00602257
-0.00642139
-0.00688573
-0.00742379
-0.00804415
-0.00875562
-0.00956689
-0.0104862
-0.0115208
-0.0126766
-0.0139575
-0.0153651
-0.016898
-0.0185515
-0.0203172
-0.0221833
-0.0241342
-0.026151
-0.0282122
-0.0302935
-0.0323695
-0.0344137
-0.0363996
-0.0383013
-0.0400942
-0.0417555
-0.0432646
-0.044603
-0.0457549
-0.0467068
-0.0474475
-0.047968
-0.0482608
-0.0483205
-0.0481431
-0.0477257
-0.047067
-0.0461667
-0.0450261
-0.0436483
-0.0420389
-0.0402062
-0.0381625
-0.0359249
-0.0335167
-0.0309679
-0.0283166
-0.0256088
-0.0228986
-0.0202465
-0.0177171
-0.015375
-0.0132802
-0.0114826
-0.010017
-0.00889909
-0.00812355
-0.00766502
-0.00748153
-0.00752002
-0.00772269
-0.00803313
-0.00840085
-0.00878276
-0.00914458
-0.00947708
-0.0097878
-0.00420577
-0.00443311
-0.00459367
-0.00471963
-0.00483776
-0.00495647
-0.00508359
-0.00522713
-0.00539422
-0.0055914
-0.00582501
-0.00610151
-0.00642769
-0.00681086
-0.00725895
-0.00778054
-0.0083848
-0.00908128
-0.00987974
-0.0107897
-0.0118202
-0.0129788
-0.0142717
-0.0157027
-0.0172726
-0.0189789
-0.0208155
-0.0227721
-0.0248345
-0.0269846
-0.0292008
-0.0314588
-0.0337317
-0.0359918
-0.0382105
-0.0403596
-0.0424121
-0.0443428
-0.0461287
-0.0477492
-0.0491865
-0.0504256