/*--------------------------------*- C++ -*----------------------------------*\
  =========                 |
  \\      /  F ield         | OpenFOAM: The Open Source CFD Toolbox
   \\    /   O peration     | Website:  https://openfoam.org
    \\  /    A nd           | Version:  7
     \\/     M anipulation  |
\*---------------------------------------------------------------------------*/
FoamFile
{
    version     2.0;
    format      ascii;
    class       surfaceScalarField;
    location    "1";
    object      phi;
}
// * * * * * * * * * * * * * * * * * * * * * * * * * * * * * * * * * * * * * //

dimensions      [0 3 -1 0 0 0 0];

internalField   nonuniform List<scalar> 
12640
(
2.7441e-10
-2.74407e-10
6.44652e-10
-3.70262e-10
8.29726e-10
-1.85072e-10
7.18729e-10
1.10997e-10
2.87115e-10
4.31625e-10
-4.47373e-10
7.34476e-10
-1.44822e-09
1.00083e-09
-2.67309e-09
1.22486e-09
-4.08099e-09
1.40788e-09
-5.63578e-09
1.5548e-09
-7.30778e-09
1.672e-09
-9.074e-09
1.76622e-09
-1.09178e-08
1.84383e-09
-1.28282e-08
1.91039e-09
-1.47987e-08
1.9704e-09
-1.6826e-08
2.0273e-09
-1.89093e-08
2.0834e-09
-2.10494e-08
2.14e-09
-2.32468e-08
2.19746e-09
-2.55021e-08
2.25526e-09
-2.78142e-08
2.31216e-09
-3.01805e-08
2.36628e-09
-3.25958e-08
2.41525e-09
-3.50521e-08
2.45626e-09
-3.75382e-08
2.48619e-09
-4.00399e-08
2.50167e-09
-4.25392e-08
2.49923e-09
-4.50145e-08
2.47533e-09
-4.7441e-08
2.42646e-09
-4.97902e-08
2.34927e-09
-5.20309e-08
2.24065e-09
-5.41288e-08
2.09787e-09
-5.60474e-08
1.91867e-09
-5.77488e-08
1.7014e-09
-5.9194e-08
1.44515e-09
-6.03438e-08
1.14985e-09
-6.11602e-08
8.16416e-10
-6.16071e-08
4.46855e-10
-6.16515e-08
4.44271e-11
-6.12644e-08
-3.87059e-10
-6.04228e-08
-8.41588e-10
-5.91102e-08
-1.31259e-09
-5.73179e-08
-1.7923e-09
-5.50459e-08
-2.272e-09
-5.23037e-08
-2.74219e-09
-4.91109e-08
-3.19284e-09
-4.54972e-08
-3.6137e-09
-4.15026e-08
-3.99459e-09
-3.71768e-08
-4.32578e-09
-3.25785e-08
-4.59833e-09
-2.7774e-08
-4.80445e-09
-2.28362e-08
-4.93785e-09
-1.78422e-08
-4.99398e-09
-1.28718e-08
-4.97032e-09
-8.00538e-09
-4.86647e-09
-3.32115e-09
-4.68423e-09
1.10642e-09
-4.42757e-09
5.20894e-09
-4.10252e-09
8.9257e-09
-3.71675e-09
1.22053e-08
-3.27959e-09
1.50067e-08
-2.8014e-09
1.72999e-08
-2.29325e-09
1.90664e-08
-1.76652e-09
2.02989e-08
-1.23247e-09
2.10009e-08
-7.01946e-10
2.11859e-08
-1.85081e-10
2.08771e-08
3.08817e-10
2.01058e-08
7.71276e-10
1.89114e-08
1.19447e-09
1.73405e-08
1.57084e-09
1.5448e-08
1.8925e-09
1.32976e-08
2.15039e-09
1.09645e-08
2.33309e-09
8.53913e-09
2.42541e-09
6.13248e-09
2.40665e-09
3.88292e-09
2.24956e-09
1.96133e-09
1.92161e-09
5.71254e-10
1.39009e-09
-7.95799e-11
6.50833e-10
-7.95656e-11
3.7392e-10
-6.4834e-10
6.74343e-10
-6.70641e-10
4.81583e-10
7.65864e-12
-3.97356e-10
9.89952e-10
-2.02958e-09
2.06384e-09
-4.39544e-09
3.10034e-09
-7.42911e-09
4.03452e-09
-1.10448e-08
4.84058e-09
-1.51532e-08
5.51624e-09
-1.96708e-08
6.07242e-09
-2.45257e-08
6.52685e-09
-2.96592e-08
6.89976e-09
-3.50264e-08
7.21109e-09
-4.05949e-08
7.47888e-09
-4.63428e-08
7.71821e-09
-5.22562e-08
7.94071e-09
-5.83272e-08
8.1544e-09
-6.45511e-08
8.36387e-09
-7.0924e-08
8.57038e-09
-7.74409e-08
8.7722e-09
-8.40938e-08
8.96502e-09
-9.08698e-08
9.14227e-09
-9.775e-08
9.29553e-09
-1.04709e-07
9.41484e-09
-1.11712e-07
9.48911e-09
-1.18716e-07
9.50646e-09
-1.25672e-07
9.45458e-09
-1.32517e-07
9.32103e-09
-1.39185e-07
9.09362e-09
-1.45596e-07
8.76086e-09
-1.51668e-07
8.31226e-09
-1.57309e-07
7.73882e-09
-1.62423e-07
7.03339e-09
-1.66913e-07
6.19114e-09
-1.70678e-07
5.20996e-09
-1.73619e-07
4.09087e-09
-1.75641e-07
2.83836e-09
-1.76655e-07
1.46058e-09
-1.76581e-07
-2.88744e-11
-1.75351e-07
-1.61707e-09
-1.72913e-07
-3.28039e-09
-1.69229e-07
-4.99587e-09
-1.64286e-07
-6.73571e-09
-1.58089e-07
-8.46915e-09
-1.50668e-07
-1.01631e-08
-1.42078e-07
-1.17829e-08
-1.32398e-07
-1.32933e-08
-1.21733e-07
-1.46596e-08
-1.1021e-07
-1.58487e-08
-9.79781e-08
-1.68303e-08
-8.52045e-08
-1.7578e-08
-7.2072e-08
-1.80704e-08
-5.8774e-08
-1.8292e-08
-4.55106e-08
-1.82338e-08
-3.2483e-08
-1.7894e-08
-1.9889e-08
-1.72783e-08
-7.91741e-09
-1.63992e-08
3.25636e-09
-1.52763e-08
1.34749e-08
-1.39353e-08
2.26023e-08
-1.2407e-08
3.05273e-08
-1.07264e-08
3.71651e-08
-8.93107e-09
4.2459e-08
-7.06038e-09
4.63802e-08
-5.15373e-09
4.8928e-08
-3.24972e-09
5.01282e-08
-1.38526e-09
5.00321e-08
4.04915e-10
4.8715e-08
2.08835e-09
4.62752e-08
3.6343e-09
4.28333e-08
5.01271e-09
3.85333e-08
6.19255e-09
3.35442e-08
7.13949e-09
2.80642e-08
7.81312e-09
2.23257e-08
8.1639e-09
1.66016e-08
8.13082e-09
1.1209e-08
7.64212e-09
6.50651e-09
6.62413e-09
2.87292e-09
5.02368e-09
6.49643e-10
2.87414e-09
5.70068e-10
1.95281e-10
-8.43618e-10
-1.47634e-11
-4.60584e-10
-1.03945e-09
1.03235e-09
-3.09038e-09
3.04088e-09
-6.23101e-09
5.20444e-09
-1.04334e-08
7.30274e-09
-1.56133e-08
9.21436e-09
-2.16585e-08
1.08858e-08
-2.84492e-08
1.2307e-08
-3.5871e-08
1.34942e-08
-4.38225e-08
1.44783e-08
-5.22188e-08
1.52961e-08
-6.0993e-08
1.59852e-08
-7.00943e-08
1.65802e-08
-7.94864e-08
1.71104e-08
-8.91443e-08
1.75986e-08
-9.90507e-08
1.80608e-08
-1.09193e-07
1.8506e-08
-1.19559e-07
1.89365e-08
-1.30136e-07
1.93488e-08
-1.40904e-07
1.97339e-08
-1.5184e-07
2.0078e-08
-1.62908e-07
2.03638e-08
-1.74064e-07
2.05706e-08
-1.85251e-07
2.06755e-08
-1.96398e-07
2.0654e-08
-2.07424e-07
2.04808e-08
-2.18234e-07
2.01304e-08
-2.28718e-07
1.95783e-08
-2.38759e-07
1.88012e-08
-2.48225e-07
1.77786e-08
-2.56979e-07
1.64929e-08
-2.64877e-07
1.49308e-08
-2.7177e-07
1.3084e-08
-2.7751e-07
1.09499e-08
-2.81951e-07
8.53253e-09
-2.84956e-07
5.84295e-09
-2.86395e-07
2.9001e-09
-2.86156e-07
-2.68502e-10
-2.84143e-07
-3.63006e-09
-2.80283e-07
-7.13959e-09
-2.74532e-07
-1.07473e-08
-2.66871e-07
-1.43962e-08
-2.57317e-07
-1.80234e-08
-2.45919e-07
-2.15617e-08
-2.3276e-07
-2.49413e-08
-2.17962e-07
-2.80913e-08
-2.01679e-07
-3.09423e-08
-1.841e-07
-3.34282e-08
-1.65442e-07
-3.54885e-08
-1.45949e-07
-3.70704e-08
-1.25889e-07
-3.81309e-08
-1.05542e-07
-3.86387e-08
-8.5201e-08
-3.85751e-08
-6.51595e-08
-3.79355e-08
-4.57081e-08
-3.67296e-08
-2.71261e-08
-3.49812e-08
-9.67477e-09
-3.27276e-08
6.40872e-09
-3.00188e-08
2.09168e-08
-2.6915e-08
3.36758e-08
-2.34854e-08
4.45498e-08
-1.98051e-08
5.34426e-08
-1.59532e-08
6.02991e-08
-1.20102e-08
6.51053e-08
-8.05592e-09
6.78877e-08
-4.16761e-09
6.87118e-08
-4.19244e-10
6.76811e-08
3.11905e-09
6.49354e-08
6.38001e-09
6.06504e-08
9.29779e-09
5.50378e-08
1.18051e-08
4.83475e-08
1.38297e-08
4.08703e-08
1.52903e-08
3.29418e-08
1.60925e-08
2.49455e-08
1.61271e-08
1.73132e-08
1.52744e-08
1.05178e-08
1.34196e-08
5.05263e-09
1.04888e-08
1.39682e-09
6.52995e-09
1.96688e-09
-1.23409e-10
-7.20233e-10
-1.09864e-09
5.14686e-10
-3.26637e-09
3.20008e-09
-6.78452e-09
6.55903e-09
-1.16876e-08
1.01075e-08
-1.79234e-08
1.35385e-08
-2.53854e-08
1.66764e-08
-3.39394e-08
1.94398e-08
-4.34433e-08
2.18108e-08
-5.37607e-08
2.38117e-08
-6.47696e-08
2.54872e-08
-7.63667e-08
2.68932e-08
-8.84684e-08
2.80869e-08
-1.0101e-07
2.9122e-08
-1.13944e-07
3.0044e-08
-1.27234e-07
3.08887e-08
-1.40854e-07
3.16811e-08
-1.54783e-07
3.2435e-08
-1.69001e-07
3.31538e-08
-1.83483e-07
3.38309e-08
-1.982e-07
3.44511e-08
-2.13114e-07
3.49916e-08
-2.28173e-07
3.54231e-08
-2.43314e-07
3.57115e-08
-2.58457e-07
3.58187e-08
-2.73507e-07
3.57044e-08
-2.88353e-07
3.53267e-08
-3.02867e-07
3.46443e-08
-3.16906e-07
3.3617e-08
-3.30313e-07
3.22078e-08
-3.42918e-07
3.03838e-08
-3.54543e-07
2.8118e-08
-3.65002e-07
2.53904e-08
-3.74108e-07
2.21894e-08
-3.81671e-07
1.85133e-08
-3.8751e-07
1.43712e-08
-3.91451e-07
9.78407e-09
-3.93336e-07
4.78536e-09
-3.93027e-07
-5.78128e-10
-3.90407e-07
-6.24913e-09
-3.85393e-07
-1.21541e-08
-3.7793e-07
-1.821e-08
-3.68003e-07
-2.43233e-08
-3.55635e-07
-3.03913e-08
-3.40892e-07
-3.63052e-08
-3.23881e-07
-4.19518e-08
-3.04755e-07
-4.72173e-08
-2.83708e-07
-5.19899e-08
-2.60973e-07
-5.61632e-08
-2.36821e-07
-5.964e-08
-2.11556e-07
-6.23352e-08
-1.85508e-07
-6.4179e-08
-1.59027e-07
-6.51196e-08
-1.32477e-07
-6.51257e-08
-1.06225e-07
-6.41876e-08
-8.06361e-08
-6.23181e-08
-5.60645e-08
-5.95527e-08
-3.28434e-08
-5.59488e-08
-1.12787e-08
-5.15835e-08
8.35808e-09
-4.65518e-08
2.58358e-08
-4.09631e-08
4.09686e-08
-3.49378e-08
5.36192e-08
-2.86038e-08
6.37014e-08
-2.20925e-08
7.1181e-08
-1.55355e-08
7.60755e-08
-9.0621e-09
7.84534e-08
-2.79712e-09
7.84329e-08
3.13955e-09
7.61805e-08
8.6324e-09
7.19101e-08
1.35682e-08
6.58824e-08
1.78328e-08
5.84062e-08
2.1306e-08
4.98391e-08
2.38574e-08
4.05899e-08
2.53416e-08
3.11198e-08
2.55973e-08
2.19411e-08
2.44531e-08
1.36135e-08
2.17472e-08
6.73711e-09
1.73653e-08
1.9518e-09
1.13152e-08
3.91867e-09
-5.05524e-10
-2.14709e-10
-2.40948e-09
2.41865e-09
-5.92418e-09
6.71476e-09
-1.1126e-08
1.17608e-08
-1.79926e-08
1.69741e-08
-2.64314e-08
2.19774e-08
-3.6306e-08
2.6551e-08
-4.74584e-08
3.05922e-08
-5.97267e-08
3.40791e-08
-7.29574e-08
3.70424e-08
-8.70135e-08
3.95434e-08
-1.01779e-07
4.16582e-08
-1.17158e-07
4.3466e-08
-1.33076e-07
4.50404e-08
-1.49477e-07
4.64448e-08
-1.66317e-07
4.77287e-08
-1.83562e-07
4.89262e-08
-2.01183e-07
5.00561e-08
-2.19151e-07
5.11218e-08
-2.37433e-07
5.21127e-08
-2.55987e-07
5.30057e-08
-2.74762e-07
5.37666e-08
-2.93691e-07
5.43521e-08
-3.12692e-07
5.47118e-08
-3.31663e-07
5.47898e-08
-3.50485e-07
5.45267e-08
-3.6902e-07
5.38618e-08
-3.87111e-07
5.27349e-08
-4.04582e-07
5.10885e-08
-4.21244e-07
4.88696e-08
-4.36892e-07
4.6032e-08
-4.51312e-07
4.25383e-08
-4.64284e-07
3.83619e-08
-4.75583e-07
3.34888e-08
-4.8499e-07
2.79194e-08
-4.92288e-07
2.16701e-08
-4.97279e-07
1.47744e-08
-4.99777e-07
7.28366e-09
-4.99624e-07
-7.31612e-10
-4.96687e-07
-9.18624e-09
-4.90868e-07
-1.79721e-08
-4.8211e-07
-2.69684e-08
-4.70394e-07
-3.60391e-08
-4.55749e-07
-4.50364e-08
-4.38251e-07
-5.38035e-08
-4.18024e-07
-6.21785e-08
-3.95243e-07
-6.99983e-08
-3.7013e-07
-7.71028e-08
-3.42954e-07
-8.33399e-08
-3.14024e-07
-8.85697e-08
-2.8369e-07
-9.26696e-08
-2.5233e-07
-9.5538e-08
-2.20352e-07
-9.70986e-08
-1.88174e-07
-9.7303e-08
-1.56228e-07
-9.61336e-08
-1.24942e-07
-9.36043e-08
-9.47334e-08
-8.97613e-08
-6.60006e-08
-8.46816e-08
-3.91125e-08
-7.84716e-08
-1.4401e-08
-7.12633e-08
7.84652e-09
-6.32106e-08
2.73936e-08
-5.44849e-08
4.4059e-08
-4.52693e-08
5.77208e-08
-3.57543e-08
6.83178e-08
-2.61325e-08
7.58504e-08
-1.65947e-08
8.03805e-08
-7.32722e-09
8.20301e-08
1.48996e-09
8.098e-08
9.68252e-09
7.74684e-08
1.70799e-08
7.17897e-08
2.35114e-08
6.42944e-08
2.88014e-08
5.53885e-08
3.27633e-08
4.55345e-08
3.51956e-08
3.52516e-08
3.58802e-08
2.51165e-08
3.45881e-08
1.57657e-08
3.1098e-08
7.90227e-09
2.52287e-08
2.3209e-09
1.68966e-08
6.23959e-09
-9.18002e-10
7.03289e-10
-3.84475e-09
5.3454e-09
-8.84247e-09
1.17125e-08
-1.58821e-08
1.88004e-08
-2.48652e-08
2.59572e-08
-3.56449e-08
3.27571e-08
-4.80461e-08
3.89522e-08
-6.1883e-08
4.44291e-08
-7.69734e-08
4.91694e-08
-9.31484e-08
5.32174e-08
-1.10259e-07
5.66543e-08
-1.28181e-07
5.95794e-08
-1.4681e-07
6.20951e-08
-1.66066e-07
6.42966e-08
-1.85887e-07
6.62656e-08
-2.06223e-07
6.80656e-08
-2.27037e-07
6.97399e-08
-2.48292e-07
7.13113e-08
-2.69953e-07
7.27823e-08
-2.91977e-07
7.4137e-08
-3.14314e-07
7.53423e-08
-3.36898e-07
7.63507e-08
-3.59648e-07
7.71025e-08
-3.82465e-07
7.75284e-08
-4.05227e-07
7.75519e-08
-4.27793e-07
7.70924e-08
-4.49999e-07
7.60678e-08
-4.71661e-07
7.43969e-08
-4.92575e-07
7.20029e-08
-5.12521e-07
6.88155e-08
-5.31263e-07
6.47741e-08
-5.48556e-07
5.98307e-08
-5.64146e-07
5.3952e-08
-5.77779e-07
4.71222e-08
-5.89205e-07
3.93452e-08
-5.98181e-07
3.06461e-08
-6.0448e-07
2.10732e-08
-6.07895e-07
1.06984e-08
-6.08246e-07
-3.80259e-10
-6.05384e-07
-1.20484e-08
-5.99198e-07
-2.41577e-08
-5.8962e-07
-3.65465e-08
-5.76627e-07
-4.90322e-08
-5.60246e-07
-6.14174e-08
-5.40557e-07
-7.34929e-08
-5.17692e-07
-8.5043e-08
-4.9184e-07
-9.58505e-08
-4.63241e-07
-1.05702e-07
-4.32187e-07
-1.14394e-07
-3.99017e-07
-1.21739e-07
-3.64116e-07
-1.27571e-07
-3.27904e-07
-1.31751e-07
-2.90829e-07
-1.34173e-07
-2.53365e-07
-1.34767e-07
-2.15995e-07
-1.33504e-07
-1.79206e-07
-1.30394e-07
-1.43475e-07
-1.25492e-07
-1.09263e-07
-1.18894e-07
-7.70009e-08
-1.10734e-07
-4.70812e-08
-1.01183e-07
-1.98493e-08
-9.04425e-08
4.40434e-09
-7.87385e-08
2.54504e-08
-6.63153e-08
4.31252e-08
-5.34291e-08
5.73342e-08
-4.03415e-08
6.80533e-08
-2.73139e-08
7.53294e-08
-1.46032e-08
7.92789e-08
-2.45958e-09
8.00872e-08
8.87426e-09
7.80059e-08
1.91611e-08
7.33518e-08
2.81655e-08
6.65047e-08
3.56485e-08
5.79066e-08
4.13614e-08
4.80619e-08
4.50404e-08
3.75376e-08
4.64045e-08
2.69668e-08
4.51589e-08
1.70566e-08
4.10083e-08
8.60494e-09
3.36804e-08
2.53736e-09
2.29642e-08
8.77696e-09
-1.34506e-09
2.04835e-09
-5.34944e-09
9.3498e-09
-1.19181e-08
1.82811e-08
-2.09023e-08
2.77847e-08
-3.21143e-08
3.71692e-08
-4.53419e-08
4.59847e-08
-6.03632e-08
5.39735e-08
-7.696e-08
6.10259e-08
-9.49277e-08
6.71371e-08
-1.14083e-07
7.23722e-08
-1.34266e-07
7.68378e-08
-1.55346e-07
8.06593e-08
-1.77216e-07
8.39649e-08
-1.99792e-07
8.68729e-08
-2.2301e-07
8.94836e-08
-2.46819e-07
9.18746e-08
-2.71177e-07
9.4098e-08
-2.96045e-07
9.61795e-08
-3.21383e-07
9.81196e-08
-3.47141e-07
9.9895e-08
-3.73259e-07
1.01461e-07
-3.99663e-07
1.02754e-07
-4.26257e-07
1.03697e-07
-4.52925e-07
1.04197e-07
-4.7953e-07
1.04156e-07
-5.05907e-07
1.0347e-07
-5.31871e-07
1.02032e-07
-5.57213e-07
9.97388e-08
-5.81702e-07
9.64921e-08
-6.0509e-07
9.22033e-08
-6.27112e-07
8.67964e-08
-6.47494e-07
8.0212e-08
-6.65952e-07
7.24102e-08
-6.82203e-07
6.33737e-08
-6.95968e-07
5.31103e-08
-7.06978e-07
4.16554e-08
-7.14978e-07
2.90732e-08
-7.19737e-07
1.54577e-08
-7.21053e-07
9.35948e-10
-7.18757e-07
-1.43445e-08
-7.1272e-07
-3.01948e-08
-7.02858e-07
-4.64084e-08
-6.89137e-07
-6.27537e-08
-6.71574e-07
-7.89798e-08
-6.50245e-07
-9.48218e-08
-6.25282e-07
-1.10006e-07
-5.96877e-07
-1.24256e-07
-5.65279e-07
-1.373e-07
-5.30795e-07
-1.48878e-07
-4.93785e-07
-1.58748e-07
-4.5466e-07
-1.66696e-07
-4.13873e-07
-1.72538e-07
-3.71913e-07
-1.76132e-07
-3.29299e-07
-1.77381e-07
-2.86566e-07
-1.76237e-07
-2.44257e-07
-1.72703e-07
-2.02911e-07
-1.66838e-07
-1.63051e-07
-1.58753e-07
-1.25174e-07
-1.48611e-07
-8.97362e-08
-1.36621e-07
-5.71466e-08
-1.23032e-07
-2.77556e-08
-1.0813e-07
-1.84701e-09
-9.22239e-08
2.03673e-08
-7.56434e-08
3.8752e-08
-5.87262e-08
5.32509e-08
-4.18128e-08
6.3888e-08
-2.52404e-08
7.07669e-08
-9.33846e-09
7.40691e-08
5.57211e-09
7.40518e-08
1.91784e-08
7.10455e-08
3.11718e-08
6.54516e-08
4.12424e-08
5.77408e-08
4.90722e-08
4.84522e-08
5.4329e-08
3.81954e-08
5.66613e-08
2.76552e-08
5.56992e-08
1.76033e-08
5.10602e-08
8.92024e-09
4.23634e-08
2.63397e-09
2.92505e-08
1.14109e-08
-1.7792e-09
3.82755e-09
-6.89381e-09
1.44644e-08
-1.50896e-08
2.6477e-08
-2.6091e-08
3.8786e-08
-3.96118e-08
5.06899e-08
-5.53664e-08
6.17393e-08
-7.30803e-08
7.16874e-08
-9.24983e-08
8.04439e-08
-1.13391e-07
8.80303e-08
-1.35561e-07
9.45416e-08
-1.58839e-07
1.00116e-07
-1.8309e-07
1.0491e-07
-2.08206e-07
1.09081e-07
-2.34103e-07
1.1277e-07
-2.60718e-07
1.16099e-07
-2.88001e-07
1.19158e-07
-3.1591e-07
1.22007e-07
-3.44406e-07
1.24676e-07
-3.73445e-07
1.27159e-07
-4.02975e-07
1.29425e-07
-4.32929e-07
1.31415e-07
-4.63223e-07
1.33048e-07
-4.9375e-07
1.34224e-07
-5.24381e-07
1.34828e-07
-5.5496e-07
1.34736e-07
-5.85307e-07
1.33817e-07
-6.15214e-07
1.31939e-07
-6.44449e-07
1.28973e-07
-6.72756e-07
1.24799e-07
-6.99861e-07
1.19308e-07
-7.25471e-07
1.12407e-07
-7.49284e-07
1.04025e-07
-7.70987e-07
9.41138e-08
-7.90269e-07
8.26555e-08
-8.06821e-07
6.96618e-08
-8.20343e-07
5.5178e-08
-8.30555e-07
3.92849e-08
-8.37197e-07
2.20999e-08
-8.40039e-07
3.77729e-09
-8.38887e-07
-1.54961e-08
-8.33588e-07
-3.54941e-08
-8.24034e-07
-5.59619e-08
-8.10172e-07
-7.66162e-08
-7.92001e-07
-9.71506e-08
-7.69582e-07
-1.17241e-07
-7.43038e-07
-1.36551e-07
-7.12553e-07
-1.54741e-07
-6.78378e-07
-1.71475e-07
-6.40825e-07
-1.86431e-07
-6.00269e-07
-1.99305e-07
-5.57139e-07
-2.09826e-07
-5.11917e-07
-2.17759e-07
-4.65131e-07
-2.22919e-07
-4.1734e-07
-2.25171e-07
-3.69134e-07
-2.24443e-07
-3.21113e-07
-2.20724e-07
-2.7388e-07
-2.14071e-07
-2.28027e-07
-2.04606e-07
-1.84122e-07
-1.92516e-07
-1.42694e-07
-1.78049e-07
-1.04223e-07
-1.61504e-07
-6.91261e-08
-1.43226e-07
-3.7752e-08
-1.23598e-07
-1.03693e-08
-1.03026e-07
1.28378e-08
-8.19333e-08
3.17731e-08
-6.07481e-08
4.643e-08
-3.98973e-08
5.68918e-08
-1.98002e-08
6.33297e-08
-8.65771e-10
6.60002e-08
1.65079e-08
6.52421e-08
3.19299e-08
6.14734e-08
4.50111e-08
5.51889e-08
5.53568e-08
4.69594e-08
6.25584e-08
3.74339e-08
6.61868e-08
2.73455e-08
6.57876e-08
1.75246e-08
6.08811e-08
8.92087e-09
5.09671e-08
2.63863e-09
3.55327e-08
1.40496e-08
-2.21727e-09
6.04482e-09
-8.46173e-09
2.07089e-08
-1.83203e-08
3.63355e-08
-3.13864e-08
5.18521e-08
-4.72704e-08
6.65739e-08
-6.56079e-08
8.00769e-08
-8.60671e-08
9.21465e-08
-1.08353e-07
1.0273e-07
-1.3221e-07
1.11888e-07
-1.57425e-07
1.19756e-07
-1.83822e-07
1.26513e-07
-2.11263e-07
1.32351e-07
-2.3964e-07
1.37458e-07
-2.68874e-07
1.42004e-07
-2.98906e-07
1.4613e-07
-3.29689e-07
1.49941e-07
-3.61186e-07
1.53504e-07
-3.93359e-07
1.56849e-07
-4.26165e-07
1.59965e-07
-4.5955e-07
1.6281e-07
-4.93443e-07
1.65308e-07
-5.27754e-07
1.67358e-07
-5.62366e-07
1.68836e-07
-5.97139e-07
1.69601e-07
-6.31904e-07
1.695e-07
-6.6646e-07
1.68373e-07
-7.00583e-07
1.66061e-07
-7.34017e-07
1.62408e-07
-7.66484e-07
1.57267e-07
-7.97684e-07
1.50508e-07
-8.27298e-07
1.42021e-07
-8.54993e-07
1.3172e-07
-8.8043e-07
1.19551e-07
-9.03265e-07
1.05491e-07
-9.23158e-07
8.9555e-08
-9.39779e-07
7.17989e-08
-9.52813e-07
5.23192e-08
-9.61969e-07
3.12554e-08
-9.66983e-07
8.79085e-09
-9.67628e-07
-1.48508e-08
-9.63718e-07
-3.94036e-08
-9.55116e-07
-6.45641e-08
-9.41736e-07
-8.9996e-08
-9.23552e-07
-1.15335e-07
-9.006e-07
-1.40193e-07
-8.7298e-07
-1.6417e-07
-8.40865e-07
-1.86856e-07
-8.04494e-07
-2.07846e-07
-7.64177e-07
-2.26747e-07
-7.20296e-07
-2.43187e-07
-6.73294e-07
-2.56827e-07
-6.23678e-07
-2.67375e-07
-5.72009e-07
-2.74588e-07
-5.18892e-07
-2.78288e-07
-4.64969e-07
-2.78367e-07
-4.10902e-07
-2.74791e-07
-3.57366e-07
-2.67607e-07
-3.05027e-07
-2.56945e-07
-2.54533e-07
-2.4301e-07
-2.06497e-07
-2.26085e-07
-1.61479e-07
-2.06522e-07
-1.19977e-07
-1.84728e-07
-8.24134e-08
-1.61161e-07
-4.9125e-08
-1.36315e-07
-2.03553e-08
-1.10703e-07
3.75012e-09
-8.48535e-08
2.31462e-08
-5.92933e-08
3.78885e-08
-3.45426e-08
4.81318e-08
-1.11091e-08
5.41271e-08
1.05126e-08
5.62174e-08
2.98396e-08
5.48343e-08
4.63941e-08
5.04949e-08
5.96962e-08
4.38002e-08
6.92531e-08
3.54372e-08
7.45498e-08
2.61848e-08
7.504e-08
1.69261e-08
7.01398e-08
8.66866e-09
5.92245e-08
2.57313e-09
4.16282e-08
1.66227e-08
-2.65793e-09
8.70275e-09
-1.00441e-08
2.8095e-08
-2.15869e-08
4.78784e-08
-3.67472e-08
6.70124e-08
-5.50288e-08
8.48555e-08
-7.59856e-08
1.01034e-07
-9.92256e-08
1.15386e-07
-1.24412e-07
1.27916e-07
-1.51263e-07
1.38739e-07
-1.79549e-07
1.48042e-07
-2.09088e-07
1.56052e-07
-2.39741e-07
1.63004e-07
-2.71405e-07
1.69122e-07
-3.04006e-07
1.74605e-07
-3.37492e-07
1.79616e-07
-3.71824e-07
1.84274e-07
-4.06972e-07
1.88652e-07
-4.42902e-07
1.92779e-07
-4.79576e-07
1.96639e-07
-5.1694e-07
2.00174e-07
-5.54923e-07
2.03291e-07
-5.93429e-07
2.05864e-07
-6.32336e-07
2.07743e-07
-6.71493e-07
2.08758e-07
-7.10718e-07
2.08724e-07
-7.49796e-07
2.07452e-07
-7.88483e-07
2.04748e-07
-8.26504e-07
2.00429e-07
-8.63557e-07
1.9432e-07
-8.99318e-07
1.86268e-07
-9.33439e-07
1.76142e-07
-9.65559e-07
1.6384e-07
-9.95307e-07
1.49299e-07
-1.02231e-06
1.3249e-07
-1.04618e-06
1.13432e-07
-1.06657e-06
9.2186e-08
-1.08312e-06
6.88645e-08
-1.09549e-06
4.3628e-08
-1.10338e-06
1.66874e-08
-1.10654e-06
-1.16976e-08
-1.10472e-06
-4.12215e-08
-1.09775e-06
-7.15317e-08
-1.08551e-06
-1.02238e-07
-1.06793e-06
-1.32915e-07
-1.04501e-06
-1.63111e-07
-1.01683e-06
-1.92354e-07
-9.83522e-07
-2.20162e-07
-9.45317e-07
-2.46051e-07
-9.02513e-07
-2.6955e-07
-8.55489e-07
-2.90211e-07
-8.04699e-07
-3.07618e-07
-7.50669e-07
-3.21405e-07
-6.93991e-07
-3.31266e-07
-6.35316e-07
-3.36963e-07
-5.7534e-07
-3.38343e-07
-5.14794e-07
-3.35337e-07
-4.54427e-07
-3.27974e-07
-3.94992e-07
-3.16379e-07
-3.37228e-07
-3.00774e-07
-2.8184e-07
-2.81473e-07
-2.29487e-07
-2.58875e-07
-1.80758e-07
-2.33457e-07
-1.36165e-07
-2.05755e-07
-9.61245e-08
-1.76355e-07
-6.09531e-08
-1.45874e-07
-3.08566e-08
-1.1495e-07
-5.92846e-09
-8.42215e-08
1.38514e-08
-5.43224e-08
2.8615e-08
-2.58727e-08
3.86029e-08
5.24686e-10
4.41596e-08
2.42829e-08
4.57285e-08
4.48253e-08
4.3848e-08
6.15766e-08
3.91495e-08
7.39516e-08
3.23576e-08
8.13417e-08
2.42954e-08
8.31022e-08
1.58949e-08
7.85402e-08
8.21323e-09
6.69062e-08
2.45394e-09
4.73875e-08
1.90766e-08
-3.10049e-09
1.18032e-08
-1.1635e-08
3.66295e-08
-2.48737e-08
6.11171e-08
-4.21439e-08
8.42827e-08
-6.28418e-08
1.05553e-07
-8.64379e-08
1.2463e-07
-1.12479e-07
1.41428e-07
-1.40586e-07
1.56023e-07
-1.7045e-07
1.68603e-07
-2.01827e-07
1.79419e-07
-2.3453e-07
1.88755e-07
-2.6842e-07
1.96894e-07
-3.03402e-07
2.04104e-07
-3.3941e-07
2.10613e-07
-3.76403e-07
2.16609e-07
-4.14353e-07
2.22223e-07
-4.53238e-07
2.27537e-07
-4.93034e-07
2.32576e-07
-5.33709e-07
2.37314e-07
-5.75213e-07
2.41678e-07
-6.17476e-07
2.45553e-07
-6.60401e-07
2.48788e-07
-7.0386e-07
2.51203e-07
-7.47695e-07
2.52593e-07
-7.91712e-07
2.52741e-07
-8.35683e-07
2.51422e-07
-8.79345e-07
2.48411e-07
-9.22405e-07
2.43488e-07
-9.64537e-07
2.36452e-07
-1.00539e-06
2.27121e-07
-1.04459e-06
2.1534e-07
-1.08174e-06
2.00993e-07
-1.11644e-06
1.84e-07
-1.14828e-06
1.64328e-07
-1.17684e-06
1.41993e-07
-1.20172e-06
1.17063e-07
-1.22252e-06
8.9661e-08
-1.23886e-06
5.99675e-08
-1.25039e-06
2.82194e-08
-1.2568e-06
-5.28877e-09
-1.2578e-06
-4.02146e-08
-1.25318e-06
-7.61543e-08
-1.24275e-06
-1.12664e-07
-1.22641e-06
-1.49257e-07
-1.20411e-06
-1.85412e-07
-1.17588e-06
-2.20583e-07
-1.14184e-06
-2.54209e-07
-1.10217e-06
-2.85722e-07
-1.05715e-06
-3.14564e-07
-1.00716e-06
-3.40199e-07
-9.52658e-07
-3.62124e-07
-8.94175e-07
-3.79887e-07
-8.32338e-07
-3.93103e-07
-7.67837e-07
-4.01464e-07
-7.01428e-07
-4.04752e-07
-6.33911e-07
-4.02854e-07
-5.6612e-07
-3.95766e-07
-4.98901e-07
-3.83598e-07
-4.33096e-07
-3.66579e-07
-3.69519e-07
-3.45049e-07
-3.08939e-07
-3.19456e-07
-2.52055e-07
-2.9034e-07
-1.99484e-07
-2.58326e-07
-1.51742e-07
-2.24097e-07
-1.0923e-07
-1.88387e-07
-7.22288e-08
-1.51951e-07
-4.08932e-08
-1.15557e-07
-1.52479e-08
-7.99678e-08
4.80923e-09
-4.59298e-08
1.95031e-08
-1.41691e-08
2.91763e-08
1.46096e-08
3.42831e-08
3.97185e-08
3.53833e-08
6.04764e-08
3.31391e-08
7.61958e-08
2.83137e-08
8.61671e-08
2.17745e-08
8.96415e-08
1.45003e-08
8.58144e-08
7.59321e-09
7.38133e-08
2.29348e-09
5.26872e-08
2.13701e-08
-3.54423e-09
1.53474e-08
-1.32296e-08
4.63149e-08
-2.81679e-08
7.60553e-08
-4.75528e-08
1.03668e-07
-7.06725e-08
1.28673e-07
-9.69142e-08
1.50872e-07
-1.25763e-07
1.70277e-07
-1.56799e-07
1.87059e-07
-1.89687e-07
2.0149e-07
-2.24168e-07
2.13901e-07
-2.60053e-07
2.2464e-07
-2.97208e-07
2.34049e-07
-3.35544e-07
2.4244e-07
-3.75008e-07
2.50078e-07
-4.15573e-07
2.57173e-07
-4.57224e-07
2.63874e-07
-4.99953e-07
2.70266e-07
-5.43747e-07
2.7637e-07
-5.88582e-07
2.82149e-07
-6.34417e-07
2.87512e-07
-6.81183e-07
2.9232e-07
-7.28785e-07
2.9639e-07
-7.77092e-07
2.9951e-07
-8.25939e-07
3.0144e-07
-8.75121e-07
3.01924e-07
-9.24399e-07
3.007e-07
-9.73492e-07
2.97504e-07
-1.02208e-06
2.92082e-07
-1.06983e-06
2.84197e-07
-1.11635e-06
2.73639e-07
-1.16124e-06
2.60228e-07
-1.20407e-06
2.43824e-07
-1.2444e-06
2.24333e-07
-1.28178e-06
2.0171e-07
-1.31576e-06
1.75967e-07
-1.34587e-06
1.47176e-07
-1.37168e-06
1.15468e-07
-1.39275e-06
8.10397e-08
-1.40868e-06
4.41523e-08
-1.4191e-06
5.13284e-09
-1.42368e-06
-3.56396e-08
-1.42212e-06
-7.77119e-08
-1.4142e-06
-1.20585e-07
-1.39975e-06
-1.6371e-07
-1.37866e-06
-2.06495e-07
-1.35093e-06
-2.48316e-07
-1.31661e-06
-2.88524e-07
-1.27587e-06
-3.26465e-07
-1.22895e-06
-3.61482e-07
-1.17621e-06
-3.92942e-07
-1.11809e-06
-4.20241e-07
-1.05515e-06
-4.42831e-07
-9.88023e-07
-4.60229e-07
-9.17448e-07
-4.7204e-07
-8.44231e-07
-4.77969e-07
-7.69248e-07
-4.77837e-07
-6.9342e-07
-4.71594e-07
-6.17697e-07
-4.59321e-07
-5.43034e-07
-4.41242e-07
-4.70369e-07
-4.17715e-07
-4.00597e-07
-3.89228e-07
-3.34547e-07
-3.5639e-07
-2.7296e-07
-3.19913e-07
-2.16469e-07
-2.80589e-07
-1.65581e-07
-2.39274e-07
-1.2067e-07
-1.96862e-07
-8.19643e-08
-1.54263e-07
-4.95464e-08
-1.12386e-07
-2.3354e-08
-7.21222e-08
-3.18417e-09
-3.4339e-08
1.13002e-08
1.25234e-10
2.05622e-08
3.04565e-08
2.51836e-08
5.5855e-08
2.58588e-08
7.55207e-08
2.33914e-08
8.86345e-08
1.86944e-08
9.43384e-08
1.27943e-08
9.17146e-08
6.83783e-09
7.97697e-08
2.10104e-09
5.7424e-08
2.34711e-08
-3.9882e-09
1.93356e-08
-1.48233e-08
5.715e-08
-3.14579e-08
9.26899e-08
-5.29525e-08
1.25162e-07
-7.8488e-08
1.54209e-07
-1.07369e-07
1.79753e-07
-1.39022e-07
2.01929e-07
-1.72984e-07
2.21021e-07
-2.08896e-07
2.37402e-07
-2.46489e-07
2.51494e-07
-2.85571e-07
2.63722e-07
-3.26015e-07
2.74493e-07
-3.67744e-07
2.84169e-07
-4.1072e-07
2.93054e-07
-4.54931e-07
3.01384e-07
-5.00379e-07
3.09323e-07
-5.47072e-07
3.16959e-07
-5.95012e-07
3.2431e-07
-6.44186e-07
3.31324e-07
-6.94562e-07
3.37888e-07
-7.46078e-07
3.43835e-07
-7.98639e-07
3.48951e-07
-8.52114e-07
3.52985e-07
-9.06332e-07
3.55657e-07
-9.61079e-07
3.56671e-07
-1.0161e-06
3.55721e-07
-1.0711e-06
3.52503e-07
-1.12574e-06
3.46723e-07
-1.17965e-06
3.38108e-07
-1.23242e-06
3.26412e-07
-1.28362e-06
3.11425e-07
-1.33278e-06
2.92984e-07
-1.37942e-06
2.70973e-07
-1.42304e-06
2.45334e-07
-1.46315e-06
2.16072e-07
-1.49923e-06
1.83257e-07
-1.53079e-06
1.47026e-07
-1.55734e-06
1.0759e-07
-1.57842e-06
6.52305e-08
-1.59359e-06
2.03032e-08
-1.60246e-06
-2.67703e-08
-1.60467e-06
-7.5497e-08
-1.59994e-06
-1.2532e-07
-1.58802e-06
-1.75625e-07
-1.56877e-06
-2.25749e-07
-1.5421e-06
-2.74986e-07
-1.50802e-06
-3.226e-07
-1.46665e-06
-3.67837e-07
-1.41819e-06
-4.09939e-07
-1.36297e-06
-4.48162e-07
-1.30142e-06
-4.81792e-07
-1.23409e-06
-5.10166e-07
-1.16162e-06
-5.32692e-07
-1.0848e-06
-5.48867e-07
-1.00447e-06
-5.58299e-07
-9.21576e-07
-5.60727e-07
-8.37139e-07
-5.5603e-07
-7.52213e-07
-5.44247e-07
-6.67878e-07
-5.25577e-07
-5.85208e-07
-5.00385e-07
-5.05244e-07
-4.69192e-07
-4.28963e-07
-4.32671e-07
-3.57254e-07
-3.91622e-07
-2.90889e-07
-3.46954e-07
-2.30505e-07
-2.99658e-07
-1.76588e-07
-2.50779e-07
-1.29461e-07
-2.0139e-07
-8.92795e-08
-1.52567e-07
-5.60338e-08
-1.05368e-07
-2.95516e-08
-6.08212e-08
-9.50705e-09
-1.99193e-08
4.56962e-09
1.63799e-08
1.32819e-08
4.71428e-08
1.73581e-08
7.14445e-08
1.7645e-08
8.83476e-08
1.51046e-08
9.68788e-08
1.0814e-08
9.60051e-08
5.96833e-09
8.46154e-08
1.88345e-09
6.15089e-08
2.53546e-08
-4.43117e-09
2.37668e-08
-1.64106e-08
6.91294e-08
-3.47314e-08
1.11011e-07
-5.83216e-08
1.48752e-07
-8.62563e-08
1.82143e-07
-1.1776e-07
2.11256e-07
-1.52199e-07
2.36369e-07
-1.89074e-07
2.57896e-07
-2.28002e-07
2.76331e-07
-2.68707e-07
2.92198e-07
-3.10997e-07
3.06012e-07
-3.54753e-07
3.18249e-07
-3.99913e-07
3.29329e-07
-4.46457e-07
3.39598e-07
-4.94392e-07
3.49319e-07
-5.43739e-07
3.5867e-07
-5.94526e-07
3.67745e-07
-6.46769e-07
3.76553e-07
-7.00472e-07
3.85027e-07
-7.55612e-07
3.93028e-07
-8.12134e-07
4.00357e-07
-8.69947e-07
4.06764e-07
-9.28919e-07
4.11957e-07
-9.88873e-07
4.15611e-07
-1.04959e-06
4.17384e-07
-1.11079e-06
4.16925e-07
-1.17217e-06
4.13883e-07
-1.23337e-06
4.0792e-07
-1.29398e-06
3.98722e-07
-1.35357e-06
3.86004e-07
-1.41167e-06
3.69524e-07
-1.46777e-06
3.49087e-07
-1.52136e-06
3.24555e-07
-1.57187e-06
2.95853e-07
-1.61877e-06
2.62972e-07
-1.6615e-06
2.25979e-07
-1.69949e-06
1.85015e-07
-1.7322e-06
1.40301e-07
-1.7591e-06
9.21371e-08
-1.77971e-06
4.0906e-08
-1.79355e-06
-1.29307e-08
-1.8002e-06
-6.88414e-08
-1.79931e-06
-1.26209e-07
-1.79058e-06
-1.84359e-07
-1.77377e-06
-2.42553e-07
-1.74876e-06
-3.00003e-07
-1.71548e-06
-3.5588e-07
-1.67399e-06
-4.09329e-07
-1.62444e-06
-4.59482e-07
-1.56713e-06
-5.05478e-07
-1.50244e-06
-5.46479e-07
-1.43091e-06
-5.81695e-07
-1.3532e-06
-6.10407e-07
-1.27008e-06
-6.31985e-07
-1.18246e-06
-6.45921e-07
-1.09134e-06
-6.51843e-07
-9.97827e-07
-6.49543e-07
-9.03086e-07
-6.38988e-07
-8.08327e-07
-6.20336e-07
-7.14774e-07
-5.93938e-07
-6.23629e-07
-5.60338e-07
-5.36039e-07
-5.2026e-07
-4.53065e-07
-4.74596e-07
-3.75647e-07
-4.24372e-07
-3.04576e-07
-3.70728e-07
-2.40478e-07
-3.14877e-07
-1.83793e-07
-2.58075e-07
-1.34772e-07
-2.01588e-07
-9.34741e-08
-1.46666e-07
-5.97695e-08
-9.45258e-08
-3.33521e-08
-4.63367e-08
-1.37497e-08
-3.22249e-09
-3.3815e-10
3.37312e-08
7.64687e-09
6.34595e-08
1.10987e-08
8.48958e-08
1.10328e-08
9.69447e-08
8.58288e-09
9.8455e-08
4.9989e-09
8.81994e-08
1.64551e-09
6.48623e-08
2.70001e-08
-4.87146e-09
2.86383e-08
-1.7985e-08
8.2243e-08
-3.79746e-08
1.31e-07
-6.36369e-08
1.74415e-07
-9.39435e-08
2.1245e-07
-1.2804e-07
2.45353e-07
-1.65238e-07
2.73567e-07
-2.05002e-07
2.97659e-07
-2.46929e-07
3.18259e-07
-2.90737e-07
3.36006e-07
-3.36237e-07
3.51512e-07
-3.83324e-07
3.65336e-07
-4.31951e-07
3.77956e-07
-4.82118e-07
3.89765e-07
-5.33854e-07
4.01055e-07
-5.87203e-07
4.1202e-07
-6.42212e-07
4.22754e-07
-6.98918e-07
4.33259e-07
-7.57339e-07
4.43447e-07
-8.17463e-07
4.53152e-07
-8.79245e-07
4.62139e-07
-9.42597e-07
4.70116e-07
-1.00739e-06
4.76745e-07
-1.07343e-06
4.81653e-07
-1.14049e-06
4.84447e-07
-1.20829e-06
4.84724e-07
-1.27649e-06
4.82083e-07
-1.34471e-06
4.76139e-07
-1.41251e-06
4.66528e-07
-1.47944e-06
4.52926e-07
-1.54496e-06
4.3505e-07
-1.60855e-06
4.12674e-07
-1.66963e-06
3.85631e-07
-1.7276e-06
3.53825e-07
-1.78186e-06
3.17233e-07
-1.83179e-06
2.75914e-07
-1.87679e-06
2.3001e-07
-1.91624e-06
1.79751e-07
-1.94956e-06
1.25454e-07
-1.97618e-06
6.75279e-08
-1.99558e-06
6.47206e-09
-2.00728e-06
-5.71452e-08
-2.01084e-06
-1.22648e-07
-2.0059e-06
-1.893e-07
-1.99216e-06
-2.56291e-07
-1.96941e-06
-3.2275e-07
-1.93754e-06
-3.87756e-07
-1.89652e-06
-4.5035e-07
-1.84645e-06
-5.0955e-07
-1.78755e-06
-5.64372e-07
-1.72019e-06
-6.13846e-07
-1.64484e-06
-6.57042e-07
-1.56215e-06
-6.93096e-07
-1.4729e-06
-7.21235e-07
-1.37801e-06
-7.40808e-07
-1.27854e-06
-7.51312e-07
-1.17567e-06
-7.52417e-07
-1.07066e-06
-7.43996e-07
-9.6486e-07
-7.26136e-07
-8.59649e-07
-6.99149e-07
-7.56405e-07
-6.63581e-07
-6.56468e-07