/*--------------------------------*- C++ -*----------------------------------*\
  =========                 |
  \\      /  F ield         | OpenFOAM: The Open Source CFD Toolbox
   \\    /   O peration     | Website:  https://openfoam.org
    \\  /    A nd           | Version:  7
     \\/     M anipulation  |
\*---------------------------------------------------------------------------*/
FoamFile
{
    version     2.0;
    format      ascii;
    class       volVectorField;
    location    "1";
    object      U;
}
// * * * * * * * * * * * * * * * * * * * * * * * * * * * * * * * * * * * * * //

dimensions      [0 1 -1 0 0 0 0];

internalField   nonuniform List<vector> 
6400
(
(1.10337e-05 -1.13468e-05 0)
(3.84018e-05 -1.67429e-05 0)
(6.28264e-05 -1.19196e-05 0)
(6.72681e-05 -3.52693e-06 0)
(4.57547e-05 5.45639e-06 0)
(-1.29058e-06 1.36673e-05 0)
(-7.13435e-05 2.06222e-05 0)
(-0.000161066 2.62386e-05 0)
(-0.000267035 3.06345e-05 0)
(-0.00038612 3.40107e-05 0)
(-0.000515666 3.65868e-05 0)
(-0.000653563 3.85756e-05 0)
(-0.000798234 4.01697e-05 0)
(-0.000948585 4.15299e-05 0)
(-0.00110393 4.27827e-05 0)
(-0.0012639 4.4021e-05 0)
(-0.00142835 4.53058e-05 0)
(-0.0015973 4.66703e-05 0)
(-0.00177081 4.81228e-05 0)
(-0.00194895 4.96488e-05 0)
(-0.0021317 5.12151e-05 0)
(-0.00231894 5.27728e-05 0)
(-0.00251034 5.42605e-05 0)
(-0.0027054 5.56057e-05 0)
(-0.00290335 5.67279e-05 0)
(-0.00310318 5.75408e-05 0)
(-0.00330359 5.79548e-05 0)
(-0.00350302 5.78778e-05 0)
(-0.00369959 5.72173e-05 0)
(-0.00389118 5.58825e-05 0)
(-0.00407539 5.37883e-05 0)
(-0.00424958 5.08571e-05 0)
(-0.00441093 4.70219e-05 0)
(-0.00455644 4.22292e-05 0)
(-0.004683 3.64432e-05 0)
(-0.0047875 2.96492e-05 0)
(-0.00486681 2.18573e-05 0)
(-0.00491795 1.31064e-05 0)
(-0.00493814 3.4668e-06 0)
(-0.00492489 -6.97893e-06 0)
(-0.00487607 -1.80814e-05 0)
(-0.00479011 -2.96762e-05 0)
(-0.00466596 -4.15671e-05 0)
(-0.00450328 -5.35285e-05 0)
(-0.00430243 -6.5311e-05 0)
(-0.00406456 -7.66479e-05 0)
(-0.00379165 -8.72643e-05 0)
(-0.0034865 -9.68848e-05 0)
(-0.0031527 -0.000105244 0)
(-0.00279461 -0.000112098 0)
(-0.00241725 -0.000117234 0)
(-0.00202621 -0.000120479 0)
(-0.00162752 -0.00012171 0)
(-0.00122751 -0.000120861 0)
(-0.000832617 -0.000117925 0)
(-0.000449209 -0.000112958 0)
(-8.34377e-05 -0.000106074 0)
(0.000258945 -9.74471e-05 0)
(0.000572746 -8.72913e-05 0)
(0.000853461 -7.58681e-05 0)
(0.00109738 -6.34628e-05 0)
(0.00130164 -5.03758e-05 0)
(0.00146431 -3.69103e-05 0)
(0.00158434 -2.33608e-05 0)
(0.0016616 -1.00033e-05 0)
(0.00169678 2.91239e-06 0)
(0.00169137 1.51662e-05 0)
(0.00164754 2.65675e-05 0)
(0.00156813 3.6948e-05 0)
(0.00145658 4.615e-05 0)
(0.00131695 5.40055e-05 0)
(0.00115394 6.03065e-05 0)
(0.000973076 6.47607e-05 0)
(0.000780908 6.69293e-05 0)
(0.000585427 6.61444e-05 0)
(0.000396584 6.14276e-05 0)
(0.0002268 5.14761e-05 0)
(9.10017e-05 3.47876e-05 0)
(6.16197e-06 1.09797e-05 0)
(-1.06434e-05 -1.06144e-05 0)
(1.66596e-05 -3.85768e-05 0)
(4.82775e-05 -4.81962e-05 0)
(5.74549e-05 -1.99356e-05 0)
(1.7352e-05 2.41602e-05 0)
(-8.26935e-05 7.23345e-05 0)
(-0.000243471 0.000118332 0)
(-0.000460896 0.000159208 0)
(-0.000728536 0.000193934 0)
(-0.00103914 0.000222577 0)
(-0.00138567 0.000245779 0)
(-0.00176182 0.000264442 0)
(-0.00216236 0.000279552 0)
(-0.00258315 0.000292051 0)
(-0.00302112 0.000302772 0)
(-0.00347413 0.000312405 0)
(-0.0039408 0.000321471 0)
(-0.00442033 0.000330328 0)
(-0.00491223 0.000339179 0)
(-0.00541621 0.000348082 0)
(-0.00593195 0.000356959 0)
(-0.00645896 0.000365622 0)
(-0.00699645 0.000373786 0)
(-0.00754315 0.000381086 0)
(-0.00809731 0.00038709 0)
(-0.00865653 0.000391316 0)
(-0.00921776 0.000393248 0)
(-0.00977727 0.000392351 0)
(-0.0103306 0.000388079 0)
(-0.0108725 0.000379895 0)
(-0.0113972 0.000367287 0)
(-0.0118983 0.000349783 0)
(-0.0123686 0.000326969 0)
(-0.0128007 0.000298508 0)
(-0.0131868 0.000264158 0)
(-0.0135189 0.000223792 0)
(-0.013789 0.000177415 0)
(-0.0139892 0.000125185 0)
(-0.0141123 6.74193e-05 0)
(-0.0141513 4.61294e-06 0)
(-0.0141003 -6.25332e-05 0)
(-0.0139544 -0.000133178 0)
(-0.0137099 -0.000206283 0)
(-0.0133649 -0.000280646 0)
(-0.0129189 -0.00035492 0)
(-0.0123734 -0.000427652 0)
(-0.0117316 -0.000497306 0)
(-0.0109991 -0.000562316 0)
(-0.0101831 -0.000621135 0)
(-0.00929288 -0.000672279 0)
(-0.00833965 -0.000714392 0)
(-0.00733608 -0.000746288 0)
(-0.00629624 -0.000767013 0)
(-0.00523526 -0.000775875 0)
(-0.00416896 -0.000772488 0)
(-0.0031135 -0.000756785 0)
(-0.00208493 -0.000729034 0)
(-0.0010988 -0.00068983 0)
(-0.000169769 -0.000640075 0)
(0.000688768 -0.000580938 0)
(0.00146502 -0.000513822 0)
(0.00214904 -0.000440301 0)
(0.00273296 -0.000362061 0)
(0.00321111 -0.00028084 0)
(0.00358005 -0.000198368 0)
(0.00383863 -0.000116318 0)
(0.00398786 -3.62667e-05 0)
(0.00403084 4.03276e-05 0)
(0.00397268 0.000112123 0)
(0.00382032 0.000177867 0)
(0.00358252 0.000236345 0)
(0.00326984 0.000286288 0)
(0.00289474 0.000326255 0)
(0.00247184 0.000354471 0)
(0.00201827 0.00036864 0)
(0.00155415 0.000365758 0)
(0.00110316 0.000342054 0)
(0.000692367 0.000293327 0)
(0.000350966 0.000216032 0)
(0.000111534 0.000111527 0)
(1.08663e-05 6.07126e-06 0)
(1.25676e-05 -6.39524e-05 0)
(2.0293e-05 -5.74087e-05 0)
(-2.37322e-05 2.19696e-05 0)
(-0.000144238 0.000134708 0)
(-0.000351599 0.000257458 0)
(-0.000646484 0.000376457 0)
(-0.00102374 0.000484353 0)
(-0.00147503 0.000578055 0)
(-0.00199077 0.000657112 0)
(-0.00256139 0.00072261 0)
(-0.00317815 0.00077645 0)
(-0.00383355 0.000820859 0)
(-0.00452153 0.000858068 0)
(-0.00523741 0.000890111 0)
(-0.00597776 0.0009187 0)
(-0.00674019 0.000945162 0)
(-0.00752307 0.00097042 0)
(-0.00832526 0.000995 0)
(-0.00914585 0.00101905 0)
(-0.00998389 0.00104237 0)
(-0.0108382 0.00106446 0)
(-0.0117069 0.00108456 0)
(-0.0125879 0.0011017 0)
(-0.0134779 0.00111472 0)
(-0.0143728 0.00112233 0)
(-0.0152677 0.00112316 0)
(-0.0161564 0.00111579 0)
(-0.0170318 0.00109877 0)
(-0.0178859 0.0010707 0)
(-0.0187093 0.00103026 0)
(-0.0194922 0.00097626 0)
(-0.0202238 0.000907669 0)
(-0.0208927 0.000823691 0)
(-0.0214873 0.000723797 0)
(-0.0219954 0.000607782 0)
(-0.0224055 0.000475803 0)
(-0.0227059 0.000328419 0)
(-0.022886 0.000166626 0)
(-0.0229361 -8.1264e-06 0)
(-0.0228476 -0.000193885 0)
(-0.0226138 -0.0003883 0)
(-0.02223 -0.000588552 0)
(-0.0216935 -0.000791423 0)
(-0.0210042 -0.000993357 0)
(-0.0201648 -0.00119054 0)
(-0.0191805 -0.00137898 0)
(-0.0180595 -0.00155465 0)
(-0.0168129 -0.00171356 0)
(-0.0154545 -0.00185191 0)
(-0.0140005 -0.00196625 0)
(-0.0124695 -0.00205355 0)
(-0.0108821 -0.00211136 0)
(-0.00926019 -0.00213789 0)
(-0.00762696 -0.00213212 0)
(-0.00600595 -0.00209382 0)
(-0.00442068 -0.0020236 0)
(-0.00289407 -0.00192287 0)
(-0.00144784 -0.00179385 0)
(-0.000102074 -0.00163945 0)
(0.00112535 -0.00146317 0)
(0.00221911 -0.001269 0)
(0.00316676 -0.00106126 0)
(0.00395898 -0.00084446 0)
(0.0045897 -0.00062315 0)
(0.00505615 -0.000401813 0)
(0.00535885 -0.000184756 0)
(0.00550151 2.3944e-05 0)
(0.00549092 0.000220444 0)
(0.00533681 0.000401092 0)
(0.00505182 0.000562308 0)
(0.00465141 0.000700408 0)
(0.00415403 0.000811364 0)
(0.00358121 0.00089052 0)
(0.00295795 0.000932311 0)
(0.00231298 0.000930083 0)
(0.00167911 0.000876291 0)
(0.00109239 0.000763549 0)
(0.00059026 0.000587104 0)
(0.00021734 0.000351237 0)
(3.48204e-05 9.08912e-05 0)
(4.0169e-06 -6.86798e-05 0)
(-2.76192e-05 -1.42252e-05 0)
(-0.000148813 0.00014478 0)
(-0.000374744 0.000352749 0)
(-0.000711853 0.00057544 0)
(-0.00115903 0.000791506 0)
(-0.00170937 0.000988919 0)
(-0.00235278 0.00116222 0)
(-0.00307786 0.00131024 0)
(-0.00387327 0.00143449 0)
(-0.00472856 0.00153795 0)
(-0.00563466 0.00162429 0)
(-0.00658408 0.00169728 0)
(-0.00757094 0.00176039 0)
(-0.00859078 0.0018166 0)
(-0.00964035 0.00186822 0)
(-0.0107172 0.00191688 0)
(-0.0118196 0.00196348 0)
(-0.0129459 0.00200828 0)
(-0.0140945 0.00205087 0)
(-0.0152631 0.00209033 0)
(-0.0164492 0.00212524 0)
(-0.0176493 0.00215378 0)
(-0.0188587 0.00217381 0)
(-0.0200719 0.00218297 0)
(-0.0212817 0.00217871 0)
(-0.0224799 0.0021584 0)
(-0.023657 0.00211944 0)
(-0.0248021 0.00205929 0)
(-0.0259031 0.00197557 0)
(-0.026947 0.00186617 0)
(-0.0279198 0.00172934 0)
(-0.0288069 0.00156374 0)
(-0.0295932 0.00136856 0)
(-0.0302636 0.0011436 0)
(-0.0308032 0.000889353 0)
(-0.0311976 0.000607027 0)
(-0.0314336 0.000298644 0)
(-0.0314991 -3.2956e-05 0)
(-0.0313839 -0.000384133 0)
(-0.0310799 -0.000750393 0)
(-0.0305814 -0.00112651 0)
(-0.0298858 -0.00150658 0)
(-0.0289931 -0.00188412 0)
(-0.0279069 -0.00225222 0)
(-0.0266341 -0.00260369 0)
(-0.0251853 -0.0029313 0)
(-0.0235741 -0.00322791 0)
(-0.0218179 -0.00348676 0)
(-0.0199368 -0.00370166 0)
(-0.0179539 -0.00386719 0)
(-0.0158947 -0.00397896 0)
(-0.0137866 -0.00403371 0)
(-0.0116582 -0.00402951 0)
(-0.00953886 -0.00396585 0)
(-0.00745819 -0.00384364 0)
(-0.00544503 -0.00366527 0)
(-0.00352702 -0.00343449 0)
(-0.00172987 -0.00315635 0)
(-7.68158e-05 -0.00283697 0)
(0.00141193 -0.00248339 0)
(0.00271959 -0.00210331 0)
(0.00383321 -0.00170485 0)
(0.00474379 -0.00129629 0)
(0.00544651 -0.00088592 0)
(0.0059407 -0.000481776 0)
(0.00622983 -9.15966e-05 0)
(0.00632138 0.000277237 0)
(0.00622677 0.000617635 0)
(0.00596121 0.000922649 0)
(0.0055437 0.00118521 0)
(0.00499699 0.0013978 0)
(0.00434769 0.0015521 0)
(0.00362643 0.00163863 0)
(0.00286803 0.00164667 0)
(0.00211163 0.00156468 0)
(0.00139971 0.00138185 0)
(0.000776376 0.00109117 0)
(0.000298283 0.00069601 0)
(5.20648e-05 0.000227866 0)
(-6.29341e-06 -4.45177e-05 0)
(-8.56781e-05 9.85288e-05 0)
(-0.00029944 0.000368797 0)
(-0.000648485 0.000697985 0)
(-0.00113247 0.00104283 0)
(-0.00174697 0.00137556 0)
(-0.00248248 0.00168008 0)
(-0.00332678 0.00194886 0)
(-0.00426676 0.00218018 0)
(-0.00528962 0.00237608 0)
(-0.00638363 0.00254074 0)
(-0.00753858 0.00267939 0)
(-0.00874604 0.00279747 0)
(-0.00999925 0.00290002 0)
(-0.011293 0.00299139 0)
(-0.0126234 0.00307499 0)
(-0.0139875 0.00315317 0)
(-0.0153827 0.00322725 0)
(-0.0168069 0.00329751 0)
(-0.0182576 0.0033633 0)
(-0.019732 0.00342312 0)
(-0.0212264 0.00347473 0)
(-0.022736 0.00351528 0)
(-0.024255 0.00354143 0)
(-0.0257761 0.00354948 0)
(-0.0272904 0.0035355 0)
(-0.0287876 0.00349544 0)
(-0.0302559 0.00342527 0)
(-0.0316821 0.00332113 0)
(-0.0330513 0.00317945 0)
(-0.0343479 0.0029971 0)
(-0.0355549 0.00277149 0)
(-0.036655 0.00250076 0)
(-0.0376302 0.00218389 0)
(-0.0384628 0.00182078 0)
(-0.0391351 0.00141241 0)
(-0.0396304 0.00096092 0)
(-0.0399333 0.000469632 0)
(-0.04003 -5.68808e-05 0)
(-0.0399086 -0.000612848 0)
(-0.0395599 -0.00119124 0)
(-0.0389775 -0.00178395 0)
(-0.0381584 -0.00238189 0)
(-0.0371029 -0.00297513 0)
(-0.0358152 -0.00355317 0)
(-0.0343032 -0.0041051 0)
(-0.032579 -0.00461994 0)
(-0.0306584 -0.00508694 0)
(-0.0285611 -0.00549587 0)
(-0.0263104 -0.00583734 0)
(-0.0239327 -0.00610316 0)
(-0.0214573 -0.00628655 0)
(-0.0189156 -0.00638251 0)
(-0.016341 -0.0063879 0)
(-0.0137676 -0.00630172 0)
(-0.01123 -0.00612509 0)
(-0.00876217 -0.0058613 0)
(-0.00639692 -0.00551574 0)
(-0.00416513 -0.00509573 0)
(-0.00209498 -0.00461032 0)
(-0.000211373 -0.00406997 0)
(0.00146462 -0.00348625 0)
(0.0029162 -0.00287149 0)
(0.0041312 -0.0022384 0)
(0.00510225 -0.0015998 0)
(0.00582691 -0.000968305 0)
(0.00630769 -0.000356163 0)
(0.00655196 0.000224825 0)
(0.00657185 0.000763264 0)
(0.00638415 0.00124799 0)
(0.00601019 0.00166778 0)
(0.00547575 0.00201096 0)
(0.00481108 0.00226498 0)
(0.00405091 0.00241606 0)
(0.00323452 0.00244914 0)
(0.00240595 0.00234838 0)
(0.00161299 0.00209874 0)
(0.000906137 0.00168892 0)
(0.000353374 0.00111673 0)
(6.30224e-05 0.000401378 0)
(-1.71659e-05 1.19459e-05 0)
(-0.000148805 0.00029036 0)
(-0.000464832 0.000707179 0)
(-0.000949108 0.00118513 0)
(-0.00159258 0.00167422 0)
(-0.00238625 0.00214187 0)
(-0.00331713 0.00256901 0)
(-0.00437036 0.00294676 0)
(-0.00553097 0.00327331 0)
(-0.00678477 0.00355153 0)
(-0.00811896 0.00378705 0)
(-0.00952252 0.00398681 0)
(-0.0109864 0.00415802 0)
(-0.0125032 0.00430743 0)
(-0.0140674 0.00444081 0)
(-0.0156746 0.00456269 0)
(-0.0173213 0.00467618 0)
(-0.0190048 0.00478293 0)
(-0.0207222 0.00488324 0)
(-0.0224705 0.00497605 0)
(-0.0242461 0.00505917 0)
(-0.0260444 0.00512936 0)
(-0.0278596 0.00518256 0)
(-0.0296845 0.00521403 0)
(-0.0315103 0.00521853 0)
(-0.0333264 0.00519049 0)
(-0.0351208 0.00512427 0)
(-0.0368794 0.00501424 0)
(-0.0385867 0.00485506 0)
(-0.0402256 0.00464183 0)
(-0.0417779 0.00437031 0)
(-0.0432243 0.00403707 0)
(-0.0445446 0.00363972 0)
(-0.0457186 0.00317706 0)
(-0.0467258 0.00264924 0)
(-0.0475465 0.00205789 0)
(-0.0481618 0.00140624 0)
(-0.0485541 0.000699179 0)
(-0.048708 -5.67138e-05 0)
(-0.0486101 -0.000853175 0)
(-0.0482499 -0.00168035 0)
(-0.0476203 -0.0025269 0)
(-0.0467173 -0.00338015 0)
(-0.0455413 -0.00422637 0)
(-0.0440963 -0.005051 0)
(-0.042391 -0.00583904 0)
(-0.0404381 -0.00657537 0)
(-0.0382548 -0.00724514 0)
(-0.0358624 -0.00783424 0)
(-0.0332864 -0.00832969 0)
(-0.0305557 -0.00872005 0)
(-0.0277026 -0.00899584 0)
(-0.024762 -0.00914985 0)
(-0.0217711 -0.00917746 0)
(-0.0187681 -0.00907686 0)
(-0.0157922 -0.00884916 0)
(-0.0128822 -0.00849842 0)
(-0.0100756 -0.0080316 0)
(-0.00740847 -0.00745835 0)
(-0.00491383 -0.00679075 0)
(-0.00262139 -0.00604298 0)
(-0.000556724 -0.00523085 0)
(0.00125926 -0.00437137 0)
(0.00281076 -0.00348225 0)
(0.00408741 -0.00258153 0)
(0.00508442 -0.00168711 0)
(0.00580271 -0.000816529 0)
(0.00624883 1.3183e-05 0)
(0.00643488 0.000785534 0)
(0.00637837 0.00148439 0)
(0.00610207 0.00209369 0)
(0.00563386 0.00259698 0)
(0.00500664 0.00297698 0)
(0.00425822 0.00321522 0)
(0.00343149 0.00329185 0)
(0.00257456 0.00318614 0)
(0.00174012 0.00287768 0)
(0.000984763 0.00234874 0)
(0.000386282 0.00158803 0)
(6.91905e-05 0.000597954 0)
(-2.81967e-05 0.000102236 0)
(-0.000214512 0.000566767 0)
(-0.000638763 0.00116847 0)
(-0.00126637 0.00182438 0)
(-0.00207834 0.0024802 0)
(-0.00306015 0.00310039 0)
(-0.00419452 0.00366434 0)
(-0.00546351 0.00416282 0)
(-0.00684999 0.00459467 0)
(-0.00833833 0.00496409 0)
(-0.00991478 0.00527849 0)
(-0.0115677 0.00554676 0)
(-0.0132876 0.00577808 0)
(-0.0150669 0.00598096 0)
(-0.0168999 0.00616266 0)
(-0.0187819 0.00632883 0)
(-0.0207094 0.00648329 0)
(-0.0226792 0.00662801 0)
(-0.0246883 0.00676313 0)
(-0.0267332 0.00688713 0)
(-0.0288096 0.00699694 0)
(-0.0309122 0.00708816 0)
(-0.0330342 0.00715533 0)
(-0.0351673 0.00719209 0)
(-0.0373012 0.00719146 0)
(-0.0394239 0.0071461 0)
(-0.0415216 0.00704851 0)
(-0.0435782 0.00689135 0)
(-0.0455762 0.00666765 0)
(-0.0474964 0.00637107 0)
(-0.0493182 0.00599618 0)
(-0.0510199 0.00553869 0)
(-0.0525791 0.00499568 0)
(-0.0539731 0.00436581 0)
(-0.0551792 0.00364956 0)
(-0.0561754 0.00284933 0)
(-0.0569405 0.00196958 0)
(-0.0574552 0.00101694 0)
(-0.0577018 1.92353e-07 0)
(-0.0576655 -0.00106967 0)
(-0.0573343 -0.00217974 0)
(-0.0566994 -0.00331518 0)
(-0.0557562 -0.00445946 0)
(-0.0545039 -0.00559472 0)
(-0.0529462 -0.00670207 0)
(-0.0510913 -0.00776201 0)
(-0.0489522 -0.0087549 0)
(-0.0465465 -0.00966144 0)
(-0.0438967 -0.0104632 0)
(-0.0410293 -0.0111431 0)
(-0.0379755 -0.0116861 0)
(-0.0347697 -0.0120794 0)
(-0.0314499 -0.0123133 0)
(-0.0280566 -0.0123812 0)
(-0.0246321 -0.0122801 0)
(-0.0212197 -0.0120107 0)
(-0.017863 -0.0115775 0)
(-0.0146046 -0.0109891 0)
(-0.0114857 -0.0102572 0)
(-0.00854439 -0.00939712 0)
(-0.00581569 -0.00842681 0)
(-0.00333007 -0.00736665 0)
(-0.00111303 -0.00623874 0)
(0.000815458 -0.00506634 0)
(0.00244145 -0.00387328 0)
(0.00375724 -0.00268347 0)
(0.00476153 -0.00152047 0)
(0.00545944 -0.000407291 0)
(0.00586241 0.000633718 0)
(0.00598802 0.00158074 0)
(0.00585983 0.00241217 0)
(0.00550715 0.00310622 0)
(0.00496489 0.00364037 0)
(0.00427342 0.00399091 0)
(0.00347867 0.0041327 0)
(0.0026325 0.00403933 0)
(0.00179213 0.00368392 0)
(0.00101982 0.00304061 0)
(0.000401271 0.00208681 0)
(7.18739e-05 0.000806652 0)
(-3.92426e-05 0.000227067 0)
(-0.000281566 0.000931015 0)
(-0.000817708 0.00175818 0)
(-0.00159398 0.00262268 0)
(-0.00258072 0.00346825 0)
(-0.00375716 0.00425842 0)
(-0.00510121 0.00497259 0)
(-0.00659136 0.00560242 0)
(-0.00820811 0.00614832 0)
(-0.00993429 0.0066165 0)
(-0.0117552 0.00701658 0)
(-0.0136589 0.00735977 0)
(-0.0156354 0.00765738 0)
(-0.0176774 0.00791981 0)
(-0.019779 0.00815587 0)
(-0.0219359 0.00837232 0)
(-0.0241444 0.00857365 0)
(-0.0264014 0.00876204 0)
(-0.0287038 0.0089374 0)
(-0.0310478 0.00909755 0)
(-0.0334286 0.00923839 0)
(-0.0358404 0.0093542 0)
(-0.0382756 0.0094379 0)
(-0.0407248 0.00948133 0)
(-0.0431766 0.00947557 0)
(-0.0456175 0.00941128 0)
(-0.0480321 0.00927899 0)
(-0.0504026 0.00906944 0)
(-0.0527096 0.00877391 0)
(-0.0549317 0.00838452 0)
(-0.0570463 0.00789457 0)
(-0.0590293 0.00729884 0)
(-0.0608562 0.00659387 0)
(-0.0625018 0.00577821 0)
(-0.0639411 0.00485266 0)
(-0.0651499 0.00382044 0)
(-0.0661046 0.00268737 0)
(-0.0667836 0.00146189 0)
(-0.0671671 0.0001551 0)
(-0.0672381 -0.00121923 0)
(-0.0669825 -0.00264491 0)
(-0.06639 -0.00410341 0)
(-0.0654538 -0.00557416 0)
(-0.0641719 -0.00703493 0)
(-0.0625464 -0.00846222 0)
(-0.0605848 -0.00983171 0)
(-0.0582994 -0.0111189 0)
(-0.0557074 -0.0122996 0)
(-0.0528315 -0.0133505 0)
(-0.0496993 -0.0142501 0)
(-0.0463428 -0.0149791 0)
(-0.0427989 -0.0155209 0)
(-0.0391078 -0.0158625 0)
(-0.0353134 -0.015995 0)
(-0.0314618 -0.0159136 0)
(-0.0276008 -0.0156181 0)
(-0.0237788 -0.0151134 0)
(-0.0200439 -0.0144089 0)
(-0.0164426 -0.0135186 0)
(-0.0130192 -0.0124607 0)
(-0.00981423 -0.0112572 0)
(-0.00686378 -0.00993342 0)
(-0.00419869 -0.00851677 0)
(-0.00184376 -0.0070366 0)
(0.00018277 -0.00552315 0)
(0.00186963 -0.00400702 0)
(0.00321269 -0.00251856 0)
(0.00421503 -0.00108753 0)
(0.00488685 0.00025711 0)
(0.00524533 0.00148709 0)
(0.00531433 0.00257463 0)
(0.00512417 0.00349194 0)
(0.0047114 0.00421067 0)
(0.00411862 0.00470133 0)
(0.0033946 0.00493286 0)
(0.00259467 0.00487245 0)
(0.00178032 0.00448577 0)
(0.0010189 0.00373771 0)
(0.000402204 0.00259342 0)
(7.20812e-05 0.00101902 0)
(-5.0279e-05 0.000386842 0)
(-0.00034938 0.00138507 0)
(-0.000999664 0.00247982 0)
(-0.00192803 0.00358467 0)
(-0.00309373 0.00464362 0)
(-0.00446933 0.00562126 0)
(-0.00602747 0.00649871 0)
(-0.00774281 0.00726986 0)
(-0.00959325 0.00793775 0)
(-0.0115601 0.00851138 0)
(-0.0136277 0.0090032 0)
(-0.0157836 0.00942709 0)
(-0.0180182 0.00979676 0)
(-0.0203241 0.0101247 0)
(-0.0226958 0.0104212 0)
(-0.0251292 0.0106943 0)
(-0.0276212 0.010949 0)
(-0.0301688 0.0111876 0)
(-0.0327689 0.0114097 0)
(-0.0354178 0.0116122 0)
(-0.0381106 0.0117898 0)
(-0.0408408 0.0119354 0)
(-0.0436002 0.01204 0)
(-0.0463788 0.0120934 0)
(-0.049164 0.0120846 0)
(-0.0519411 0.0120021 0)
(-0.054693 0.0118342 0)
(-0.0574006 0.0115695 0)
(-0.0600425 0.0111975 0)
(-0.0625954 0.0107086 0)
(-0.0650344 0.0100947 0)
(-0.0673335 0.00934962 0)
(-0.0694656 0.00846926 0)
(-0.0714033 0.00745202 0)
(-0.0731191 0.006299 0)
(-0.074586 0.00501424 0)
(-0.0757782 0.00360486 0)
(-0.0766713 0.00208116 0)
(-0.0772429 0.000456581 0)
(-0.0774733 -0.0012523 0)
(-0.0773459 -0.00302592 0)
(-0.0768476 -0.00484196 0)
(-0.0759693 -0.00667566 0)
(-0.0747066 -0.00850022 0)
(-0.0730598 -0.0102873 0)
(-0.0710342 -0.0120073 0)
(-0.0686407 -0.0136307 0)
(-0.0658958 -0.0151277 0)
(-0.0628215 -0.0164699 0)
(-0.0594455 -0.0176306 0)
(-0.0558008 -0.0185854 0)
(-0.0519256 -0.0193135 0)
(-0.0478627 -0.019798 0)
(-0.043659 -0.0200266 0)
(-0.0393645 -0.0199922 0)
(-0.0350317 -0.0196932 0)
(-0.0307143 -0.0191341 0)
(-0.0264662 -0.018325 0)
(-0.0223403 -0.0172816 0)
(-0.0183874 -0.0160253 0)
(-0.0146546 -0.014582 0)
(-0.0111845 -0.012982 0)
(-0.00801419 -0.0112585 0)
(-0.00517418 -0.00944756 0)
(-0.00268782 -0.00758643 0)
(-0.000570744 -0.00571314 0)
(0.00116936 -0.00386562 0)
(0.00253294 -0.00208123 0)
(0.00352843 -0.000396391 0)
(0.00417213 0.00115341 0)
(0.00448787 0.00253342 0)
(0.00450672 0.00370918 0)
(0.00426664 0.00464586 0)
(0.00381237 0.00530758 0)
(0.00319538 0.00565672 0)
(0.00247439 0.00565338 0)
(0.00171484 0.00525513 0)
(0.000988673 0.004417 0)
(0.000392217 0.00309173 0)
(7.05407e-05 0.00122865 0)
(-6.13204e-05 0.0005818 0)
(-0.000417671 0.00193013 0)
(-0.00118345 0.00333558 0)
(-0.00226601 0.00471332 0)
(-0.00361329 0.00600977 0)
(-0.00519093 0.00719254 0)
(-0.00696609 0.00824618 0)
(-0.00890936 0.0091683 0)
(-0.010996 0.00996568 0)
(-0.0132056 0.010651 0)
(-0.0155218 0.0112403 0)
(-0.0179319 0.0117504 0)
(-0.0204264 0.0121979 0)
(-0.0229983 0.0125975 0)
(-0.0256426 0.0129611 0)
(-0.0283561 0.0132979 0)
(-0.0311359 0.0136134 0)
(-0.0339797 0.0139099 0)
(-0.0368848 0.0141866 0)
(-0.0398476 0.0144394 0)
(-0.0428632 0.0146616 0)
(-0.0459249 0.0148442 0)
(-0.0490241 0.0149763 0)
(-0.0521501 0.0150454 0)
(-0.0552893 0.0150383 0)
(-0.058426 0.0149409 0)
(-0.0615418 0.0147392 0)
(-0.0646159 0.0144196 0)
(-0.0676252 0.0139694 0)
(-0.0705445 0.0133773 0)
(-0.0733468 0.0126337 0)
(-0.0760038 0.0117312 0)
(-0.078486 0.010665 0)
(-0.0807633 0.00943311 0)
(-0.0828058 0.00803699 0)
(-0.0845834 0.00648134 0)
(-0.0860675 0.00477451 0)
(-0.0872305 0.00292857 0)
(-0.0880469 0.000959273 0)
(-0.0884937 -0.00111399 0)
(-0.0885511 -0.00326833 0)
(-0.0882026 -0.00547758 0)
(-0.0874361 -0.00771268 0)
(-0.0862437 -0.00994209 0)
(-0.084623 -0.0121323 0)
(-0.0825768 -0.0142485 0)
(-0.0801135 -0.0162551 0)
(-0.0772479 -0.0181167 0)
(-0.0740009 -0.0197989 0)
(-0.0703996 -0.021269 0)
(-0.0664774 -0.0224973 0)
(-0.0622736 -0.0234575 0)
(-0.057833 -0.0241278 0)
(-0.0532056 -0.0244921 0)
(-0.0484455 -0.0245399 0)
(-0.04361 -0.0242675 0)
(-0.0387585 -0.0236782 0)
(-0.0339516 -0.0227822 0)
(-0.0292493 -0.0215968 0)
(-0.0247096 -0.0201459 0)
(-0.0203874 -0.0184597 0)
(-0.0163331 -0.0165734 0)
(-0.0125908 -0.0145267 0)
(-0.00919794 -0.0123626 0)
(-0.0061841 -0.0101262 0)
(-0.00357021 -0.00786384 0)
(-0.00136832 -0.00562192 0)
(0.000418635 -0.0034463 0)
(0.00179678 -0.00138185 0)
(0.00278109 0.000527825 0)
(0.00339507 0.00224015 0)
(0.00367031 0.0037132 0)
(0.00364615 0.00490494 0)
(0.00336939 0.00577244 0)
(0.00289427 0.00627089 0)
(0.00228277 0.00635277 0)
(0.00160416 0.00596706 0)
(0.000934554 0.00505878 0)
(0.000373748 0.00356859 0)
(6.77701e-05 0.00143066 0)
(-7.23879e-05 0.000812111 0)
(-0.000486274 0.00256687 0)
(-0.00136828 0.00432671 0)
(-0.00260615 0.00601037 0)
(-0.00413641 0.00756875 0)
(-0.00591767 0.00897445 0)
(-0.00791148 0.0102172 0)
(-0.0100843 0.0112998 0)
(-0.0124087 0.0122341 0)
(-0.0148627 0.0130373 0)
(-0.0174291 0.0137296 0)
(-0.0200952 0.0143317 0)
(-0.0228517 0.0148631 0)
(-0.0256924 0.015341 0)
(-0.0286131 0.0157791 0)
(-0.0316113 0.0161877 0)
(-0.0346852 0.0165728 0)
(-0.037833 0.0169367 0)
(-0.0410527 0.0172777 0)
(-0.0443411 0.0175907 0)
(-0.0476934 0.0178674 0)
(-0.0511031 0.0180967 0)
(-0.0545614 0.0182656 0)
(-0.0580567 0.018359 0)
(-0.061575 0.0183611 0)
(-0.0650994 0.0182552 0)
(-0.0686104 0.0180247 0)
(-0.0720855 0.0176537 0)
(-0.0754999 0.0171269 0)
(-0.0788266 0.0164312 0)
(-0.0820363 0.0155551 0)
(-0.0850983 0.0144901 0)
(-0.0879807 0.0132303 0)
(-0.0906505 0.0117735 0)
(-0.0930747 0.0101209 0)
(-0.0952202 0.00827798 0)
(-0.0970547 0.00625406 0)
(-0.0985474 0.00406284 0)
(-0.0996688 0.00172228 0)
(-0.100392 -0.000745513 0)
(-0.100694 -0.00331433 0)
(-0.100553 -0.00595419 0)
(-0.099954 -0.00863167 0)
(-0.0988848 -0.0113103 0)
(-0.0973392 -0.0139513 0)
(-0.0953166 -0.016514 0)
(-0.0928226 -0.0189567 0)
(-0.0898691 -0.0212376 0)
(-0.0864753 -0.0233157 0)
(-0.0826671 -0.0251517 0)
(-0.0784775 -0.0267092 0)
(-0.0739466 -0.0279558 0)
(-0.0691208 -0.028864 0)
(-0.064053 -0.0294124 0)
(-0.0588013 -0.0295863 0)
(-0.0534281 -0.0293789 0)
(-0.0479991 -0.0287913 0)
(-0.0425819 -0.0278332 0)
(-0.0372445 -0.0265227 0)
(-0.0320534 -0.0248863 0)
(-0.0270724 -0.0229578 0)
(-0.0223606 -0.020778 0)
(-0.0179709 -0.018393 0)
(-0.0139491 -0.0158536 0)
(-0.0103319 -0.0132136 0)
(-0.00714682 -0.0105284 0)
(-0.00441139 -0.00785402 0)
(-0.00213275 -0.00524594 0)
(-0.000307776 -0.00275854 0)
(0.00107669 -0.000444644 0)
(0.00204349 0.00164436 0)
(0.00262458 0.00345816 0)
(0.00286064 0.00494673 0)
(0.00280058 0.00605934 0)
(0.00250145 0.00674341 0)
(0.00202858 0.00694331 0)
(0.00145501 0.00659917 0)
(0.000860819 0.00564604 0)
(0.000348658 0.00401319 0)
(6.41436e-05 0.0016213 0)
(-8.34895e-05 0.00107789 0)
(-0.000555045 0.00329567 0)
(-0.00155353 0.0054538 0)
(-0.00294705 0.0074766 0)
(-0.00466072 0.0093215 0)
(-0.00664607 0.010968 0)
(-0.00885906 0.0124129 0)
(-0.0112621 0.0136655 0)
(-0.0138249 0.0147441 0)
(-0.0165242 0.0156715 0)
(-0.0193421 0.0164728 0)
(-0.0222659 0.0171731 0)
(-0.0252869 0.0177952 0)
(-0.0283998 0.0183589 0)
(-0.0316014 0.0188801 0)
(-0.0348903 0.01937 0)
(-0.0382657 0.0198352 0)
(-0.0417269 0.0202776 0)
(-0.0452728 0.0206948 0)
(-0.0489007 0.0210803 0)
(-0.0526063 0.021424 0)
(-0.0563833 0.0217125 0)
(-0.0602226 0.0219302 0)
(-0.0641125 0.0220595 0)
(-0.0680382 0.0220816 0)
(-0.0719818 0.0219769 0)
(-0.0759226 0.0217259 0)
(-0.0798367 0.02131 0)
(-0.0836976 0.0207115 0)
(-0.087476 0.0199148 0)
(-0.0911406 0.0189068 0)
(-0.094658 0.017677 0)
(-0.0979935 0.0162188 0)
(-0.101111 0.0145289 0)
(-0.103974 0.0126087 0)
(-0.106547 0.0104636 0)
(-0.108792 0.00810414 0)
(-0.110676 0.00554526 0)
(-0.112164 0.00280692 0)
(-0.113225 -8.61199e-05 0)
(-0.113831 -0.00310439 0)
(-0.113956 -0.00621422 0)
(-0.113581 -0.00937774 0)
(-0.112689 -0.0125535 0)
(-0.111268 -0.0156971 0)
(-0.109315 -0.0187617 0)
(-0.106831 -0.0216991 0)
(-0.103825 -0.0244606 0)
(-0.100312 -0.0269977 0)
(-0.096318 -0.0292638 0)
(-0.0918737 -0.031215 0)
(-0.0870195 -0.0328114 0)
(-0.0818032 -0.0340188 0)
(-0.07628 -0.0348093 0)
(-0.0705117 -0.0351628 0)
(-0.064566 -0.0350678 0)
(-0.058515 -0.0345226 0)
(-0.052434 -0.0335353 0)
(-0.0463997 -0.0321239 0)
(-0.0404883 -0.0303168 0)
(-0.0347735 -0.0281514 0)
(-0.0293249 -0.0256738 0)
(-0.0242055 -0.0229373 0)
(-0.0194708 -0.0200008 0)
(-0.0151667 -0.0169277 0)
(-0.0113285 -0.0137836 0)
(-0.0079805 -0.0106354 0)
(-0.00513516 -0.00754941 0)
(-0.00279325 -0.00459087 0)
(-0.000944038 -0.00182312 0)
(0.000434211 0.000692489 0)
(0.00137366 0.00289616 0)
(0.00191623 0.00472894 0)
(0.00211305 0.00613155 0)
(0.00202414 0.00704298 0)
(0.00171832 0.00739907 0)
(0.00127246 0.00713096 0)
(0.000770711 0.00616394 0)
(0.000318348 0.0044166 0)
(5.99368e-05 0.00179769 0)
(-9.4617e-05 0.00137921 0)
(-0.000623819 0.00411657 0)
(-0.0017386 0.00671687 0)
(-0.00328744 0.00911199 0)
(-0.00518406 0.011268 0)
(-0.00737301 0.0131732 0)
(-0.00980472 0.0148332 0)
(-0.0124376 0.0162657 0)
(-0.0152388 0.0174962 0)
(-0.0181836 0.0185544 0)
(-0.0212538 0.0194713 0)
(-0.0244369 0.0202766 0)
(-0.027725 0.0209971 0)
(-0.0311137 0.0216555 0)
(-0.0346013 0.0222697 0)
(-0.0381875 0.0228521 0)
(-0.0418731 0.0234097 0)
(-0.0456585 0.023944 0)
(-0.0495435 0.0244517 0)
(-0.0535265 0.0249245 0)
(-0.0576037 0.0253503 0)
(-0.0617691 0.0257134 0)
(-0.0660136 0.0259952 0)
(-0.0703252 0.0261751 0)
(-0.0746885 0.026231 0)
(-0.0790847 0.0261403 0)
(-0.083492 0.0258804 0)
(-0.0878848 0.0254295 0)
(-0.0922347 0.0247672 0)
(-0.0965105 0.0238754 0)
(-0.100678 0.0227385 0)
(-0.104702 0.0213446 0)
(-0.108544 0.0196852 0)
(-0.112164 0.0177564 0)
(-0.115523 0.0155588 0)
(-0.118581 0.0130982 0)
(-0.121296 0.0103855 0)
(-0.12363 0.00743696 0)
(-0.125544 0.0042743 0)
(-0.127002 0.000924725 0)
(-0.127971 -0.00257924 0)
(-0.128421 -0.00620016 0)
(-0.128325 -0.00989572 0)
(-0.127663 -0.0136194 0)
(-0.126418 -0.017321 0)
(-0.124582 -0.0209474 0)
(-0.122151 -0.0244434 0)
(-0.11913 -0.0277525 0)
(-0.115531 -0.0308186 0)
(-0.111377 -0.0335866 0)
(-0.106696 -0.0360041 0)
(-0.101529 -0.0380229 0)
(-0.0959232 -0.0396004 0)
(-0.0899356 -0.040701 0)
(-0.0836315 -0.0412976 0)
(-0.0770833 -0.0413731 0)
(-0.0703698 -0.0409209 0)
(-0.063574 -0.0399463 0)
(-0.0567822 -0.0384666 0)
(-0.0500809 -0.0365108 0)
(-0.0435553 -0.0341197 0)
(-0.0372867 -0.0313446 0)
(-0.0313504 -0.0282458 0)
(-0.0258132 -0.0248914 0)
(-0.0207318 -0.0213549 0)
(-0.0161514 -0.0177137 0)
(-0.0121047 -0.0140466 0)
(-0.00861066 -0.0104325 0)
(-0.00567524 -0.00694911 0)
(-0.00329097 -0.00367167 0)
(-0.00143776 -0.000673017 0)
(-8.36062e-05 0.00197634 0)
(0.000814626 0.00420739 0)
(0.00131035 0.00595139 0)
(0.00146672 0.00713827 0)
(0.0013563 0.0076949 0)
(0.00106009 0.00754327 0)
(0.000666574 0.00659916 0)
(0.000283849 0.0047712 0)
(5.53545e-05 0.00195759 0)
(-0.000105748 0.00171603 0)
(-0.000692389 0.00502931 0)
(-0.00192284 0.00811537 0)
(-0.003626 0.0109158 0)
(-0.00570431 0.0134072 0)
(-0.00809546 0.0155891 0)
(-0.0107445 0.0174773 0)
(-0.0136059 0.0190995 0)
(-0.0166447 0.0204901 0)
(-0.0198347 0.0216865 0)
(-0.0231576 0.0227261 0)
(-0.0266012 0.0236443 0)
(-0.0301587 0.024472 0)
(-0.033827 0.0252352 0)
(-0.0376059 0.025954 0)
(-0.0414967 0.0266419 0)
(-0.0455016 0.0273063 0)
(-0.0496226 0.0279483 0)
(-0.0538606 0.0285631 0)
(-0.0582151 0.0291408 0)
(-0.062683 0.0296669 0)
(-0.0672587 0.0301227 0)
(-0.0719332 0.0304867 0)
(-0.0766943 0.0307349 0)
(-0.0815259 0.0308418 0)
(-0.0864085 0.0307811 0)
(-0.0913186 0.0305267 0)
(-0.0962293 0.0300537 0)
(-0.10111 0.0293383 0)
(-0.105928 0.0283597 0)
(-0.110645 0.0270997 0)
(-0.115223 0.0255441 0)
(-0.119622 0.0236828 0)
(-0.123797 0.0215107 0)
(-0.127704 0.0190275 0)
(-0.1313 0.0162388 0)
(-0.13454 0.0131558 0)
(-0.137378 0.00979586 0)
(-0.139773 0.00618222 0)
(-0.141683 0.00234437 0)
(-0.143069 -0.00168228 0)
(-0.143897 -0.00585653 0)
(-0.144134 -0.0101317 0)
(-0.143754 -0.0144562 0)
(-0.142736 -0.0187738 0)
(-0.141065 -0.023025 0)
(-0.138733 -0.0271471 0)
(-0.13574 -0.0310759 0)
(-0.132094 -0.0347464 0)
(-0.127813 -0.0380946 0)
(-0.122924 -0.0410587 0)
(-0.117464 -0.0435807 0)
(-0.11148 -0.0456086 0)
(-0.10503 -0.0470975 0)
(-0.0981814 -0.0480117 0)
(-0.0910111 -0.0483264 0)
(-0.0836036 -0.048029 0)
(-0.0760499 -0.0471202 0)
(-0.0684457 -0.0456146 0)
(-0.060889 -0.0435414 0)
(-0.0534776 -0.0409435 0)
(-0.0463061 -0.0378769 0)
(-0.0394634 -0.0344092 0)
(-0.0330302 -0.030618 0)
(-0.0270763 -0.0265881 0)
(-0.0216586 -0.0224096 0)
(-0.0168201 -0.0181752 0)
(-0.0125886 -0.013978 0)
(-0.00897639 -0.00990985 0)