/*--------------------------------*- C++ -*----------------------------------*\
  =========                 |
  \\      /  F ield         | OpenFOAM: The Open Source CFD Toolbox
   \\    /   O peration     | Website:  https://openfoam.org
    \\  /    A nd           | Version:  7
     \\/     M anipulation  |
\*---------------------------------------------------------------------------*/
FoamFile
{
    version     2.0;
    format      ascii;
    class       surfaceScalarField;
    location    "1.85";
    object      phi;
}
// * * * * * * * * * * * * * * * * * * * * * * * * * * * * * * * * * * * * * //

dimensions      [0 3 -1 0 0 0 0];

internalField   nonuniform List<scalar> 
12640
(
3.73728e-10
-3.73518e-10
1.34841e-09
-9.74692e-10
2.49126e-09
-1.14285e-09
3.49374e-09
-1.00252e-09
4.18977e-09
-6.96025e-10
4.50195e-09
-3.12198e-10
4.40516e-09
9.68169e-11
3.90243e-09
5.02722e-10
3.00995e-09
8.92487e-10
1.74724e-09
1.26273e-09
1.32046e-10
1.61517e-09
-1.82249e-09
1.95453e-09
-4.10881e-09
2.28632e-09
-6.7245e-09
2.61569e-09
-9.6714e-09
2.94691e-09
-1.29543e-08
3.28289e-09
-1.65793e-08
3.62502e-09
-2.05525e-08
3.97314e-09
-2.48781e-08
4.3256e-09
-2.95574e-08
4.67936e-09
-3.45875e-08
5.03007e-09
-3.99598e-08
5.37226e-09
-4.56591e-08
5.69936e-09
-5.1663e-08
6.00391e-09
-5.79407e-08
6.2776e-09
-6.44521e-08
6.51149e-09
-7.11483e-08
6.69612e-09
-7.797e-08
6.82174e-09
-8.48485e-08
6.8785e-09
-9.17053e-08
6.85679e-09
-9.84528e-08
6.74749e-09
-1.04995e-07
6.5423e-09
-1.11229e-07
6.23416e-09
-1.17047e-07
5.81755e-09
-1.22336e-07
5.28894e-09
-1.26983e-07
4.64708e-09
-1.30876e-07
3.89337e-09
-1.33908e-07
3.03217e-09
-1.35979e-07
2.07104e-09
-1.37001e-07
1.02118e-09
-1.36894e-07
-1.06845e-10
-1.35605e-07
-1.28909e-09
-1.33094e-07
-2.51104e-09
-1.29346e-07
-3.74733e-09
-1.24373e-07
-4.97298e-09
-1.18212e-07
-6.16126e-09
-1.10927e-07
-7.2846e-09
-1.02612e-07
-8.31548e-09
-9.33845e-08
-9.22739e-09
-8.33887e-08
-9.99586e-09
-7.27892e-08
-1.05995e-08
-6.17684e-08
-1.10208e-08
-5.05212e-08
-1.12472e-08
-3.92494e-08
-1.12717e-08
-2.81561e-08
-1.10934e-08
-1.74388e-08
-1.07173e-08
-7.28405e-09
-1.01547e-08
2.13887e-09
-9.42292e-09
1.06829e-08
-8.54403e-09
1.82266e-08
-7.54367e-09
2.46778e-08
-6.45126e-09
2.99751e-08
-5.2973e-09
3.40876e-08
-4.11248e-09
3.70143e-08
-2.9267e-09
3.87816e-08
-1.76734e-09
3.94403e-08
-6.58663e-10
3.90616e-08
3.78744e-10
3.77333e-08
1.32821e-09
3.55566e-08
2.17669e-09
3.26428e-08
2.91383e-09
2.91123e-08
3.53047e-09
2.50959e-08
4.01645e-09
2.07382e-08
4.35768e-09
1.62059e-08
4.53232e-09
1.16995e-08
4.50642e-09
7.46911e-09
4.23039e-09
3.82912e-09
3.63998e-09
1.16524e-09
2.66386e-09
-1.11381e-10
1.2766e-09
-1.11394e-10
9.87368e-10
-1.3609e-09
2.82255e-09
-2.80986e-09
4.75357e-09
-3.07388e-09
6.25792e-09
-2.50684e-09
6.99965e-09
-1.43778e-09
6.79009e-09
-1.02593e-10
5.54395e-09
1.34291e-09
3.23833e-09
2.80835e-09
-1.14587e-10
4.24543e-09
-4.48804e-09
5.63618e-09
-9.85396e-09
6.98111e-09
-1.61895e-08
8.29012e-09
-2.34805e-08
9.57721e-09
-3.17211e-08
1.08563e-08
-4.09129e-08
1.21387e-08
-5.10615e-08
1.34314e-08
-6.2173e-08
1.47365e-08
-7.42508e-08
1.60509e-08
-8.72914e-08
1.73663e-08
-1.01281e-07
1.86694e-08
-1.16194e-07
1.99427e-08
-1.31986e-07
2.11644e-08
-1.48596e-07
2.23092e-08
-1.65941e-07
2.33488e-08
-1.83916e-07
2.42525e-08
-2.02392e-07
2.49875e-08
-2.21216e-07
2.552e-08
-2.4021e-07
2.5816e-08
-2.59173e-07
2.58418e-08
-2.77882e-07
2.55657e-08
-2.96093e-07
2.49586e-08
-3.13546e-07
2.39952e-08
-3.29968e-07
2.26555e-08
-3.45076e-07
2.09258e-08
-3.58587e-07
1.87997e-08
-3.70219e-07
1.62794e-08
-3.79702e-07
1.33764e-08
-3.86782e-07
1.01123e-08
-3.9123e-07
6.51918e-09
-3.92849e-07
2.63981e-09
-3.91483e-07
-1.47307e-09
-3.87013e-07
-5.75848e-09
-3.79383e-07
-1.01415e-08
-3.68586e-07
-1.45436e-08
-3.5468e-07
-1.88794e-08
-3.37782e-07
-2.30592e-08
-3.18074e-07
-2.69923e-08
-2.95801e-07
-3.05888e-08
-2.71265e-07
-3.3763e-08
-2.44825e-07
-3.64364e-08
-2.16884e-07
-3.85404e-08
-1.87885e-07
-4.00194e-08
-1.583e-07
-4.0833e-08
-1.28613e-07
-4.09586e-08
-9.93141e-08
-4.0392e-08
-7.08824e-08
-3.9149e-08
-4.37728e-08
-3.72644e-08
-1.84042e-08
-3.47915e-08
4.85199e-09
-3.18002e-08
2.56822e-08
-2.83739e-08
4.3837e-08
-2.4606e-08
5.91367e-08
-2.0597e-08
7.14731e-08
-1.64489e-08
8.08096e-08
-1.22632e-08
8.71772e-08
-8.13495e-09
9.06697e-08
-4.15108e-09
9.14366e-08
-3.88224e-10
8.96766e-08
3.08821e-09
8.56299e-08
6.22343e-09
7.95731e-08
8.97061e-09
7.18167e-08
1.12868e-08
6.27062e-08
1.3127e-08
5.26278e-08
1.44361e-08
4.20199e-08
1.51402e-08
3.13872e-08
1.5139e-08
2.13149e-08
1.43027e-08
1.24699e-08
1.2485e-08
5.57082e-09
9.56289e-09
1.28608e-09
5.56132e-09
1.1747e-09
1.16812e-09
-2.52902e-09
3.08758e-09
-4.72936e-09
4.82431e-09
-4.81057e-09
5.7621e-09
-3.44468e-09
5.4961e-09
-1.17173e-09
3.78591e-09
1.60757e-09
5.08412e-10
4.62042e-09
-4.38113e-09
7.6979e-09
-1.08835e-08
1.07477e-08
-1.89781e-08
1.37308e-08
-2.86388e-08
1.66418e-08
-3.98434e-08
1.94947e-08
-5.25774e-08
2.23112e-08
-6.68344e-08
2.51133e-08
-8.26138e-08
2.79181e-08
-9.99169e-08
3.07345e-08
-1.18742e-07
3.35616e-08
-1.39079e-07
3.6388e-08
-1.60905e-07
3.9192e-08
-1.84177e-07
4.19421e-08
-2.08833e-07
4.45978e-08
-2.34779e-07
4.71106e-08
-2.61895e-07
4.94249e-08
-2.90025e-07
5.14796e-08
-3.18982e-07
5.32094e-08
-3.48541e-07
5.45459e-08
-3.78441e-07
5.54199e-08
-4.08387e-07
5.57628e-08
-4.38054e-07
5.55088e-08
-4.67086e-07
5.45971e-08
-4.95101e-07
5.29742e-08
-5.21702e-07
5.0596e-08
-5.46477e-07
4.74304e-08
-5.6901e-07
4.34591e-08
-5.8889e-07
3.86797e-08
-6.05718e-07
3.31075e-08
-6.19119e-07
2.67765e-08
-6.28747e-07
1.97405e-08
-6.34301e-07
1.20733e-08
-6.3553e-07
3.86926e-09
-6.32241e-07
-4.76198e-09
-6.24311e-07
-1.36892e-08
-6.11688e-07
-2.27645e-08
-5.94401e-07
-3.183e-08
-5.72563e-07
-4.07173e-08
-5.4637e-07
-4.92525e-08
-5.16102e-07
-5.72601e-08
-4.82122e-07
-6.45684e-08
-4.44871e-07
-7.1014e-08
-4.0486e-07
-7.64478e-08
-3.62661e-07
-8.07399e-08
-3.18896e-07
-8.37843e-08
-2.74225e-07
-8.5504e-08
-2.29329e-07
-8.58541e-08
-1.84896e-07
-8.48248e-08
-1.41603e-07
-8.24426e-08
-1.00096e-07
-7.87707e-08
-6.0981e-08
-7.39069e-08
-2.48003e-08
-6.79809e-08
7.97537e-09
-6.11496e-08
3.69609e-08
-5.35916e-08
6.1863e-08
-4.54991e-08
8.24862e-08
-3.70721e-08
9.87346e-08
-2.85116e-08
1.10609e-07
-2.00098e-08
1.18204e-07
-1.17461e-08
1.21699e-07
-3.88326e-09
1.21352e-07
3.43544e-09
1.1749e-07
1.00856e-08
1.10504e-07
1.59572e-08
1.00842e-07
2.09487e-08
8.90119e-08
2.49569e-08
7.55833e-08
2.78647e-08
6.11948e-08
2.95287e-08
4.65647e-08
2.97692e-08
3.2496e-08
2.83714e-08
1.9872e-08
2.51089e-08
9.62803e-09
1.98069e-08
2.69628e-09
1.24931e-08
3.871e-09
1.00619e-09
-3.53522e-09
2.39287e-09
-6.11603e-09
3.16703e-09
-5.58476e-09
2.68932e-09
-2.96694e-09
5.46475e-10
9.71081e-10
-3.51022e-09
5.66428e-09
-9.61255e-09
1.07228e-08
-1.78153e-08
1.59007e-08
-2.81283e-08
2.10607e-08
-4.05393e-08
2.61418e-08
-5.50298e-08
3.11323e-08
-7.1583e-08
3.60479e-08
-9.0188e-08
4.09163e-08
-1.10839e-07
4.57645e-08
-1.33533e-07
5.06117e-08
-1.58262e-07
5.54636e-08
-1.8501e-07
6.03102e-08
-2.13747e-07
6.51249e-08
-2.44419e-07
6.98641e-08
-2.76946e-07
7.44688e-08
-3.11214e-07
7.88656e-08
-3.47072e-07
8.29686e-08
-3.84329e-07
8.66818e-08
-4.2275e-07
8.99009e-08
-4.62057e-07
9.25159e-08
-5.01925e-07
9.44145e-08
-5.41989e-07
9.54842e-08
-5.81843e-07
9.56166e-08
-6.21044e-07
9.47098e-08
-6.5912e-07
9.26728e-08
-6.95574e-07
8.94287e-08
-7.29897e-07
8.49182e-08
-7.61569e-07
7.91031e-08
-7.90079e-07
7.19689e-08
-8.14927e-07
6.35278e-08
-8.3564e-07
5.38201e-08
-8.51779e-07
4.29159e-08
-8.62955e-07
3.09159e-08
-8.68832e-07
1.7951e-08
-8.69146e-07
4.18251e-09
-8.63698e-07
-1.021e-08
-8.5238e-07
-2.50072e-08
-8.35169e-07
-3.99755e-08
-8.12134e-07
-5.48645e-08
-7.83441e-07
-6.94105e-08
-7.4935e-07
-8.33434e-08
-7.10218e-07
-9.63926e-08
-6.66492e-07
-1.08294e-07
-6.18707e-07
-1.18799e-07
-5.67478e-07
-1.27677e-07
-5.13489e-07
-1.34729e-07
-4.5748e-07
-1.39793e-07
-4.00238e-07
-1.42747e-07
-3.42574e-07
-1.43517e-07
-2.85314e-07
-1.42085e-07
-2.29272e-07
-1.38484e-07
-1.7524e-07
-1.32803e-07
-1.2396e-07
-1.25186e-07
-7.61151e-08
-1.15826e-07
-3.23061e-08
-1.04959e-07
6.95911e-09
-9.28567e-08
4.12786e-08
-7.98186e-08
7.03598e-08
-6.61533e-08
9.40337e-08
-5.21855e-08
1.12246e-07
-3.82222e-08
1.2506e-07
-2.45597e-08
1.32648e-07
-1.14713e-08
1.35287e-07
7.9608e-10
1.3335e-07
1.20227e-08
1.27296e-07
2.20108e-08
1.17668e-07
3.05771e-08
1.05085e-07
3.75396e-08
9.02472e-08
4.27026e-08
7.39348e-08
4.5841e-08
5.70146e-08
4.66894e-08
4.04422e-08
4.49438e-08
2.5262e-08
4.02892e-08
1.26037e-08
3.24651e-08
3.69436e-09
2.14025e-08
7.56535e-09
6.16001e-10
-4.1512e-09
9.79452e-10
-6.47953e-09
1.5544e-10
-4.76071e-09
-2.44867e-09
-3.62844e-10
-7.2097e-09
5.73209e-09
-1.43493e-08
1.28039e-08
-2.39835e-08
2.03569e-08
-3.61618e-08
2.8079e-08
-5.08961e-08
3.5795e-08
-6.81804e-08
4.34261e-08
-8.80039e-08
5.09558e-08
-1.10357e-07
5.84014e-08
-1.35235e-07
6.57938e-08
-1.62632e-07
7.3161e-08
-1.92538e-07
8.05186e-08
-2.24937e-07
8.78623e-08
-2.59792e-07
9.51652e-08
-2.97043e-07
1.02376e-07
-3.366e-07
1.09421e-07
-3.78334e-07
1.16203e-07
-4.22074e-07
1.22605e-07
-4.67602e-07
1.28496e-07
-5.14648e-07
1.33729e-07
-5.62895e-07
1.38147e-07
-6.1197e-07
1.41591e-07
-6.61453e-07
1.43898e-07
-7.10877e-07
1.44908e-07
-7.59733e-07
1.44472e-07
-8.07476e-07
1.42454e-07
-8.53538e-07
1.38734e-07
-8.97329e-07
1.3322e-07
-9.38254e-07
1.25843e-07
-9.7572e-07
1.16569e-07
-1.00915e-06
1.05399e-07
-1.03799e-06
9.23699e-08
-1.06173e-06
7.75605e-08
-1.07991e-06
6.10891e-08
-1.09211e-06
4.31151e-08
-1.09799e-06
2.38379e-08
-1.09731e-06
3.49716e-09
-1.08986e-06
-1.76521e-08
-1.07558e-06
-3.92916e-08
-1.05446e-06
-6.1096e-08
-1.02661e-06
-8.27167e-08
-9.92228e-07
-1.0379e-07
-9.51626e-07
-1.23946e-07
-9.05205e-07
-1.42813e-07
-8.53466e-07
-1.60033e-07
-7.97001e-07
-1.75264e-07
-7.36485e-07
-1.88192e-07
-6.72671e-07
-1.98544e-07
-6.06373e-07
-2.06091e-07
-5.38458e-07
-2.10662e-07
-4.69827e-07
-2.12148e-07
-4.014e-07
-2.10512e-07
-3.34096e-07
-2.05788e-07
-2.68814e-07
-1.98086e-07
-2.06412e-07
-1.87589e-07
-1.47687e-07
-1.7455e-07
-9.33603e-08
-1.59286e-07
-4.40536e-08
-1.42163e-07
-2.80749e-10
-1.23591e-07
3.75752e-08
-1.04009e-07
6.92472e-08
-8.38575e-08
9.46105e-08
-6.35855e-08
1.13674e-07
-4.3623e-08
1.26577e-07
-2.43742e-08
1.33584e-07
-6.21168e-09
1.35081e-07
1.05265e-08
1.31559e-07
2.55324e-08
1.23617e-07
3.85196e-08
1.11947e-07
4.92091e-08
9.73385e-08
5.73114e-08
8.06708e-08
6.25088e-08
6.29184e-08
6.44418e-08
4.51537e-08
6.27085e-08
2.85564e-08
5.68863e-08
1.44363e-08
4.65853e-08
4.2901e-09
3.15487e-08
1.18554e-08
6.72839e-11
-4.2185e-09
-9.77847e-10
-5.43438e-09
-3.92137e-09
-1.81723e-09
-9.25266e-09
4.96846e-09
-1.72669e-08
1.37464e-08
-2.81279e-08
2.36649e-08
-4.1915e-08
3.4144e-08
-5.86581e-08
4.48221e-08
-7.83622e-08
5.54992e-08
-1.01023e-07
6.60873e-08
-1.26637e-07
7.65691e-08
-1.552e-07
8.69646e-08
-1.86711e-07
9.7305e-08
-2.21165e-07
1.07615e-07
-2.58545e-07
1.17899e-07
-2.98818e-07
1.28135e-07
-3.41923e-07
1.3827e-07
-3.87766e-07
1.48219e-07
-4.36211e-07
1.57866e-07
-4.87075e-07
1.67067e-07
-5.40123e-07
1.75654e-07
-5.95065e-07
1.83437e-07
-6.51551e-07
1.90215e-07
-7.09176e-07
1.95773e-07
-7.67479e-07
1.99895e-07
-8.25948e-07
2.02367e-07
-8.84025e-07
2.02984e-07
-9.4111e-07
2.01558e-07
-9.96579e-07
1.97922e-07
-1.04978e-06
1.91939e-07
-1.10007e-06
1.83504e-07
-1.14678e-06
1.72554e-07
-1.18928e-06
1.59067e-07
-1.22695e-06
1.43071e-07
-1.25922e-06
1.24641e-07
-1.28556e-06
1.03902e-07
-1.3055e-06
8.10312e-08
-1.31864e-06
5.62535e-08
-1.32465e-06
2.98435e-08
-1.32328e-06
2.1276e-09
-1.31436e-06
-2.65719e-08
-1.29782e-06
-5.58255e-08
-1.2737e-06
-8.52185e-08
-1.24211e-06
-1.14305e-07
-1.20328e-06
-1.4262e-07
-1.15754e-06
-1.69694e-07
-1.10529e-06
-1.95057e-07
-1.04707e-06
-2.18251e-07
-9.83498e-07
-2.3884e-07
-9.15268e-07
-2.56422e-07
-8.43171e-07
-2.70641e-07
-7.68063e-07
-2.81199e-07
-6.90861e-07
-2.87863e-07
-6.12529e-07
-2.90481e-07
-5.34056e-07
-2.88985e-07
-4.56444e-07
-2.834e-07
-3.80683e-07
-2.73847e-07
-3.07731e-07
-2.6054e-07
-2.38496e-07
-2.43786e-07
-1.73807e-07
-2.23975e-07
-1.14402e-07
-2.01569e-07
-6.09041e-08
-1.77089e-07
-1.3815e-08
-1.51098e-07
2.65096e-08
-1.24182e-07
5.98555e-08
-9.69314e-08
8.61588e-08
-6.99263e-08
1.05505e-07
-4.37202e-08
1.18124e-07
-1.88308e-08
1.24386e-07
4.26471e-09
1.2479e-07
2.51276e-08
1.19961e-07
4.33487e-08
1.10636e-07
5.85342e-08
9.76615e-08
7.02861e-08
8.19885e-08
7.81817e-08
6.46736e-08
8.17567e-08
4.68842e-08
8.04979e-08
2.99171e-08
7.38535e-08
1.52357e-08
6.12667e-08
4.5478e-09
4.22366e-08
1.64032e-08
-6.03756e-10
-3.61472e-09
-3.36245e-09
-2.67573e-09
-8.85633e-09
3.67664e-09
-1.74181e-08
1.35302e-08
-2.92247e-08
2.5553e-08
-4.43548e-08
3.8795e-08
-6.28314e-08
5.26206e-08
-8.46513e-08
6.6642e-08
-1.09804e-07
8.06521e-08
-1.38283e-07
9.45656e-08
-1.70084e-07
1.08371e-07
-2.05212e-07
1.22092e-07
-2.43667e-07
1.35759e-07
-2.85439e-07
1.49387e-07
-3.30503e-07
1.62963e-07
-3.78805e-07
1.76437e-07
-4.30256e-07
1.89721e-07
-4.8472e-07
2.02683e-07
-5.42013e-07
2.15159e-07
-6.01891e-07
2.26946e-07
-6.64053e-07
2.37815e-07
-7.28132e-07
2.47517e-07
-7.93702e-07
2.55784e-07
-8.60273e-07
2.62344e-07
-9.27302e-07
2.66923e-07
-9.94194e-07
2.69259e-07
-1.06031e-06
2.69103e-07
-1.12499e-06
2.66236e-07
-1.18754e-06
2.60469e-07
-1.24725e-06
2.51654e-07
-1.30344e-06
2.39688e-07
-1.3554e-06
2.2452e-07
-1.40249e-06
2.06156e-07
-1.44408e-06
1.84657e-07
-1.47958e-06
1.60145e-07
-1.50848e-06
1.32798e-07
-1.5303e-06
1.02857e-07
-1.54467e-06
7.06151e-08
-1.55124e-06
3.64222e-08
-1.54982e-06
7.06915e-10
-1.54021e-06
-3.6184e-08
-1.52236e-06
-7.36738e-08
-1.4963e-06
-1.11276e-07
-1.46216e-06
-1.48451e-07
-1.42014e-06
-1.84639e-07
-1.37057e-06
-2.19268e-07
-1.31385e-06
-2.51771e-07
-1.25051e-06
-2.81591e-07
-1.18116e-06
-3.08194e-07
-1.10649e-06
-3.31084e-07
-1.02732e-06
-3.49817e-07
-9.44507e-07
-3.64011e-07
-8.59006e-07
-3.73364e-07
-7.71822e-07
-3.77665e-07
-6.84002e-07
-3.76804e-07
-5.9662e-07
-3.70783e-07
-5.1075e-07
-3.59717e-07
-4.27448e-07
-3.43842e-07
-3.47727e-07
-3.23507e-07
-2.72532e-07
-2.99169e-07
-2.02721e-07
-2.7138e-07
-1.39038e-07
-2.40772e-07
-8.20987e-08
-2.08038e-07
-3.23716e-08
-1.73909e-07
9.82935e-09
-1.39132e-07
4.43533e-08
-1.0445e-07
7.12149e-08
-7.05818e-08
9.05922e-08
-3.8208e-08
1.02822e-07
-7.96469e-09
1.0839e-07
1.9559e-08
1.07926e-07
4.38124e-08
1.02191e-07
6.42696e-08
9.20687e-08
8.04084e-08
7.85629e-08
9.16875e-08
6.27949e-08
9.75248e-08
4.60115e-08
9.72813e-08
2.96067e-08
9.02582e-08
1.51647e-08
7.57087e-08
4.53593e-09
5.28653e-08
2.09392e-08
-1.36913e-09
-2.24561e-09
-6.09214e-09
2.04727e-09
-1.44934e-08
1.20779e-08
-2.67077e-08
2.57445e-08
-4.27609e-08
4.16062e-08
-6.26228e-08
5.86569e-08
-8.62425e-08
7.62403e-08
-1.13572e-07
9.39715e-08
-1.44578e-07
1.11658e-07
-1.79243e-07
1.29231e-07
-2.17566e-07
1.46694e-07
-2.5955e-07
1.64076e-07
-3.05196e-07
1.81405e-07
-3.54489e-07
1.9868e-07
-4.07389e-07
2.15863e-07
-4.63818e-07
2.32866e-07
-5.23652e-07
2.49555e-07
-5.86713e-07
2.65745e-07
-6.52762e-07
2.81208e-07
-7.21496e-07
2.95679e-07
-7.92541e-07
3.08861e-07
-8.65461e-07
3.20437e-07
-9.39752e-07
3.30075e-07
-1.01485e-06
3.37442e-07
-1.09014e-06
3.42213e-07
-1.16496e-06
3.44077e-07
-1.23861e-06
3.42755e-07
-1.31037e-06
3.38e-07
-1.37952e-06
3.29612e-07
-1.44531e-06
3.17445e-07
-1.50703e-06
3.01407e-07
-1.56398e-06
2.81471e-07
-1.6155e-06
2.57675e-07
-1.66096e-06
2.30123e-07
-1.6998e-06
1.98986e-07
-1.73151e-06
1.64502e-07
-1.75562e-06
1.26973e-07
-1.77177e-06
8.67584e-08
-1.77961e-06
4.42718e-08
-1.77899e-06
7.98024e-11
-1.76964e-06
-4.55355e-08
-1.75154e-06
-9.17727e-08
-1.72469e-06
-1.38123e-07
-1.68919e-06
-1.8395e-07
-1.64523e-06
-2.286e-07
-1.59309e-06
-2.7141e-07
-1.53315e-06
-3.11711e-07
-1.4659e-06
-3.48845e-07
-1.39191e-06
-3.82179e-07
-1.31188e-06
-4.11114e-07
-1.22659e-06
-4.35107e-07
-1.13692e-06
-4.53684e-07
-1.04383e-06
-4.66456e-07
-9.48352e-07
-4.73139e-07
-8.51594e-07
-4.73563e-07
-7.5469e-07
-4.67687e-07
-6.58798e-07
-4.55608e-07
-5.65075e-07
-4.37565e-07
-4.74645e-07
-4.13937e-07
-3.88577e-07
-3.85237e-07
-3.07855e-07
-3.52101e-07
-2.33357e-07
-3.1527e-07
-1.65828e-07
-2.75568e-07
-1.0586e-07
-2.33876e-07
-5.38836e-08
-1.91109e-07
-1.0149e-08
-1.48185e-07
2.5273e-08
-1.06004e-07
5.24934e-08
-6.54284e-08
7.18006e-08
-2.72719e-08
8.36537e-08
7.70595e-09
8.86717e-08
3.87944e-08
8.7624e-08
6.53172e-08
8.14201e-08
8.66122e-08
7.11027e-08
1.02005e-07
5.78458e-08
1.10782e-07
4.29618e-08
1.12165e-07
2.79225e-08
1.05298e-07
1.43975e-08
8.92337e-08
4.3186e-09
6.29442e-08
2.52578e-08
-2.21506e-09
-3.05514e-11
-9.10839e-09
8.94062e-09
-2.07137e-08
2.36833e-08
-3.69306e-08
4.19613e-08
-5.76065e-08
6.22822e-08
-8.25812e-08
8.36316e-08
-1.11716e-07
1.05375e-07
-1.44907e-07
1.27163e-07
-1.82091e-07
1.48842e-07
-2.23239e-07
1.70378e-07
-2.68342e-07
1.91797e-07
-3.17405e-07
2.13139e-07
-3.70422e-07
2.34423e-07
-4.27371e-07
2.55629e-07
-4.88192e-07
2.76684e-07
-5.52781e-07
2.97455e-07
-6.20975e-07
3.17749e-07
-6.92551e-07
3.3732e-07
-7.67212e-07
3.55869e-07
-8.44594e-07
3.7306e-07
-9.24258e-07
3.88525e-07
-1.0057e-06
4.01877e-07
-1.08834e-06
4.12721e-07
-1.17157e-06
4.20666e-07
-1.25469e-06
4.25338e-07
-1.33701e-06
4.26391e-07
-1.41777e-06
4.23517e-07
-1.49623e-06
4.1646e-07
-1.57163e-06
4.05016e-07
-1.64324e-06
3.89048e-07
-1.71032e-06
3.68488e-07
-1.77219e-06
3.43339e-07
-1.82819e-06
3.13676e-07
-1.87772e-06
2.79651e-07
-1.92022e-06
2.41486e-07
-1.95519e-06
1.99472e-07
-1.98218e-06
1.53971e-07
-2.00083e-06
1.05405e-07
-2.01082e-06
5.4259e-08
-2.01184e-06
1.10457e-09
-2.00381e-06
-5.35651e-08
-1.98657e-06
-1.09018e-07
-1.96009e-06
-1.64605e-07
-1.92442e-06
-2.19616e-07
-1.87971e-06
-2.73313e-07
-1.82618e-06
-3.24937e-07
-1.76417e-06
-3.73725e-07
-1.6941e-06
-4.18916e-07
-1.61651e-06
-4.59769e-07
-1.53204e-06
-4.95578e-07
-1.44146e-06
-5.25689e-07
-1.34562e-06
-5.4952e-07
-1.2455e-06
-5.66582e-07
-1.14214e-06
-5.76494e-07
-1.0367e-06
-5.79008e-07
-9.30362e-07
-5.74021e-07
-8.24381e-07
-5.61589e-07
-7.20012e-07
-5.41935e-07
-6.185e-07
-5.15449e-07
-5.21047e-07
-4.8269e-07
-4.28781e-07
-4.44367e-07
-3.42725e-07
-4.01326e-07
-2.63771e-07
-3.54521e-07
-1.92655e-07
-3.04992e-07
-1.29936e-07
-2.53829e-07
-7.59814e-08
-2.02139e-07
-3.09634e-08
-1.51022e-07
5.14837e-09
-1.0154e-07
3.25819e-08
-5.47055e-08
5.17559e-08
-1.1468e-08
6.32695e-08
2.72808e-08
6.78907e-08
6.0696e-08
6.65447e-08
8.79583e-08
6.03048e-08
1.08245e-07
5.03889e-08
1.20698e-07
3.8163e-08
1.24391e-07
2.51581e-08
1.18303e-07
1.30992e-08
1.01293e-07
3.95182e-09
7.20915e-08
2.92096e-08
-3.123e-09
3.09244e-09
-1.23649e-08
1.81825e-08
-2.74188e-08
3.87372e-08
-4.79234e-08
6.24659e-08
-7.35244e-08
8.78831e-08
-1.03915e-07
1.14022e-07
-1.38855e-07
1.40315e-07
-1.7818e-07
1.66487e-07
-2.21789e-07
1.92451e-07
-2.69635e-07
2.18224e-07
-3.21703e-07
2.43865e-07
-3.7799e-07
2.69426e-07
-4.38486e-07
2.94919e-07
-5.03153e-07
3.20296e-07
-5.71911e-07
3.45442e-07
-6.44624e-07
3.70167e-07
-7.21089e-07
3.94214e-07
-8.01033e-07
4.17263e-07
-8.84106e-07
4.38942e-07
-9.69882e-07
4.58837e-07
-1.05786e-06
4.76507e-07
-1.14748e-06
4.91496e-07
-1.23811e-06
5.03349e-07
-1.32907e-06
5.11624e-07
-1.41964e-06
5.15907e-07
-1.50907e-06
5.15823e-07
-1.5966e-06
5.11049e-07
-1.68147e-06
5.01325e-07
-1.76291e-06
4.86458e-07
-1.84019e-06
4.66328e-07
-1.9126e-06
4.40894e-07
-1.97945e-06
4.10196e-07
-2.04013e-06
3.7435e-07
-2.09403e-06
3.33552e-07
-2.14061e-06
2.88073e-07
-2.1794e-06
2.38254e-07
-2.20993e-06
1.84508e-07
-2.23184e-06
1.27313e-07
-2.24479e-06
6.72066e-08
-2.24848e-06
4.79542e-09
-2.24274e-06
-5.93054e-08
-2.2274e-06
-1.24361e-07
-2.20237e-06
-1.89633e-07
-2.16765e-06
-2.54338e-07
-2.1233e-06
-3.17655e-07
-2.0695e-06
-3.7874e-07
-2.0065e-06
-4.36731e-07
-1.93464e-06
-4.90766e-07
-1.85442e-06
-5.39992e-07
-1.76641e-06
-5.83587e-07
-1.67133e-06
-6.20774e-07
-1.57e-06
-6.5085e-07
-1.46337e-06
-6.73204e-07
-1.35253e-06
-6.87341e-07
-1.23863e-06
-6.9291e-07
-1.12293e-06
-6.89719e-07
-1.00676e-06
-6.77758e-07
-8.91484e-07
-6.57211e-07
-7.78473e-07
-6.28461e-07
-6.69074e-07
-5.92089e-07
-5.64574e-07
-5.48868e-07
-4.66162e-07
-4.99738e-07
-3.74896e-07
-4.45787e-07
-2.91675e-07
-3.88214e-07
-2.17209e-07
-3.28294e-07
-1.52005e-07
-2.67343e-07
-9.63525e-08
-2.06675e-07
-5.03173e-08
-1.47575e-07
-1.37461e-08
-9.12767e-08
1.37286e-08
-3.89427e-08
3.26768e-08
8.33259e-09
4.38575e-08
4.95153e-08
4.82053e-08
8.36104e-08
4.68185e-08
1.09632e-07
4.09514e-08
1.26565e-07
3.20149e-08
1.33328e-07
2.15841e-08
1.28733e-07
1.14176e-08
1.11459e-07
3.48327e-09
8.00258e-08
3.26929e-08
-4.09648e-09
7.1889e-09
-1.58247e-08
2.99107e-08
-3.45221e-08
5.74347e-08
-5.95374e-08
8.74811e-08
-9.02948e-08
1.18641e-07
-1.26327e-07
1.50054e-07
-1.67285e-07
1.81273e-07
-2.12933e-07
2.12136e-07
-2.63132e-07
2.4265e-07
-3.17812e-07
2.72905e-07
-3.76949e-07
3.03002e-07
-4.40531e-07
3.33008e-07
-5.08535e-07
3.62924e-07
-5.80909e-07
3.9267e-07
-6.57545e-07
4.22078e-07
-7.38273e-07
4.50896e-07
-8.2285e-07
4.78792e-07
-9.10954e-07
5.05367e-07
-1.00218e-06
5.30169e-07
-1.09605e-06
5.52707e-07
-1.19201e-06
5.72467e-07
-1.28944e-06
5.88928e-07
-1.38767e-06
6.01579e-07
-1.48598e-06
6.09935e-07
-1.58363e-06
6.13551e-07
-1.67984e-06
6.12035e-07
-1.77385e-06
6.05059e-07
-1.86489e-06
5.92367e-07
-1.95222e-06
5.73783e-07
-2.0351e-06
5.49214e-07
-2.11286e-06
5.18651e-07
-2.18483e-06
4.82169e-07
-2.25041e-06
4.39925e-07
-2.30901e-06
3.92156e-07
-2.36012e-06
3.39177e-07
-2.40323e-06
2.81372e-07
-2.43792e-06
2.19198e-07
-2.46379e-06
1.53176e-07
-2.48047e-06
8.38891e-08
-2.48766e-06
1.19836e-08
-2.48511e-06
-6.18545e-08
-2.47261e-06
-1.36857e-07
-2.45003e-06
-2.1222e-07
-2.41727e-06
-2.87095e-07
-2.37434e-06
-3.60586e-07
-2.32131e-06
-4.31767e-07
-2.25836e-06
-4.99684e-07
-2.18575e-06
-5.6337e-07
-2.10389e-06
-6.21861e-07
-2.01326e-06
-6.74209e-07
-1.91453e-06
-7.19509e-07
-1.80846e-06
-7.56918e-07
-1.69598e-06
-7.85687e-07
-1.57813e-06
-8.05183e-07
-1.45612e-06
-8.14924e-07
-1.33123e-06
-8.14604e-07
-1.20488e-06
-8.04116e-07
-1.07851e-06
-7.83574e-07
-9.5365e-07
-7.53324e-07
-8.31788e-07
-7.13951e-07
-7.14389e-07
-6.66267e-07
-6.02828e-07
-6.11299e-07
-4.98355e-07
-5.5026e-07
-4.02056e-07
-4.84512e-07
-3.14822e-07
-4.15528e-07
-2.37321e-07
-3.44844e-07
-1.69984e-07
-2.74012e-07
-1.12995e-07
-2.04565e-07
-6.62903e-08
-1.37981e-07
-2.95671e-08
-7.5666e-08
-2.29424e-09
-1.89402e-08
1.62714e-08
3.09497e-08
2.70685e-08
7.28133e-08
3.12159e-08
1.05484e-07
3.00004e-08
1.2778e-07
2.48708e-08
1.38457e-07
1.74376e-08
1.36166e-07
9.47967e-09
1.19417e-07
2.95269e-09
8.65528e-08
3.56456e-08
-5.11873e-09
1.23076e-08
-1.94475e-08
4.42394e-08
-4.19373e-08
7.99245e-08
-7.16268e-08
1.17171e-07
-1.07703e-07
1.54717e-07
-1.49528e-07
1.91879e-07
-1.96636e-07
2.28381e-07
-2.48718e-07
2.64218e-07
-3.05591e-07
2.99523e-07
-3.67162e-07
3.34476e-07
-4.33392e-07
3.69232e-07
-5.04257e-07
4.03873e-07
-5.79722e-07
4.38388e-07
-6.5971e-07
4.72659e-07
-7.44089e-07
5.06457e-07
-8.32653e-07
5.39459e-07
-9.25114e-07
5.71253e-07
-1.0211e-06
6.01356e-07
-1.12017e-06
6.29235e-07
-1.22178e-06
6.5432e-07
-1.32534e-06
6.76028e-07
-1.43019e-06
6.93778e-07
-1.53563e-06
7.07011e-07
-1.6409e-06
7.15209e-07
-1.74525e-06
7.17906e-07
-1.84792e-06
7.147e-07
-1.94813e-06
7.05267e-07
-2.04513e-06
6.89367e-07
-2.13819e-06
6.66846e-07
-2.22661e-06
6.37638e-07
-2.30973e-06
6.01769e-07
-2.38691e-06
5.59349e-07
-2.45756e-06
5.10573e-07
-2.52112e-06
4.55716e-07
-2.57707e-06
3.95127e-07
-2.62493e-06
3.29229e-07
-2.66424e-06
2.58512e-07
-2.6946e-06
1.83534e-07
-2.71562e-06
1.04913e-07
-2.72697e-06
2.33309e-08
-2.72835e-06
-6.04781e-08
-2.71949e-06
-1.4571e-07
-2.7002e-06
-2.31511e-07
-2.67032e-06
-3.16974e-07
-2.62977e-06
-4.01141e-07
-2.57852e-06
-4.83009e-07
-2.51667e-06
-5.61538e-07
-2.44438e-06
-6.35664e-07
-2.36193e-06
-7.04307e-07
-2.26974e-06
-7.66397e-07
-2.16837e-06
-8.20887e-07
-2.0585e-06
-8.66787e-07
-1.941e-06
-9.03189e-07
-1.81688e-06
-9.293e-07
-1.68732e-06
-9.44482e-07
-1.55365e-06
-9.48277e-07
-1.41732e-06
-9.40449e-07
-1.27988e-06
-9.21005e-07
-1.14299e-06
-8.90222e-07
-1.00828e-06
-8.48651e-07
-8.77431e-07
-7.97121e-07
-7.52006e-07
-7.36724e-07
-6.33478e-07
-6.68787e-07
-5.23153e-07
-5.94837e-07
-4.22133e-07
-5.16549e-07
-3.31281e-07
-4.35696e-07
-2.51199e-07
-3.54094e-07
-1.82214e-07
-2.73549e-07
-1.24378e-07
-1.95818e-07
-7.74677e-08
-1.22576e-07
-4.10041e-08
-5.54039e-08
-1.42681e-08
4.2137e-09
3.67781e-09
5.48674e-08
1.39696e-08
9.51925e-08
1.7924e-08
1.23826e-07
1.70248e-08
1.39356e-07
1.29148e-08
1.40277e-07
7.38954e-09
1.24942e-07
2.39214e-09
9.15502e-08
3.80377e-08
-6.17874e-09
1.84864e-08
-2.31911e-08
6.12517e-08
-4.95759e-08
1.06309e-07
-8.40438e-08
1.51638e-07
-1.25534e-07
1.96207e-07
-1.73228e-07
2.39573e-07
-2.26541e-07
2.81694e-07
-2.85088e-07
3.22764e-07
-3.48639e-07
3.63074e-07
-4.17076e-07
4.02913e-07
-4.90342e-07
4.42498e-07
-5.68401e-07
4.81931e-07
-6.51197e-07
5.21185e-07
-7.38632e-07
5.60094e-07
-8.30542e-07
5.98367e-07
-9.26684e-07
6.35601e-07
-1.02673e-06
6.71299e-07
-1.13027e-06
7.04893e-07
-1.2368e-06
7.35765e-07
-1.34575e-06
7.63273e-07
-1.45649e-06
7.86766e-07
-1.56832e-06
8.05614e-07
-1.68053e-06
8.19217e-07
-1.79235e-06
8.27033e-07
-1.90303e-06
8.28582e-07
-2.01179e-06
8.23464e-07
-2.11789e-06
8.11368e-07
-2.2206e-06
7.92071e-07
-2.3192e-06
7.65445e-07
-2.41302e-06
7.31457e-07
-2.50141e-06
6.90164e-07
-2.58377e-06
6.41711e-07
-2.65953e-06
5.86325e-07
-2.72812e-06
5.24315e-07
-2.78906e-06
4.56061e-07
-2.84185e-06
3.82017e-07
-2.88604e-06
3.02702e-07
-2.9212e-06
2.18699e-07
-2.94695e-06
1.30658e-07
-2.9629e-06
3.92866e-08
-2.96874e-06
-5.46461e-08
-2.96414e-06
-1.50307e-07
-2.94885e-06
-2.46802e-07
-2.92264e-06
-3.43179e-07
-2.88536e-06
-4.38428e-07
-2.83688e-06
-5.31484e-07
-2.77719e-06
-6.2123e-07
-2.70634e-06
-7.06511e-07
-2.62451e-06
-7.86143e-07
-2.53197e-06
-8.5893e-07
-2.42917e-06
-9.23686e-07
-2.3167e-06
-9.79262e-07
-2.19531e-06
-1.02458e-06
-2.06595e-06
-1.05866e-06
-1.92975e-06
-1.08068e-06
-1.78802e-06
-1.09e-06
-1.64226e-06
-1.08622e-06
-1.49408e-06
-1.06918e-06
-1.34524e-06
-1.03906e-06
-1.19757e-06
-9.96323e-07
-1.05291e-06
-9.41785e-07
-9.13062e-07
-8.76571e-07
-7.79746e-07
-8.02104e-07
-6.54518e-07
-7.20064e-07
-5.38732e-07
-6.32335e-07
-4.33485e-07
-5.40943e-07
-3.39591e-07
-4.47987e-07
-2.57557e-07
-3.55583e-07
-1.87575e-07
-2.658e-07
-1.29528e-07
-1.80623e-07
-8.30076e-08
-1.01925e-07
-4.73299e-08
-3.1464e-08
-2.15656e-08
2.91031e-08
-4.56481e-09
7.81917e-08
5.018e-09
1.14243e-07
8.70275e-09
1.35672e-07
8.16626e-09
1.40813e-07
5.22672e-09
1.27882e-07
1.82586e-09
9.49511e-08
3.98636e-08
-7.26481e-09
2.57512e-08
-2.7011e-08
8.09978e-08
-5.73447e-08
1.36643e-07
-9.66354e-08
1.90929e-07
-1.43565e-07
2.43136e-07
-1.97132e-07
2.93141e-07
-2.5663e-07
3.41191e-07
-3.21593e-07
3.87728e-07
-3.91748e-07
4.33229e-07
-4.66947e-07
4.78112e-07
-5.47114e-07
5.22665e-07
-6.32195e-07
5.67012e-07
-7.22115e-07
6.11105e-07
-8.1675e-07
6.54728e-07
-9.15902e-07
6.9752e-07
-1.01929e-06
7.38992e-07
-1.12655e-06
7.7856e-07
-1.23723e-06
8.15569e-07
-1.35079e-06
8.49322e-07
-1.46662e-06
8.79103e-07
-1.58406e-06
9.04207e-07
-1.7024e-06
9.23955e-07
-1.8209e-06
9.3772e-07
-1.93881e-06
9.44941e-07
-2.05536e-06
9.45136e-07
-2.16981e-06
9.37914e-07
-2.28142e-06
9.22977e-07
-2.38948e-06
9.00128e-07
-2.4933e-06
8.69267e-07
-2.59224e-06
8.30391e-07
-2.68566e-06
7.83589e-07
-2.77299e-06
7.29038e-07
-2.85366e-06
6.66998e-07
-2.92715e-06
5.97805e-07
-2.99296e-06
5.2187e-07
-3.05061e-06
4.3967e-07
-3.09966e-06
3.51751e-07
-3.13968e-06
2.58719e-07
-3.17027e-06
1.61244e-07
-3.19104e-06
6.00562e-08
-3.20163e-06
-4.40523e-08
-3.20171e-06
-1.50227e-07
-3.19096e-06
-2.57548e-07
-3.16911e-06
-3.65034e-07
-3.1359e-06
-4.71636e-07
-3.09115e-06
-5.7624e-07
-3.0347e-06
-6.77673e-07
-2.96651e-06
-7.74701e-07
-2.88661e-06
-8.66048e-07
-2.79513e-06
-9.50403e-07
-2.69238e-06
-1.02644e-06
-2.57879e-06
-1.09285e-06
-2.45498e-06
-1.14838e-06
-2.32179e-06
-1.19185e-06
-2.18025e-06
-1.22222e-06
-2.03163e-06
-1.23863e-06
-1.87739e-06
-1.24046e-06
-1.7192e-06
-1.22737e-06
-1.55891e-06
-1.19935e-06
-1.39848e-06
-1.15675e-06
-1.23995e-06
-1.10031e-06
-1.08537e-06
-1.03115e-06
-9.36722e-07
-9.50753e-07
-7.95853e-07
-8.60934e-07
-6.64407e-07
-7.63781e-07
-5.43768e-07
-6.61582e-07
-4.35006e-07
-5.56749e-07
-3.38855e-07
-4.51735e-07
-2.55689e-07
-3.48966e-07
-1.85532e-07
-2.5078e-07
-1.28067e-07
-1.59389e-07
-8.2666e-08
-7.68654e-08
-4.84167e-08
-5.14621e-09
-2.41603e-08
5.39353e-08
-8.52248e-09
9.86051e-08
5.62644e-11
1.27093e-07
3.29452e-09
1.37575e-07
3.0454e-09
1.28131e-07
1.27023e-09
9.67263e-08
4.11338e-08
-8.36337e-09
3.41146e-08
-3.08587e-08
1.03493e-07
-6.5145e-08
1.70929e-07
-1.09241e-07
2.35025e-07
-1.61568e-07
2.95463e-07
-2.20941e-07
3.52513e-07
-2.86526e-07
4.06777e-07
-3.57783e-07
4.58984e-07
-4.34388e-07
5.09835e-07
-5.16167e-07
5.59891e-07
-6.03021e-07
6.09519e-07
-6.94876e-07
6.58867e-07
-7.91635e-07
7.07863e-07
-8.93143e-07
7.56237e-07
-9.99173e-07
8.0355e-07
-1.10941e-06
8.49227e-07
-1.22344e-06
8.92594e-07
-1.34078e-06
9.3291e-07
-1.46086e-06
9.69402e-07
-1.58305e-06
1.00129e-06
-1.70665e-06
1.02781e-06
-1.83095e-06
1.04826e-06
-1.95521e-06
1.06197e-06
-2.07866e-06
1.0684e-06
-2.20057e-06
1.06704e-06
-2.32019e-06
1.05753e-06
-2.4368e-06
1.03959e-06
-2.54972e-06
1.01305e-06
-2.65829e-06
9.77831e-07
-2.76186e-06
9.33969e-07
-2.85986e-06
8.81583e-07
-2.9517e-06
8.20881e-07
-3.03686e-06
7.52153e-07
-3.11482e-06
6.75766e-07
-3.1851e-06
5.92158e-07
-3.24727e-06
5.01831e-07
-3.30087e-06
4.05354e-07
-3.3455e-06
3.03354e-07
-3.38078e-06
1.96518e-07
-3.40631e-06
8.55904e-08
-3.42174e-06
-2.86237e-08
-3.42671e-06
-1.45258e-07
-3.42087e-06
-2.63383e-07
-3.40391e-06
-3.82002e-07
-3.3755e-06
-5.00047e-07
-3.33536e-06
-6.16377e-07
-3.28325e-06
-7.2978e-07
-3.21899e-06
-8.38968e-07
-3.14245e-06
-9.42588e-07
-3.05362e-06
-1.03923e-06
-2.95261e-06
-1.12745e-06
-2.83968e-06
-1.20578e-06
-2.71528e-06
-1.27278e-06
-2.58008e-06
-1.32706e-06
-2.43495e-06
-1.36734e-06
-2.28105e-06
-1.39252e-06
-2.11979e-06
-1.40172e-06
-1.95283e-06
-1.39434e-06
-1.78204e-06
-1.37013e-06
-1.60952e-06
-1.32927e-06