/*--------------------------------*- C++ -*----------------------------------*\
  =========                 |
  \\      /  F ield         | OpenFOAM: The Open Source CFD Toolbox
   \\    /   O peration     | Website:  https://openfoam.org
    \\  /    A nd           | Version:  7
     \\/     M anipulation  |
\*---------------------------------------------------------------------------*/
FoamFile
{
    version     2.0;
    format      ascii;
    class       volVectorField;
    location    "1.85";
    object      U;
}
// * * * * * * * * * * * * * * * * * * * * * * * * * * * * * * * * * * * * * //

dimensions      [0 1 -1 0 0 0 0];

internalField   nonuniform List<vector> 
6400
(
(1.0942e-05 -1.08776e-05 0)
(6.34755e-05 -3.25303e-05 0)
(0.000153427 -3.98697e-05 0)
(0.000243439 -3.68609e-05 0)
(0.000313511 -2.86864e-05 0)
(0.000354805 -1.84686e-05 0)
(0.000363737 -7.87529e-06 0)
(0.000339706 2.28352e-06 0)
(0.000283678 1.16992e-05 0)
(0.00019721 2.03539e-05 0)
(8.18678e-05 2.8366e-05 0)
(-6.10802e-05 3.59286e-05 0)
(-0.000230797 4.32448e-05 0)
(-0.000426889 5.04966e-05 0)
(-0.000649352 5.78341e-05 0)
(-0.000898477 6.53661e-05 0)
(-0.00117473 7.31582e-05 0)
(-0.00147861 8.12335e-05 0)
(-0.00181057 8.95751e-05 0)
(-0.00217086 9.81289e-05 0)
(-0.00255942 0.000106808 0)
(-0.00297582 0.000115494 0)
(-0.00341912 0.000124043 0)
(-0.00388784 0.00013228 0)
(-0.00437985 0.00014001 0)
(-0.00489234 0.000147013 0)
(-0.00542174 0.00015305 0)
(-0.00596372 0.000157868 0)
(-0.00651317 0.0001612 0)
(-0.00706419 0.000162778 0)
(-0.0076101 0.000162334 0)
(-0.00814356 0.000159613 0)
(-0.00865657 0.000154381 0)
(-0.00914066 0.000146438 0)
(-0.00958695 0.000135627 0)
(-0.00998639 0.000121845 0)
(-0.0103299 0.000105059 0)
(-0.0106088 8.53136e-05 0)
(-0.0108145 6.27471e-05 0)
(-0.0109395 3.76039e-05 0)
(-0.0109772 1.02144e-05 0)
(-0.0109221 -1.91602e-05 0)
(-0.0107704 -4.98546e-05 0)
(-0.01052 -8.1261e-05 0)
(-0.0101706 -0.00011271 0)
(-0.00972424 -0.000143467 0)
(-0.00918492 -0.000172754 0)
(-0.00855897 -0.000199786 0)
(-0.00785489 -0.000223797 0)
(-0.0070832 -0.000244072 0)
(-0.00625631 -0.000259981 0)
(-0.00538817 -0.000271012 0)
(-0.00449396 -0.000276792 0)
(-0.00358964 -0.000277117 0)
(-0.0026915 -0.000271959 0)
(-0.00181568 -0.00026148 0)
(-0.000977631 -0.000246021 0)
(-0.000191664 -0.000226094 0)
(0.000529458 -0.000202359 0)
(0.00117493 -0.000175558 0)
(0.0017362 -0.000146548 0)
(0.0022071 -0.000116197 0)
(0.00258391 -8.53615e-05 0)
(0.00286539 -5.48539e-05 0)
(0.0030526 -2.53967e-05 0)
(0.00314867 2.39744e-06 0)
(0.00315854 2.80405e-05 0)
(0.00308863 5.1174e-05 0)
(0.00294656 7.15557e-05 0)
(0.00274083 8.90288e-05 0)
(0.00248074 0.000103472 0)
(0.00217629 0.000114725 0)
(0.00183842 0.000122482 0)
(0.00147943 0.000126139 0)
(0.00111384 0.000124604 0)
(0.000759583 0.000116089 0)
(0.000439264 9.80297e-05 0)
(0.000180656 6.72284e-05 0)
(1.60772e-05 2.23347e-05 0)
(-1.92056e-05 -1.92983e-05 0)
(3.3217e-05 -6.38271e-05 0)
(0.000144527 -0.00014339 0)
(0.000305747 -0.000163625 0)
(0.000452378 -0.000141707 0)
(0.000547194 -9.55068e-05 0)
(0.000570975 -3.73002e-05 0)
(0.000513786 2.53234e-05 0)
(0.000371859 8.80393e-05 0)
(0.000145208 0.000148762 0)
(-0.000164323 0.000206831 0)
(-0.000554356 0.000262421 0)
(-0.00102274 0.000316138 0)
(-0.00156798 0.000368747 0)
(-0.00218928 0.000420987 0)
(-0.00288652 0.000473468 0)
(-0.00366005 0.000526597 0)
(-0.0045104 0.000580562 0)
(-0.00543803 0.000635313 0)
(-0.006443 0.00069057 0)
(-0.0075247 0.000745841 0)
(-0.00868157 0.000800436 0)
(-0.00991088 0.000853482 0)
(-0.0112085 0.000903949 0)
(-0.0125686 0.00095066 0)
(-0.0139838 0.00099232 0)
(-0.0154447 0.00102754 0)
(-0.01694 0.00105484 0)
(-0.0184565 0.00107273 0)
(-0.019979 0.00107969 0)
(-0.0214905 0.00107427 0)
(-0.0229723 0.00105509 0)
(-0.0244041 0.00102091 0)
(-0.0257644 0.00097069 0)
(-0.0270311 0.000903654 0)
(-0.0281813 0.000819321 0)
(-0.0291922 0.000717576 0)
(-0.0300418 0.000598714 0)
(-0.0307088 0.000463482 0)
(-0.0311739 0.000313107 0)
(-0.0314198 0.00014931 0)
(-0.0314324 -2.57171e-05 0)
(-0.0312004 -0.000209334 0)
(-0.0307168 -0.00039832 0)
(-0.0299791 -0.000589149 0)
(-0.0289892 -0.000777983 0)
(-0.027754 -0.000960763 0)
(-0.0262856 -0.00113332 0)
(-0.0246011 -0.00129151 0)
(-0.0227224 -0.00143135 0)
(-0.0206761 -0.00154918 0)
(-0.0184928 -0.00164179 0)
(-0.0162066 -0.00170657 0)
(-0.0138542 -0.00174165 0)
(-0.011474 -0.00174597 0)
(-0.00910547 -0.00171938 0)
(-0.00678739 -0.00166263 0)
(-0.00455742 -0.00157739 0)
(-0.00245073 -0.00146622 0)
(-0.000499121 -0.0013324 0)
(0.00126982 -0.00117982 0)
(0.00283344 -0.00101283 0)
(0.00417455 -0.000836043 0)
(0.00528157 -0.000654113 0)
(0.00614874 -0.000471584 0)
(0.00677591 -0.000292655 0)
(0.00716815 -0.000121086 0)
(0.00733534 3.98938e-05 0)
(0.00729153 0.000187625 0)
(0.00705438 0.000319968 0)
(0.00664463 0.000435174 0)
(0.0060858 0.000531668 0)
(0.00540407 0.000607731 0)
(0.00462856 0.000661083 0)
(0.00379202 0.000688381 0)
(0.00293197 0.000684682 0)
(0.002092 0.000643132 0)
(0.00132212 0.000555406 0)
(0.000676932 0.000413548 0)
(0.000219075 0.000218008 0)
(2.28061e-05 1.62123e-05 0)
(4.14725e-05 -0.000155761 0)
(0.000165795 -0.0003054 0)
(0.000325348 -0.000325789 0)
(0.000443667 -0.000256746 0)
(0.000476836 -0.000132439 0)
(0.000401155 2.2008e-05 0)
(0.000203239 0.000189753 0)
(-0.000123 0.000360519 0)
(-0.000578867 0.000528845 0)
(-0.00116318 0.000692528 0)
(-0.00187384 0.000851431 0)
(-0.00270879 0.00100653 0)
(-0.00366652 0.00115928 0)
(-0.00474622 0.00131116 0)
(-0.00594768 0.00146333 0)
(-0.007271 0.00161651 0)
(-0.00871627 0.00177084 0)
(-0.0102831 0.00192586 0)
(-0.0119703 0.00208054 0)
(-0.0137754 0.00223327 0)
(-0.0156941 0.00238191 0)
(-0.0177204 0.00252389 0)
(-0.0198457 0.00265619 0)
(-0.022059 0.00277549 0)
(-0.0243467 0.00287816 0)
(-0.0266922 0.00296037 0)
(-0.0290761 0.00301822 0)
(-0.0314762 0.00304776 0)
(-0.0338676 0.00304515 0)
(-0.0362229 0.00300677 0)
(-0.0385125 0.00292938 0)
(-0.0407052 0.00281018 0)
(-0.0427683 0.00264702 0)
(-0.0446687 0.0024385 0)
(-0.0463732 0.0021841 0)
(-0.047849 0.0018843 0)
(-0.0490651 0.00154063 0)
(-0.0499924 0.0011558 0)
(-0.0506049 0.000733704 0)
(-0.0508804 0.000279383 0)
(-0.0508009 -0.00020098 0)
(-0.0503536 -0.000699884 0)
(-0.0495314 -0.0012091 0)
(-0.0483335 -0.0017195 0)
(-0.0467654 -0.00222131 0)
(-0.0448393 -0.00270436 0)
(-0.0425745 -0.00315833 0)
(-0.0399968 -0.00357311 0)
(-0.0371383 -0.00393904 0)
(-0.0340373 -0.00424729 0)
(-0.0307373 -0.00449015 0)
(-0.0272864 -0.00466139 0)
(-0.023736 -0.00475645 0)
(-0.0201402 -0.00477276 0)
(-0.0165539 -0.00470983 0)
(-0.0130321 -0.00456936 0)
(-0.00962793 -0.00435521 0)
(-0.00639189 -0.0040733 0)
(-0.00337012 -0.00373142 0)
(-0.000603414 -0.00333893 0)
(0.0018738 -0.00290637 0)
(0.00403426 -0.00244506 0)
(0.00585834 -0.00196659 0)
(0.00733435 -0.00148261 0)
(0.00845858 -0.00100404 0)
(0.00923493 -0.000540973 0)
(0.00967445 -0.000102417 0)
(0.00979479 0.000303849 0)
(0.00961952 0.000671192 0)
(0.00917743 0.000993875 0)
(0.00850218 0.00126661 0)
(0.00763198 0.00148389 0)
(0.0066098 0.00163925 0)
(0.00548379 0.00172431 0)
(0.00430811 0.00172813 0)
(0.00314382 0.00163709 0)
(0.00205797 0.00143654 0)
(0.00112073 0.00111517 0)
(0.000417598 0.000677053 0)
(6.85255e-05 0.00018243 0)
(3.85543e-05 -0.000247764 0)
(0.000139528 -0.000449282 0)
(0.000240247 -0.000441366 0)
(0.000263634 -0.000291847 0)
(0.000165325 -5.29576e-05 0)
(-7.90782e-05 0.000236604 0)
(-0.000483664 0.000550198 0)
(-0.00105525 0.000871128 0)
(-0.0017959 0.00119015 0)
(-0.00270516 0.00150321 0)
(-0.00378155 0.00180962 0)
(-0.00502354 0.0021106 0)
(-0.00643002 0.00240817 0)
(-0.00800035 0.00270435 0)
(-0.00973424 0.00300069 0)
(-0.0116314 0.00329789 0)
(-0.013691 0.00359567 0)
(-0.0159113 0.00389266 0)
(-0.018289 0.00418643 0)
(-0.020819 0.00447356 0)
(-0.0234934 0.00474968 0)
(-0.026302 0.00500963 0)
(-0.0292309 0.00524753 0)
(-0.0322632 0.00545697 0)
(-0.0353784 0.0056311 0)
(-0.0385524 0.00576282 0)
(-0.0417575 0.00584499 0)
(-0.0449627 0.00587057 0)
(-0.0481341 0.0058329 0)
(-0.0512348 0.00572586 0)
(-0.0542261 0.00554418 0)
(-0.0570674 0.0052836 0)
(-0.0597174 0.00494113 0)
(-0.0621346 0.00451528 0)
(-0.0642785 0.00400619 0)
(-0.0661098 0.00341584 0)
(-0.0675919 0.00274813 0)
(-0.0686915 0.00200895 0)
(-0.0693793 0.00120622 0)
(-0.0696313 0.00034979 0)
(-0.0694286 -0.000548685 0)
(-0.068759 -0.00147559 0)
(-0.0676172 -0.00241597 0)
(-0.0660048 -0.00335363 0)
(-0.0639314 -0.00427144 0)
(-0.0614138 -0.0051518 0)
(-0.0584769 -0.00597702 0)
(-0.0551529 -0.00672979 0)
(-0.0514812 -0.00739373 0)
(-0.047508 -0.00795386 0)
(-0.0432855 -0.00839712 0)
(-0.0388707 -0.00871287 0)
(-0.0343252 -0.00889331 0)
(-0.0297131 -0.00893386 0)
(-0.0251002 -0.00883342 0)
(-0.0205525 -0.0085945 0)
(-0.0161346 -0.00822327 0)
(-0.0119082 -0.00772941 0)
(-0.00793054 -0.00712581 0)
(-0.00425337 -0.00642815 0)
(-0.000921277 -0.00565432 0)
(0.00202916 -0.00482378 0)
(0.00456998 -0.00395667 0)
(0.00668265 -0.00307366 0)
(0.0083583 -0.00219441 0)
(0.0095973 -0.00133753 0)
(0.0104092 -0.00052 0)
(0.0108121 0.000243036 0)
(0.0108321 0.000938261 0)
(0.0105027 0.00155385 0)
(0.00986403 0.00207884 0)
(0.00896257 0.00250219 0)
(0.00785111 0.00281171 0)
(0.00658872 0.00299288 0)
(0.00524131 0.00302806 0)
(0.00388205 0.00289667 0)
(0.00258997 0.00257742 0)
(0.00144759 0.00205382 0)
(0.000562241 0.00132628 0)
(0.000100088 0.000444632 0)
(2.88097e-05 -0.000316068 0)
(7.94789e-05 -0.00052764 0)
(7.48638e-05 -0.000450708 0)
(-5.20705e-05 -0.000181542 0)
(-0.000340885 0.000209573 0)
(-0.0008137 0.000670835 0)
(-0.00148306 0.00116651 0)
(-0.00235497 0.00167399 0)
(-0.00343141 0.0021806 0)
(-0.00471231 0.0026806 0)
(-0.0061968 0.00317279 0)
(-0.00788401 0.00365851 0)
(-0.00977334 0.00414013 0)
(-0.0118644 0.00461995 0)
(-0.0141568 0.00509949 0)
(-0.0166496 0.00557895 0)
(-0.0193407 0.00605704 0)
(-0.0222265 0.00653082 0)
(-0.0253011 0.00699579 0)
(-0.0285558 0.0074459 0)
(-0.0319787 0.00787378 0)
(-0.0355543 0.00827087 0)
(-0.0392632 0.00862763 0)
(-0.043082 0.0089338 0)
(-0.0469828 0.00917866 0)
(-0.0509341 0.00935128 0)
(-0.0549003 0.00944085 0)
(-0.058842 0.009437 0)
(-0.0627172 0.00933013 0)
(-0.066481 0.00911177 0)
(-0.070087 0.0087749 0)
(-0.0734874 0.00831429 0)
(-0.0766347 0.00772681 0)
(-0.0794817 0.00701166 0)
(-0.081983 0.00617061 0)
(-0.0840959 0.00520817 0)
(-0.0857809 0.00413166 0)
(-0.0870029 0.00295127 0)
(-0.0877321 0.00168003 0)
(-0.0879442 0.000333625 0)
(-0.0876215 -0.00107001 0)
(-0.086753 -0.00251009 0)
(-0.0853354 -0.00396421 0)
(-0.0833732 -0.00540842 0)
(-0.0808787 -0.00681769 0)
(-0.0778723 -0.00816641 0)
(-0.0743824 -0.00942901 0)
(-0.0704452 -0.0105806 0)
(-0.0661047 -0.0115976 0)
(-0.0614115 -0.0124584 0)
(-0.056423 -0.0131441 0)
(-0.0512022 -0.0136393 0)
(-0.0458165 -0.0139324 0)
(-0.040337 -0.0140163 0)
(-0.0348368 -0.0138889 0)
(-0.0293898 -0.0135529 0)
(-0.0240692 -0.0130166 0)
(-0.0189455 -0.0122932 0)
(-0.0140855 -0.0114006 0)
(-0.0095501 -0.0103608 0)
(-0.00539334 -0.00919956 0)
(-0.00166071 -0.00794501 0)
(0.00161116 -0.00662696 0)
(0.00439613 -0.00527581 0)
(0.00667903 -0.00392157 0)
(0.00845497 -0.00259293 0)
(0.00972991 -0.00131664 0)
(0.0105202 -0.000117055 0)
(0.0108518 0.000983909 0)
(0.0107602 0.00196646 0)
(0.0102889 0.00281221 0)
(0.00948975 0.00350305 0)
(0.00842203 0.00401988 0)
(0.00715243 0.00434121 0)
(0.00575516 0.00444224 0)
(0.00431236 0.00429499 0)
(0.00291265 0.00387039 0)
(0.00164973 0.00314329 0)
(0.000650501 0.00210204 0)
(0.000118253 0.000769756 0)
(1.47445e-05 -0.000345906 0)
(-5.06206e-06 -0.000506852 0)
(-0.000152652 -0.000309137 0)
(-0.000476065 0.000125185 0)
(-0.00100543 0.000709131 0)
(-0.00175809 0.00137922 0)
(-0.00274296 0.00209194 0)
(-0.00396383 0.00281995 0)
(-0.00542171 0.00354793 0)
(-0.00711639 0.004269 0)
(-0.00904741 0.0049817 0)
(-0.0112145 0.00568749 0)
(-0.0136175 0.00638891 0)
(-0.0162563 0.00708816 0)
(-0.0191302 0.00778619 0)
(-0.0222372 0.00848212 0)
(-0.0255739 0.00917294 0)
(-0.0291342 0.00985341 0)
(-0.0329089 0.0105161 0)
(-0.0368855 0.0111517 0)
(-0.0410474 0.0117488 0)
(-0.0453734 0.0122948 0)
(-0.0498381 0.0127759 0)
(-0.0544114 0.0131774 0)
(-0.0590584 0.0134842 0)
(-0.0637401 0.0136813 0)
(-0.0684136 0.013754 0)
(-0.0730324 0.0136888 0)
(-0.0775474 0.0134733 0)
(-0.0819074 0.0130972 0)
(-0.08606 0.0125524 0)
(-0.0899527 0.0118333 0)
(-0.0935335 0.0109376 0)
(-0.0967521 0.00986607 0)
(-0.0995607 0.00862308 0)
(-0.101915 0.00721659 0)
(-0.103775 0.00565826 0)
(-0.105105 0.00396337 0)
(-0.105876 0.00215082 0)
(-0.106065 0.000242707 0)
(-0.105656 -0.00173651 0)
(-0.104638 -0.00375823 0)
(-0.10301 -0.0057924 0)
(-0.100778 -0.00780718 0)
(-0.0979553 -0.00976947 0)
(-0.0945646 -0.0116456 0)
(-0.0906355 -0.0134019 0)
(-0.0862058 -0.0150057 0)
(-0.0813211 -0.0164261 0)
(-0.0760343 -0.0176345 0)
(-0.0704052 -0.0186059 0)
(-0.0644997 -0.0193192 0)
(-0.0583891 -0.0197586 0)
(-0.0521488 -0.0199139 0)
(-0.0458572 -0.019781 0)
(-0.0395943 -0.0193626 0)
(-0.0334403 -0.0186681 0)
(-0.0274735 -0.0177136 0)
(-0.0217688 -0.0165216 0)
(-0.0163962 -0.0151205 0)
(-0.0114188 -0.0135436 0)
(-0.00689126 -0.011828 0)
(-0.00285898 -0.0100137 0)
(0.000643595 -0.00814154 0)
(0.00359355 -0.00625301 0)
(0.0059797 -0.00438818 0)
(0.0078029 -0.00258504 0)
(0.00907585 -0.000878827 0)
(0.00982269 0.000698236 0)
(0.0100784 0.00211667 0)
(0.00988796 0.00334902 0)
(0.00930605 0.00436873 0)
(0.00839612 0.00514859 0)
(0.00723007 0.00565923 0)
(0.00588825 0.00586794 0)
(0.00445982 0.00573842 0)
(0.00304156 0.00523209 0)
(0.00173729 0.00431165 0)
(0.000689467 0.00294744 0)
(0.000125918 0.0011283 0)
(-2.28557e-06 -0.000326415 0)
(-0.000108215 -0.000359981 0)
(-0.000429348 2.07647e-05 0)
(-0.000987705 0.000671923 0)
(-0.00180003 0.00149227 0)
(-0.00287647 0.00240898 0)
(-0.00422057 0.0033728 0)
(-0.00583256 0.00435323 0)
(-0.00771163 0.00533359 0)
(-0.00985694 0.00630668 0)
(-0.0122681 0.00727121 0)
(-0.0149452 0.00822888 0)
(-0.0178886 0.00918218 0)
(-0.021098 0.0101328 0)
(-0.0245722 0.0110806 0)
(-0.0283083 0.0120229 0)
(-0.0323007 0.0129541 0)
(-0.0365405 0.013866 0)
(-0.0410151 0.0147473 0)
(-0.0457075 0.0155845 0)
(-0.0505959 0.0163619 0)
(-0.0556536 0.0170619 0)
(-0.0608488 0.0176658 0)
(-0.0661449 0.0181543 0)
(-0.0715004 0.0185077 0)
(-0.0768697 0.0187069 0)
(-0.0822034 0.0187337 0)
(-0.087449 0.0185715 0)
(-0.092552 0.0182059 0)
(-0.0974565 0.0176254 0)
(-0.102106 0.0168214 0)
(-0.106446 0.0157891 0)
(-0.110421 0.0145278 0)
(-0.11398 0.0130407 0)
(-0.117074 0.0113357 0)
(-0.11966 0.00942473 0)
(-0.121697 0.00732448 0)
(-0.123151 0.00505573 0)
(-0.123994 0.00264345 0)
(-0.124204 0.00011634 0)
(-0.123764 -0.00249438 0)
(-0.122666 -0.00515257 0)
(-0.120908 -0.00782073 0)
(-0.118496 -0.0104593 0)
(-0.115444 -0.0130273 0)
(-0.111773 -0.015483 0)
(-0.107512 -0.0177849 0)
(-0.102699 -0.0198923 0)
(-0.0973779 -0.0217667 0)
(-0.0916026 -0.0233722 0)
(-0.0854328 -0.024677 0)
(-0.0789356 -0.025654 0)
(-0.0721841 -0.0262822 0)
(-0.0652567 -0.0265473 0)
(-0.0582359 -0.0264425 0)
(-0.0512069 -0.0259691 0)
(-0.0442559 -0.0251369 0)
(-0.0374686 -0.0239641 0)
(-0.0309283 -0.0224772 0)
(-0.0247138 -0.0207102 0)
(-0.0188975 -0.0187037 0)
(-0.013544 -0.016504 0)
(-0.00870792 -0.0141612 0)
(-0.00443306 -0.0117277 0)
(-0.000750879 -0.00925703 0)
(0.00231991 -0.00680174 0)
(0.00477383 -0.00441242 0)
(0.00661863 -0.00213666 0)
(0.00787499 -1.86182e-05 0)
(0.00857601 0.00190096 0)
(0.00876649 0.00358407 0)
(0.00850215 0.00499424 0)
(0.00784896 0.00609498 0)
(0.00688248 0.00684801 0)
(0.00568774 0.00721172 0)
(0.00435961 0.0071403 0)
(0.00300187 0.006584 0)
(0.00172693 0.00549094 0)
(0.00068815 0.00381042 0)
(0.000125746 0.00149577 0)
(-2.17156e-05 -0.000249149 0)
(-0.000226362 -6.50614e-05 0)
(-0.000746063 0.000570282 0)
(-0.00157143 0.00149548 0)
(-0.00270234 0.00259859 0)
(-0.00413965 0.00380046 0)
(-0.0058799 0.00504864 0)
(-0.00791867 0.0063116 0)
(-0.0102525 0.00757289 0)
(-0.0128795 0.00882605 0)
(-0.015799 0.0100706 0)
(-0.0190112 0.0113085 0)
(-0.0225165 0.0125422 0)
(-0.0263146 0.0137724 0)
(-0.0304034 0.0149971 0)
(-0.0347786 0.0162112 0)
(-0.0394322 0.0174057 0)
(-0.0443522 0.0185685 0)
(-0.0495221 0.0196838 0)
(-0.0549203 0.0207331 0)
(-0.0605197 0.0216956 0)
(-0.0662879 0.0225486 0)
(-0.0721871 0.0232681 0)
(-0.0781747 0.0238299 0)
(-0.0842032 0.02421 0)
(-0.0902213 0.0243852 0)
(-0.0961744 0.0243344 0)
(-0.102006 0.0240387 0)
(-0.107657 0.0234823 0)
(-0.113069 0.0226532 0)
(-0.118183 0.0215435 0)
(-0.122944 0.0201498 0)
(-0.127295 0.0184738 0)
(-0.131186 0.0165219 0)
(-0.134569 0.0143058 0)
(-0.1374 0.0118422 0)
(-0.139641 0.00915277 0)
(-0.141258 0.0062637 0)
(-0.142223 0.00320558 0)
(-0.142515 1.33979e-05 0)
(-0.142118 -0.00327208 0)
(-0.14102 -0.00661117 0)
(-0.139221 -0.00995883 0)
(-0.136724 -0.0132679 0)
(-0.133541 -0.0164896 0)
(-0.12969 -0.0195746 0)
(-0.125198 -0.0224735 0)
(-0.1201 -0.0251376 0)
(-0.114438 -0.0275204 0)
(-0.108263 -0.0295782 0)
(-0.101634 -0.0312718 0)
(-0.0946176 -0.0325671 0)
(-0.0872875 -0.0334369 0)
(-0.0797241 -0.0338617 0)
(-0.0720131 -0.0338307 0)
(-0.0642441 -0.0333425 0)
(-0.0565096 -0.0324062 0)
(-0.0489026 -0.031041 0)
(-0.0415148 -0.0292762 0)
(-0.0344344 -0.027151 0)
(-0.0277441 -0.0247129 0)
(-0.0215189 -0.0220169 0)
(-0.0158242 -0.0191238 0)
(-0.0107137 -0.0160977 0)
(-0.00622868 -0.0130051 0)
(-0.00239652 -0.00991204 0)
(0.000769808 -0.00688298 0)
(0.00327193 -0.00397932 0)
(0.00512592 -0.00125863 0)
(0.00636183 0.00122551 0)
(0.00702298 0.00342303 0)
(0.00716509 0.00528618 0)
(0.00685548 0.00676791 0)
(0.00617233 0.00781988 0)
(0.00520435 0.0083905 0)
(0.00405115 0.00842334 0)
(0.00282233 0.00785626 0)
(0.00163721 0.00662159 0)
(0.000655543 0.00464704 0)
(0.000119974 0.00185314 0)
(-4.3132e-05 -0.000107544 0)
(-0.000356953 0.000395958 0)
(-0.00109601 0.00136536 0)
(-0.00221501 0.0026266 0)
(-0.00369405 0.00406122 0)
(-0.00552285 0.00558733 0)
(-0.00768961 0.00715244 0)
(-0.0101843 0.00872647 0)
(-0.0130002 0.010295 0)
(-0.0161338 0.0118537 0)
(-0.0195838 0.0134035 0)
(-0.0233504 0.014947 0)
(-0.0274338 0.0164862 0)
(-0.0318333 0.0180204 0)
(-0.0365457 0.0195453 0)
(-0.0415648 0.0210523 0)
(-0.04688 0.0225284 0)
(-0.052476 0.0239566 0)
(-0.0583322 0.025316 0)
(-0.0644221 0.0265827 0)
(-0.0707135 0.0277301 0)
(-0.0771687 0.02873 0)
(-0.0837443 0.0295534 0)
(-0.0903923 0.0301712 0)
(-0.0970604 0.0305552 0)
(-0.103693 0.0306791 0)
(-0.110231 0.0305191 0)
(-0.116615 0.0300549 0)
(-0.122785 0.0292702 0)
(-0.12868 0.0281534 0)
(-0.134241 0.026698 0)
(-0.139413 0.0249029 0)
(-0.14414 0.0227725 0)
(-0.148373 0.0203171 0)
(-0.152064 0.0175524 0)
(-0.155172 0.0144996 0)
(-0.157658 0.0111853 0)
(-0.159491 0.00764102 0)
(-0.160641 0.00390275 0)
(-0.161086 1.12504e-05 0)
(-0.160808 -0.00398678 0)
(-0.159798 -0.00804552 0)
(-0.158048 -0.0121133 0)
(-0.15556 -0.0161362 0)
(-0.152341 -0.0200584 0)
(-0.148406 -0.0238228 0)
(-0.143777 -0.0273723 0)
(-0.138484 -0.0306502 0)
(-0.132566 -0.0336014 0)
(-0.12607 -0.0361742 0)
(-0.119052 -0.0383207 0)
(-0.111578 -0.0399991 0)
(-0.10372 -0.0411745 0)
(-0.095559 -0.0418208 0)
(-0.0871842 -0.0419216 0)
(-0.0786891 -0.0414717 0)
(-0.070172 -0.0404776 0)
(-0.0617334 -0.0389581 0)
(-0.0534739 -0.0369445 0)
(-0.0454921 -0.0344798 0)
(-0.0378818 -0.031618 0)
(-0.0307296 -0.0284227 0)
(-0.0241127 -0.0249651 0)
(-0.0180965 -0.0213218 0)
(-0.0127333 -0.0175728 0)
(-0.00806046 -0.0137989 0)
(-0.00409965 -0.0100796 0)
(-0.00085657 -0.0064917 0)
(0.00167918 -0.00310763 0)
(0.00353361 4.57739e-06 0)
(0.00474764 0.00278123 0)
(0.00537619 0.00516188 0)
(0.00548719 0.00708757 0)
(0.0051607 0.00849871 0)
(0.00448845 0.00933268 0)
(0.00357401 0.00952149 0)
(0.00253171 0.00898995 0)
(0.00148613 0.00765448 0)
(0.000599791 0.00542247 0)
(0.000110409 0.0021863 0)
(-6.60087e-05 0.000104839 0)
(-0.000497756 0.00103841 0)
(-0.00147369 0.00242755 0)
(-0.00290818 0.00409061 0)
(-0.00475927 0.00590719 0)
(-0.00700404 0.0077969 0)
(-0.00962128 0.00971068 0)
(-0.0125945 0.0116228 0)
(-0.0159132 0.013523 0)
(-0.019572 0.0154102 0)
(-0.0235686 0.0172878 0)
(-0.0279029 0.0191591 0)
(-0.0325747 0.0210257 0)
(-0.0375824 0.0228849 0)
(-0.0429215 0.0247292 0)
(-0.0485838 0.0265461 0)
(-0.0545557 0.0283176 0)
(-0.0608184 0.0300212 0)
(-0.0673469 0.0316304 0)
(-0.0741103 0.033115 0)
(-0.0810715 0.0344427 0)
(-0.0881877 0.0355799 0)
(-0.0954109 0.0364923 0)
(-0.102689 0.0371465 0)
(-0.109965 0.0375109 0)
(-0.11718 0.0375563 0)
(-0.124274 0.0372575 0)
(-0.131185 0.0365934 0)
(-0.137853 0.035548 0)
(-0.144216 0.034111 0)
(-0.150218 0.0322778 0)
(-0.155801 0.0300501 0)
(-0.160915 0.0274355 0)
(-0.165509 0.024448 0)
(-0.169538 0.0211074 0)
(-0.172962 0.0174391 0)
(-0.175743 0.0134743 0)
(-0.177847 0.00924908 0)
(-0.179247 0.00480465 0)
(-0.179917 0.000186703 0)
(-0.179838 -0.00455583 0)
(-0.178997 -0.00936828 0)
(-0.177382 -0.0141937 0)
(-0.174991 -0.0189721 0)
(-0.171826 -0.023641 0)
(-0.167896 -0.0281363 0)
(-0.163217 -0.0323929 0)
(-0.157815 -0.036346 0)
(-0.151722 -0.0399318 0)
(-0.14498 -0.0430893 0)
(-0.137641 -0.0457617 0)
(-0.129767 -0.0478978 0)
(-0.121429 -0.0494538 0)
(-0.112709 -0.0503954 0)
(-0.103695 -0.0506989 0)
(-0.0944862 -0.0503531 0)
(-0.0851852 -0.0493604 0)
(-0.0759005 -0.0477375 0)
(-0.0667422 -0.0455158 0)
(-0.0578196 -0.0427414 0)
(-0.0492389 -0.0394736 0)
(-0.0410997 -0.0357842 0)
(-0.0334927 -0.0317549 0)
(-0.0264968 -0.0274751 0)
(-0.0201766 -0.0230392 0)
(-0.0145813 -0.0185439 0)
(-0.00974295 -0.0140852 0)
(-0.00567578 -0.00975665 0)
(-0.0023763 -0.00564754 0)
(0.000176506 -0.00184196 0)
(0.00202036 0.00158113 0)
(0.00320868 0.00454699 0)
(0.00380947 0.00698341 0)
(0.00390423 0.00881833 0)
(0.00358723 0.00997706 0)
(0.00296534 0.0103794 0)
(0.00215677 0.00993691 0)
(0.00129009 0.00855081 0)
(0.00052797 0.0061104 0)
(9.85017e-05 0.00248532 0)
(-9.07447e-05 0.00039309 0)
(-0.000647965 0.00187488 0)
(-0.00187455 0.00377437 0)
(-0.00364174 0.00590775 0)
(-0.00588338 0.00815782 0)
(-0.00856267 0.0104503 0)
(-0.011648 0.0127434 0)
(-0.015116 0.0150189 0)
(-0.0189518 0.0172731 0)
(-0.0231479 0.0195097 0)
(-0.0277008 0.021735 0)
(-0.0326098 0.0239536 0)
(-0.037874 0.0261662 0)
(-0.0434907 0.0283678 0)
(-0.0494538 0.0305472 0)
(-0.0557526 0.0326869 0)
(-0.0623705 0.0347635 0)
(-0.0692851 0.0367483 0)
(-0.0764674 0.0386084 0)
(-0.0838818 0.0403077 0)
(-0.091487 0.0418078 0)
(-0.0992358 0.0430698 0)
(-0.107076 0.0440546 0)
(-0.114953 0.0447252 0)
(-0.122807 0.0450469 0)
(-0.130577 0.0449889 0)
(-0.138201 0.0445249 0)
(-0.145618 0.0436342 0)
(-0.152768 0.0423017 0)
(-0.159591 0.040519 0)
(-0.16603 0.0382839 0)
(-0.172032 0.035601 0)
(-0.177545 0.0324813 0)
(-0.182523 0.0289422 0)
(-0.186921 0.0250073 0)
(-0.190699 0.0207057 0)
(-0.19382 0.0160724 0)
(-0.196249 0.0111475 0)
(-0.197957 0.00597603 0)
(-0.198917 0.000607857 0)
(-0.199106 -0.00490353 0)
(-0.198508 -0.010499 0)
(-0.197106 -0.0161164 0)
(-0.194893 -0.02169 0)
(-0.191864 -0.0271513 0)
(-0.188023 -0.0324293 0)
(-0.183379 -0.0374512 0)
(-0.177951 -0.0421438 0)
(-0.171763 -0.0464346 0)
(-0.164852 -0.0502528 0)
(-0.157264 -0.0535313 0)
(-0.149055 -0.0562086 0)
(-0.140294 -0.0582306 0)
(-0.131059 -0.0595528 0)
(-0.121441 -0.0601423 0)
(-0.111539 -0.0599797 0)
(-0.101461 -0.0590611 0)
(-0.0913229 -0.057399 0)
(-0.0812442 -0.0550232 0)
(-0.0713457 -0.0519808 0)
(-0.061747 -0.0483355 0)
(-0.0525622 -0.0441664 0)
(-0.0438972 -0.0395655 0)
(-0.0358461 -0.0346354 0)
(-0.0284887 -0.0294858 0)
(-0.0218878 -0.0242302 0)
(-0.0160875 -0.018983 0)
(-0.0111127 -0.0138564 0)
(-0.00696814 -0.00895827 0)
(-0.00363898 -0.00439074 0)
(-0.00109163 -0.000249947 0)
(0.000725215 0.00337339 0)
(0.00187914 0.00639226 0)
(0.00245271 0.00872088 0)
(0.00254242 0.0102716 0)
(0.00225805 0.0109515 0)
(0.0017211 0.0106589 0)
(0.0010633 0.00928118 0)
(0.000446047 0.00669203 0)
(8.54186e-05 0.00274376 0)
(-0.000116851 0.000760989 0)
(-0.000805608 0.00291536 0)
(-0.00229377 0.00541952 0)
(-0.00440663 0.00809346 0)
(-0.00705214 0.0108288 0)
(-0.0101786 0.0135625 0)
(-0.0137436 0.0162644 0)
(-0.0177161 0.018927 0)
(-0.0220769 0.0215553 0)
(-0.0268159 0.0241597 0)
(-0.0319285 0.0267502 0)
(-0.0374127 0.0293328 0)
(-0.043267 0.0319071 0)
(-0.0494872 0.0344652 0)
(-0.0560653 0.0369916 0)
(-0.062988 0.0394632 0)
(-0.0702356 0.0418506 0)
(-0.077782 0.0441184 0)
(-0.0855943 0.0462273 0)
(-0.093633 0.0481348 0)
(-0.101853 0.0497969 0)
(-0.110203 0.0511694 0)
(-0.118629 0.0522095 0)
(-0.127073 0.0528767 0)
(-0.135474 0.0531344 0)
(-0.14377 0.0529507 0)
(-0.151901 0.0522994 0)
(-0.159804 0.0511604 0)
(-0.167421 0.0495204 0)
(-0.174694 0.0473732 0)
(-0.181569 0.0447192 0)
(-0.187993 0.041566 0)
(-0.193918 0.0379277 0)
(-0.199296 0.0338249 0)
(-0.204086 0.0292842 0)
(-0.208248 0.0243381 0)
(-0.211743 0.0190247 0)
(-0.214537 0.0133871 0)
(-0.216599 0.00747374 0)
(-0.2179 0.00133764 0)
(-0.218414 -0.00496368 0)
(-0.218119 -0.0113676 0)
(-0.216996 -0.0178075 0)
(-0.215031 -0.0242129 0)
(-0.212214 -0.0305095 0)
(-0.208541 -0.03662 0)
(-0.204015 -0.0424643 0)
(-0.198644 -0.0479613 0)
(-0.192448 -0.0530291 0)
(-0.185453 -0.0575869 0)
(-0.177699 -0.0615568 0)
(-0.169234 -0.0648659 0)
(-0.160121 -0.067448 0)
(-0.150435 -0.0692467 0)
(-0.140263 -0.0702176 0)
(-0.129707 -0.070331 0)
(-0.118878 -0.0695739 0)
(-0.107896 -0.0679518 0)
(-0.0968899 -0.0654904 0)
(-0.0859932 -0.0622358 0)
(-0.0753388 -0.0582543 0)
(-0.0650571 -0.0536311 0)
(-0.055271 -0.048468 0)
(-0.0460925 -0.0428806 0)
(-0.0376185 -0.0369947 0)
(-0.0299283 -0.0309423 0)
(-0.023081 -0.0248576 0)
(-0.017114 -0.0188737 0)
(-0.0120424 -0.0131193 0)
(-0.00785916 -0.0077168 0)
(-0.00453589 -0.00278178 0)
(-0.00202432 0.00157713 0)
(-0.000257776 0.00525641 0)
(0.000847062 0.00815519 0)
(0.00138868 0.0101719 0)
(0.00147957 0.0112005 0)
(0.00124428 0.0111265 0)
(0.000817456 0.00982434 0)
(0.000358857 0.00715501 0)
(7.2078e-05 0.00295808 0)
(-0.000144054 0.00121235 0)
(-0.000968912 0.00416782 0)
(-0.00272646 0.00737311 0)
(-0.00519361 0.0106584 0)
(-0.00825113 0.0139305 0)
(-0.0118318 0.0171427 0)
(-0.0158818 0.0202812 0)
(-0.0203622 0.0233526 0)
(-0.0252495 0.0263733 0)
(-0.0305306 0.0293616 0)
(-0.0361996 0.0323322 0)
(-0.0422534 0.0352926 0)
(-0.048689 0.0382411 0)
(-0.0555009 0.0411666 0)
(-0.0626788 0.0440484 0)
(-0.0702067 0.0468575 0)
(-0.0780618 0.0495577 0)
(-0.0862144 0.052107 0)
(-0.094628 0.0544594 0)
(-0.10326 0.0565661 0)
(-0.112061 0.0583779 0)
(-0.120978 0.059846 0)
(-0.129955 0.060924 0)
(-0.138932 0.0615693 0)
(-0.147848 0.0617437 0)
(-0.156641 0.0614153 0)
(-0.165251 0.0605583 0)
(-0.173617 0.0591541 0)
(-0.181683 0.0571915 0)
(-0.189393 0.0546664 0)
(-0.196695 0.0515823 0)
(-0.203537 0.0479492 0)
(-0.209872 0.0437843 0)
(-0.215657 0.0391108 0)
(-0.220848 0.0339582 0)
(-0.225405 0.0283614 0)
(-0.229293 0.0223612 0)
(-0.232475 0.0160031 0)
(-0.234918 0.00933806 0)
(-0.236593 0.00242178 0)
(-0.23747 -0.00468525 0)
(-0.237525 -0.0119175 0)
(-0.236734 -0.0192048 0)
(-0.235077 -0.0264725 0)
(-0.23254 -0.0336416 0)
(-0.22911 -0.0406291 0)
(-0.224783 -0.0473487 0)
(-0.219559 -0.0537111 0)
(-0.213447 -0.0596259 0)
(-0.206465 -0.0650021 0)
(-0.198642 -0.0697506 0)
(-0.190018 -0.0737858 0)
(-0.180647 -0.0770286 0)
(-0.170597 -0.0794088 0)
(-0.159951 -0.0808682 0)
(-0.148807 -0.0813638 0)
(-0.137277 -0.0808706 0)
(-0.125486 -0.0793843 0)
(-0.11357 -0.076923 0)
(-0.101674 -0.073529 0)
(-0.089944 -0.0692685 0)
(-0.0785284 -0.064231 0)
(-0.067569 -0.0585269 0)
(-0.0571977 -0.0522847 0)
(-0.0475322 -0.0456467 0)
(-0.0386712 -0.0387645 0)
(-0.0306917 -0.0317944 0)
(-0.023647 -0.0248924 0)
(-0.017565 -0.0182108 0)
(-0.0124487 -0.0118953 0)
(-0.0082766 -0.00608321 0)
(-0.00500461 -0.000903574 0)
(-0.00256769 0.0035216 0)
(-0.000882171 0.00707478 0)
(0.000152296 0.0096394 0)
(0.00065091 0.0110958 0)
(0.000741368 0.011317 0)
(0.00056154 0.0101656 0)
(0.000270076 0.00749208 0)
(5.91641e-05 0.00312698 0)
(-0.000172078 0.00174981 0)
(-0.001136 0.00563762 0)
(-0.00316738 0.00964141 0)
(-0.00599301 0.0136087 0)
(-0.0094655 0.0174675 0)
(-0.0135017 0.021194 0)
(-0.0180359 0.024795 0)
(-0.0230216 0.0282949 0)
(-0.0284304 0.031724 0)
(-0.0342467 0.0351101 0)
(-0.0404625 0.0384733 0)
(-0.0470736 0.0418225 0)
(-0.0540756 0.0451549 0)
(-0.061461 0.0484552 0)
(-0.0692173 0.0516976 0)
(-0.0773256 0.0548463 0)
(-0.0857601 0.0578582 0)
(-0.0944877 0.0606844 0)
(-0.103469 0.0632722 0)
(-0.112657 0.0655672 0)
(-0.122002 0.0675151 0)
(-0.131448 0.0690632 0)
(-0.140938 0.0701623 0)
(-0.15041 0.0707682 0)
(-0.159804 0.0708422 0)
(-0.169059 0.0703526 0)
(-0.178116 0.0692748 0)
(-0.186917 0.0675921 0)
(-0.195406 0.0652954 0)
(-0.203529 0.062383 0)
(-0.211235 0.058861 0)
(-0.218477 0.0547421 0)
(-0.225207 0.050046 0)
(-0.231384 0.0447985 0)
(-0.236965 0.0390312 0)
(-0.241913 0.0327814 0)
(-0.246189 0.0260918 0)
(-0.24976 0.0190102 0)
(-0.252591 0.0115892 0)
(-0.254652 0.00388672 0)
(-0.255913 -0.00403467 0)
(-0.256346 -0.0121072 0)
(-0.255924 -0.0202581 0)
(-0.254625 -0.0284098 0)
(-0.252427 -0.0364794 0)
(-0.249311 -0.0443796 0)
(-0.245264 -0.0520183 0)
(-0.240279 -0.0592997 0)
(-0.234353 -0.066125 0)
(-0.227494 -0.0723938 0)
(-0.219718 -0.0780055 0)
(-0.211054 -0.0828619 0)
(-0.201544 -0.0868695 0)
(-0.191246 -0.0899427 0)
(-0.180235 -0.0920074 0)
(-0.168602 -0.0930044 0)
(-0.156457 -0.0928934 0)
(-0.143925 -0.0916563 0)
(-0.131149 -0.0893002 0)
(-0.11828 -0.0858593 0)
(-0.105482 -0.0813967 0)
(-0.0929172 -0.0760029 0)
(-0.0807497 -0.0697952 0)
(-0.0691337 -0.0629139 0)
(-0.0582104 -0.0555178 0)
(-0.0481019 -0.0477793 0)
(-0.0389072 -0.0398786 0)
(-0.030699 -0.0319975 0)
(-0.0235217 -0.0243149 0)
(-0.0173912 -0.017003 0)
(-0.0122954 -0.010224 0)
(-0.00819599 -0.0041304 0)
(-0.00503061 0.0011349 0)
(-0.00271582 0.00543574 0)
(-0.0011496 0.00863925 0)
(-0.000213891 0.0106114 0)
(0.000222593 0.0112129 0)
(0.000301673 0.0102952 0)
(0.000182197 0.00769972 0)
(4.71338e-05 0.00325078 0)
(-0.000200582 0.00237492 0)
(-0.00130475 0.00732743 0)
(-0.00361094 0.0122268 0)
(-0.00679466 0.0169452 0)
(-0.0106798 0.0214394 0)
(-0.0151671 0.0257138 0)
(-0.020179 0.0298011 0)
(-0.0256613 0.0337471 0)
(-0.0315806 0.0375983 0)
(-0.0379186 0.0413938 0)