/*--------------------------------*- C++ -*----------------------------------*\
  =========                 |
  \\      /  F ield         | OpenFOAM: The Open Source CFD Toolbox
   \\    /   O peration     | Website:  https://openfoam.org
    \\  /    A nd           | Version:  7
     \\/     M anipulation  |
\*---------------------------------------------------------------------------*/
FoamFile
{
    version     2.0;
    format      ascii;
    class       volScalarField;
    location    "2";
    object      p;
}
// * * * * * * * * * * * * * * * * * * * * * * * * * * * * * * * * * * * * * //

dimensions      [0 2 -2 0 0 0 0];

internalField   nonuniform List<scalar> 
6400
(
3.94582e-07
1.21122e-05
3.36169e-07
-3.72519e-05
-9.79976e-05
-0.000178577
-0.000275582
-0.000386008
-0.000507491
-0.000638286
-0.000777149
-0.000923221
-0.00107588
-0.00123464
-0.00139901
-0.00156844
-0.00174226
-0.0019196
-0.00209938
-0.00228026
-0.00246066
-0.00263874
-0.00281237
-0.0029792
-0.00313666
-0.00328198
-0.00341224
-0.00352444
-0.00361557
-0.00368268
-0.00372298
-0.00373396
-0.0037135
-0.00365995
-0.00357231
-0.00345031
-0.00329451
-0.00310642
-0.00288852
-0.00264434
-0.00237848
-0.00209617
-0.00180414
-0.00150952
-0.00122008
-0.000943964
-0.000689477
-0.000464751
-0.00027747
-0.00013457
-4.19557e-05
-4.24233e-06
-2.45462e-05
-0.000104332
-0.000243331
-0.000439531
-0.000689252
-0.000987293
-0.00132719
-0.00170136
-0.00210157
-0.00251919
-0.00294551
-0.00337208
-0.00379094
-0.00419486
-0.0045775
-0.00493342
-0.00525819
-0.00554825
-0.00580084
-0.00601389
-0.00618589
-0.00631584
-0.00640333
-0.00644891
-0.00645507
-0.00642807
-0.00638007
-0.00632911
-1.07785e-05
6.06311e-07
-1.21967e-05
-4.7586e-05
-0.000102418
-0.000174514
-0.000261537
-0.000361249
-0.000471766
-0.000591604
-0.000719643
-0.000855043
-0.000997151
-0.00114542
-0.00129933
-0.00145831
-0.00162167
-0.00178861
-0.00195811
-0.00212894
-0.00229966
-0.00246861
-0.00263386
-0.00279327
-0.00294451
-0.00308506
-0.00321224
-0.00332332
-0.0034155
-0.00348606
-0.0035324
-0.00355216
-0.00354331
-0.00350429
-0.00343408
-0.00333234
-0.0031995
-0.00303685
-0.00284661
-0.00263193
-0.00239689
-0.00214667
-0.00188704
-0.00162466
-0.00136672
-0.00112079
-0.000894541
-0.000695517
-0.000530847
-0.000406963
-0.000329335
-0.000302227
-0.000328502
-0.000409483
-0.000544873
-0.000732756
-0.00096967
-0.00125075
-0.00156993
-0.00192023
-0.00229397
-0.0026832
-0.00307989
-0.00347629
-0.00386511
-0.00423977
-0.00459449
-0.00492441
-0.00522552
-0.00549473
-0.00572968
-0.00592876
-0.00609092
-0.00621574
-0.0063034
-0.006355
-0.00637317
-0.00636284
-0.00632909
-0.00627806
1.73439e-06
1.31906e-05
-3.30874e-07
-3.49636e-05
-8.68609e-05
-0.00015414
-0.000234982
-0.000327569
-0.000430359
-0.000542126
-0.000661919
-0.000789006
-0.000922804
-0.00106281
-0.00120854
-0.00135947
-0.00151499
-0.00167433
-0.0018366
-0.00200067
-0.00216524
-0.00232879
-0.00248955
-0.00264556
-0.00279463
-0.00293442
-0.00306241
-0.00317599
-0.00327248
-0.00334925
-0.00340373
-0.00343359
-0.00343677
-0.00341162
-0.00335703
-0.00327248
-0.00315821
-0.00301529
-0.00284565
-0.00265217
-0.00243862
-0.00220982
-0.00197128
-0.00172932
-0.00149083
-0.00126307
-0.00105344
-0.000869251
-0.000717412
-0.000604175
-0.000534857
-0.00051361
-0.000543221
-0.000624968
-0.000758548
-0.000942081
-0.00117217
-0.00144407
-0.00175187
-0.00208877
-0.00244737
-0.00281995
-0.00319883
-0.00357659
-0.00394633
-0.00430187
-0.00463783
-0.00494975
-0.00523406
-0.00548806
-0.00570982
-0.00589812
-0.0060523
-0.00617228
-0.00625843
-0.00631172
-0.00633425
-0.00632922
-0.00629549
-0.00623016
4.15091e-05
4.89482e-05
3.26285e-05
-3.12822e-06
-5.44279e-05
-0.000119366
-0.000196466
-0.000284188
-0.000381283
-0.000486785
-0.000599955
-0.00072023
-0.000847165
-0.000980379
-0.00111949
-0.00126408
-0.00141362
-0.00156749
-0.00172487
-0.00188481
-0.00204611
-0.0022074
-0.00236704
-0.0025232
-0.00267384
-0.00281668
-0.00294929
-0.00306911
-0.00317348
-0.00325972
-0.00332522
-0.00336754
-0.00338446
-0.00337416
-0.00333531
-0.00326717
-0.00316972
-0.00304375
-0.00289095
-0.00271395
-0.00251625
-0.00230246
-0.00207792
-0.00184879
-0.00162183
-0.00140423
-0.00120336
-0.00102649
-0.00088057
-0.000771874
-0.000705775
-0.000686482
-0.000716836
-0.000798159
-0.000930185
-0.00111105
-0.00133735
-0.00160434
-0.00190609
-0.00223578
-0.00258602
-0.00294915
-0.00331752
-0.00368383
-0.00404137
-0.00438415
-0.00470709
-0.00500603
-0.00527777
-0.00551999
-0.00573116
-0.00591044
-0.00605752
-0.00617252
-0.00625585
-0.00630816
-0.00633079
-0.00632542
-0.00628624
-0.00620423
0.000107019
0.000105321
8.32771e-05
4.44437e-05
-7.90249e-06
-7.22505e-05
-0.000147087
-0.000231251
-0.000323828
-0.000424134
-0.000531681
-0.000646124
-0.000767207
-0.000894717
-0.00102843
-0.00116806
-0.00131323
-0.00146346
-0.0016181
-0.0017763
-0.00193705
-0.00209907
-0.00226089
-0.00242078
-0.00257675
-0.0027266
-0.00286791
-0.00299807
-0.00311437
-0.003214
-0.0032942
-0.00335229
-0.00338585
-0.00339277
-0.00337142
-0.00332078
-0.00324051
-0.00313111
-0.00299401
-0.00283159
-0.00264714
-0.00244511
-0.00223072
-0.00201008
-0.00178993
-0.00157751
-0.00138025
-0.00120559
-0.00106059
-0.000951733
-0.000884569
-0.000863487
-0.00089149
-0.000970038
-0.00109896
-0.00127643
-0.00149907
-0.00176207
-0.00205943
-0.00238423
-0.00272896
-0.00308584
-0.00344718
-0.00380563
-0.00415448
-0.00448787
-0.00480087
-0.00508955
-0.00535102
-0.0055833
-0.00578526
-0.0059564
-0.00609676
-0.00620666
-0.00628655
-0.0063368
-0.00635819
-0.00635125
-0.00630718
-0.00621318
0.000195447
0.000180258
0.00014976
0.000105934
5.07593e-05
-1.43401e-05
-8.8229e-05
-0.000170085
-0.000259339
-0.000355626
-0.000458748
-0.000568615
-0.000685205
-0.000808514
-0.000938509
-0.00107509
-0.00121808
-0.00136714
-0.0015218
-0.00168138
-0.00184501
-0.00201156
-0.00217965
-0.00234761
-0.00251352
-0.00267515
-0.00283002
-0.00297542
-0.00310845
-0.00322611
-0.00332535
-0.00340321
-0.00345692
-0.00348404
-0.00348256
-0.00345109
-0.00338897
-0.00329636
-0.00317442
-0.00302537
-0.00285216
-0.00265922
-0.00245169
-0.00223567
-0.00201798
-0.00180597
-0.00160729
-0.00142957
-0.00128017
-0.00116588
-0.00109254
-0.00106485
-0.00108611
-0.00115801
-0.00128057
-0.0014521
-0.00166926
-0.00192723
-0.00221992
-0.00254027
-0.00288059
-0.00323289
-0.0035893
-0.0039423
-0.0042851
-0.00461177
-0.00491745
-0.00519835
-0.00545177
-0.00567603
-0.00587032
-0.00603448
-0.00616886
-0.00627401
-0.00635046
-0.00639846
-0.00641843
-0.00641023
-0.00636344
-0.00626348
0.000303148
0.000270878
0.00022962
0.000179127
0.000119713
5.25349e-05
-2.16341e-05
-0.000102389
-0.000189554
-0.000283125
-0.000383229
-0.000490074
-0.000603904
-0.000724963
-0.000853445
-0.000989476
-0.00113308
-0.00128413
-0.00144234
-0.00160721
-0.00177801
-0.00195373
-0.00213306
-0.00231439
-0.00249576
-0.00267485
-0.00284906
-0.00301546
-0.0031709
-0.00331205
-0.00343551
-0.00353793
-0.0036161
-0.00366716
-0.00368867
-0.00367884
-0.00363661
-0.00356179
-0.00345528
-0.0033192
-0.00315583
-0.00296992
-0.00276648
-0.00255163
-0.0023323
-0.00211604
-0.00191073
-0.00172434
-0.00156461
-0.00143871
-0.00135295
-0.00131247
-0.00132097
-0.00138055
-0.00149154
-0.0016525
-0.00186024
-0.00211
-0.00239564
-0.00270997
-0.00304509
-0.00339279
-0.00374488
-0.00409363
-0.00443199
-0.00475389
-0.00505436
-0.00532964
-0.00557714
-0.00579535
-0.00598371
-0.00614237
-0.00627192
-0.00637319
-0.00644684
-0.00649313
-0.00651233
-0.006504
-0.0064572
-0.00635699
0.000425813
0.000373637
0.000319689
0.000261146
0.000196319
0.000125966
5.04438e-05
-3.03399e-05
-0.000116662
-0.000208921
-0.000307611
-0.000413267
-0.000526435
-0.000647634
-0.000777324
-0.000915881
-0.00106357
-0.00122048
-0.00138655
-0.00156143
-0.00174455
-0.00193499
-0.0021315
-0.00233243
-0.00253573
-0.00273895
-0.00293924
-0.00313338
-0.00331785
-0.00348893
-0.00364275
-0.00377546
-0.00388339
-0.00396313
-0.00401179
-0.00402709
-0.00400755
-0.00395259
-0.00386285
-0.0037404
-0.00358622
-0.00340606
-0.00320464
-0.00298804
-0.00276331
-0.0025382
-0.00232091
-0.00211979
-0.00194304
-0.00179836
-0.00169263
-0.00163156
-0.00161946
-0.00165898
-0.00175096
-0.00189436
-0.00208631
-0.00232223
-0.00259604
-0.00290049
-0.0032275
-0.0035686
-0.00391529
-0.00425947
-0.00459379
-0.00491187
-0.00520855
-0.00547991
-0.00572336
-0.00593744
-0.00612175
-0.00627662
-0.00640291
-0.00650165
-0.00657371
-0.00661946
-0.00663919
-0.00663236
-0.00658836
-0.00649286
0.000558821
0.000484437
0.000416243
0.000348573
0.000277401
0.000202977
0.000125148
4.32437e-05
-4.35308e-05
-0.000136026
-0.000235133
-0.000341753
-0.000456758
-0.000580974
-0.000715157
-0.000859961
-0.00101591
-0.00118334
-0.00136239
-0.00155291
-0.00175444
-0.00196613
-0.00218672
-0.0024145
-0.00264726
-0.0028823
-0.00311645
-0.00334611
-0.00356731
-0.0037758
-0.0039672
-0.00413707
-0.00428115
-0.00439549
-0.00447662
-0.00452173
-0.00452886
-0.00449702
-0.00442622
-0.00431739
-0.00417444
-0.00399997
-0.00379923
-0.00357847
-0.00334485
-0.00310633
-0.00287145
-0.00264898
-0.00244767
-0.00227583
-0.00214106
-0.00204984
-0.00200726
-0.00201672
-0.00207979
-0.00219607
-0.00236321
-0.00257702
-0.00283162
-0.00311984
-0.0034335
-0.00376389
-0.00410218
-0.00443989
-0.00476922
-0.0050834
-0.00537689
-0.00564552
-0.00588649
-0.00609827
-0.00628047
-0.00643354
-0.00655847
-0.00665649
-0.00672866
-0.00677554
-0.0067975
-0.00679408
-0.00675552
-0.00666874
0.000697145
0.000598614
0.000515014
0.000437422
0.000359196
0.00027996
0.000198949
0.000114824
2.6209e-05
-6.82478e-05
-0.000169876
-0.000279963
-0.000399742
-0.000530376
-0.000672939
-0.000828388
-0.000997526
-0.00118095
-0.001379
-0.00159171
-0.0018187
-0.00205918
-0.00231181
-0.00257475
-0.00284555
-0.00312119
-0.00339809
-0.00367218
-0.00393893
-0.0041935
-0.00443088
-0.00464599
-0.00483392
-0.00499005
-0.00511029
-0.00519123
-0.00523035
-0.00522616
-0.00517817
-0.00508692
-0.00495575
-0.00478732
-0.00458663
-0.00435984
-0.00411416
-0.00385773
-0.0035994
-0.00334842
-0.00311411
-0.00290554
-0.00273115
-0.00259835
-0.00251323
-0.00248022
-0.00250187
-0.00257871
-0.00270918
-0.0028897
-0.00311489
-0.0033778
-0.00367029
-0.00398352
-0.00430835
-0.00463585
-0.00495774
-0.00526671
-0.00555672
-0.00582314
-0.00606281
-0.00627396
-0.00645604
-0.00660945
-0.00673523
-0.00683471
-0.00690909
-0.00695912
-0.0069853
-0.0069873
-0.00695653
-0.00688153
0.00083523
0.000711068
0.000611182
0.000523113
0.00043731
0.000352634
0.000267599
0.000180104
8.81261e-05
-1.02334e-05
-0.000116778
-0.000233218
-0.000361171
-0.000502166
-0.000657618
-0.000828807
-0.00101683
-0.00122255
-0.00144651
-0.00168889
-0.0019494
-0.00222721
-0.00252088
-0.00282836
-0.00314688
-0.00347302
-0.00380271
-0.00413129
-0.00445362
-0.00476418
-0.00505723
-0.00532699
-0.0055678
-0.00577432
-0.00594175
-0.00606599
-0.00614384
-0.0061732
-0.00615303
-0.00608358
-0.005967
-0.00580622
-0.00560585
-0.00537185
-0.0051114
-0.00483277
-0.00454507
-0.00425801
-0.00398157
-0.00372563
-0.0034996
-0.00331203
-0.00317024
-0.00307994
-0.00304499
-0.00306717
-0.00314605
-0.00327904
-0.0034615
-0.00368699
-0.00394764
-0.00423459
-0.00453849
-0.00484998
-0.0051602
-0.00546122
-0.00574632
-0.00601025
-0.00624928
-0.00646117
-0.00664502
-0.00680099
-0.00693003
-0.00703342
-0.00711243
-0.00716792
-0.00720047
-0.00720991
-0.00718895
-0.00712795
0.000967086
0.000816145
0.000699369
0.000600467
0.000506704
0.000416028
0.000326114
0.000234011
0.00013698
3.25316e-05
-8.16465e-05
-0.000207721
-0.000347725
-0.000503573
-0.000677046
-0.000869762
-0.00108313
-0.00131826
-0.00157592
-0.00185639
-0.00215942
-0.00248411
-0.00282886
-0.00319131
-0.00356831
-0.00395596
-0.00434959
-0.00474391
-0.00513307
-0.00551077
-0.00587051
-0.00620568
-0.00650981
-0.00677675
-0.00700089
-0.00717734
-0.00730213
-0.00737239
-0.00738645
-0.00734397
-0.00724629
-0.00709598
-0.00689725
-0.00665575
-0.00637852
-0.00607386
-0.00575109
-0.00542036
-0.00509227
-0.00477759
-0.00448682
-0.0042298
-0.00401532
-0.00385068
-0.00374137
-0.0036908
-0.00370009
-0.00376803
-0.00389112
-0.00406379
-0.00427874
-0.00452731
-0.00480007
-0.00508729
-0.00537953
-0.00566812
-0.00594552
-0.00620562
-0.00644391
-0.00665744
-0.00684471
-0.00700544
-0.00714022
-0.00725014
-0.00733639
-0.00739982
-0.00744103
-0.00745989
-0.00745046
-0.00740497
0.00108618
0.000907665
0.000773651
0.000663728
0.000561718
0.000464503
0.000368798
0.000270717
0.000166747
5.37582e-05
-7.11106e-05
-0.000210509
-0.000366914
-0.000542652
-0.000739887
-0.000960595
-0.00120649
-0.00147896
-0.00177893
-0.00210679
-0.00246226
-0.00284432
-0.00325114
-0.00367998
-0.00412725
-0.00458846
-0.0050583
-0.00553074
-0.00599912
-0.00645634
-0.006895
-0.00730762
-0.00768681
-0.00802552
-0.00831723
-0.00855615
-0.00873743
-0.00885733
-0.00891336
-0.00890443
-0.00883107
-0.00869526
-0.00850062
-0.00825239
-0.00795733
-0.00762363
-0.00726073
-0.00687912
-0.00649001
-0.00610504
-0.00573587
-0.0053938
-0.00508924
-0.00483139
-0.00462771
-0.00448367
-0.00440237
-0.00438448
-0.00442813
-0.00452908
-0.00468097
-0.00487571
-0.00510399
-0.00535587
-0.00562135
-0.00589093
-0.00615611
-0.00640972
-0.00664619
-0.00686157
-0.0070535
-0.00722093
-0.00736389
-0.00748302
-0.00757922
-0.00765317
-0.00770536
-0.00773559
-0.00773917
-0.00771014
0.0011855
0.000978972
0.000827603
0.000706605
0.000596114
0.000491794
0.000389296
0.00028371
0.00017069
4.64234e-05
-9.25362e-05
-0.000249351
-0.000426969
-0.00062815
-0.000855468
-0.00111126
-0.00139757
-0.00171601
-0.00206768
-0.002453
-0.00287166
-0.00332244
-0.00380319
-0.00431075
-0.00484098
-0.00538875
-0.00594801
-0.00651191
-0.00707294
-0.00762306
-0.00815393
-0.00865708
-0.00912414
-0.00954704
-0.00991826
-0.010231
-0.0104794
-0.0106587
-0.0107656
-0.010798
-0.0107555
-0.0106394
-0.0104525
-0.0101996
-0.00988687
-0.00952233
-0.00911537
-0.00867667
-0.00821796
-0.00775171
-0.00729074
-0.00684782
-0.0064352
-0.00606416
-0.0057445
-0.00548411
-0.00528863
-0.0051611
-0.00510188
-0.00510862
-0.00517643
-0.00529823
-0.00546522
-0.00566745
-0.00589446
-0.00613595
-0.00638229
-0.00662506
-0.00685733
-0.00707385
-0.00727102
-0.00744672
-0.00760007
-0.007731
-0.00783984
-0.00792693
-0.00799242
-0.00803592
-0.00805382
-0.00804183
0.00125758
0.00102299
0.000854362
0.000722335
0.000603146
0.000491102
0.000380681
0.00026588
0.000141462
2.88957e-06
-0.000153896
-0.000332604
-0.000536677
-0.000769338
-0.00103358
-0.00133213
-0.00166733
-0.00204102
-0.00245442
-0.00290799
-0.00340127
-0.00393281
-0.00450007
-0.0050994
-0.00572602
-0.00637408
-0.0070367
-0.00770616
-0.00837397
-0.0090311
-0.00966816
-0.0102756
-0.010844
-0.0113641
-0.0118274
-0.0122259
-0.0125527
-0.012802
-0.0129693
-0.0130516
-0.0130475
-0.0129574
-0.0127832
-0.0125289
-0.0122002
-0.0118046
-0.0113512
-0.0108509
-0.0103156
-0.00975856
-0.00919357
-0.0086349
-0.00809667
-0.00759241
-0.00713448
-0.00673364
-0.00639847
-0.00613502
-0.00594649
-0.0058331
-0.00579212
-0.00581806
-0.00590314
-0.00603778
-0.00621132
-0.00641266
-0.00663104
-0.00685653
-0.00708058
-0.00729626
-0.00749835
-0.00768328
-0.00784886
-0.00799395
-0.00811803
-0.0082208
-0.00830188
-0.00836048
-0.0083939
-0.00839933
0.00129464
0.0010323
0.000846728
0.000703789
0.000575674
0.000455203
0.000335584
0.000209657
7.12494e-05
-8.49334e-05
-0.000263596
-0.000469022
-0.00070518
-0.000975776
-0.00128425
-0.00163369
-0.00202675
-0.00246548
-0.0029512
-0.0034843
-0.00406417
-0.00468904
-0.00535591
-0.00606053
-0.00679744
-0.00755994
-0.00834029
-0.00912974
-0.00991878
-0.0106973
-0.0114547
-0.0121803
-0.0128636
-0.013494
-0.0140619
-0.0145582
-0.0149747
-0.0153046
-0.0155422
-0.0156834
-0.0157258
-0.0156686
-0.015513
-0.0152621
-0.0149207
-0.0144956
-0.0139957
-0.0134315
-0.0128151
-0.0121601
-0.0114812
-0.010794
-0.0101144
-0.00945813
-0.00884036
-0.00827491
-0.00777378
-0.00734658
-0.00700005
-0.00673772
-0.0065598
-0.00646319
-0.0064418
-0.00648701
-0.0065883
-0.00673405
-0.00691232
-0.00711158
-0.00732135
-0.00753263
-0.00773815
-0.0079324
-0.00811146
-0.00827271
-0.00841441
-0.00853529
-0.00863418
-0.0087097
-0.00875979
-0.00878297
0.00128866
0.000999311
0.000797286
0.000643606
0.000506303
0.000376594
0.000246342
0.000107177
-4.80404e-05
-0.000225393
-0.000430263
-0.000667536
-0.000941731
-0.00125706
-0.0016174
-0.00202624
-0.00248651
-0.00300044
-0.00356938
-0.00419365
-0.00487238
-0.00560341
-0.00638319
-0.00720683
-0.00806803
-0.0089592
-0.00987157
-0.0107953
-0.0117198
-0.0126336
-0.0135251
-0.0143823
-0.0151932
-0.0159464
-0.0166308
-0.017236
-0.0177529
-0.0181734
-0.0184907
-0.0186996
-0.0187966
-0.01878
-0.0186498
-0.018408
-0.0180587
-0.0176079
-0.0170638
-0.0164362
-0.0157372
-0.0149805
-0.0141813
-0.0133562
-0.0125226
-0.0116984
-0.0109015
-0.0101489
-0.00945633
-0.00883741
-0.00830308
-0.00786101
-0.00751523
-0.00726598
-0.00710974
-0.00703961
-0.00704588
-0.00711677
-0.00723935
-0.00740044
-0.00758737
-0.00778871
-0.00799465
-0.00819721
-0.00839024
-0.00856912
-0.00873047
-0.0088717
-0.00899054
-0.00908474
-0.0091527
-0.00919408
0.00123157
0.000916352
0.000698559
0.000534341
0.000387535
0.000247662
0.000105181
-4.95191e-05
-0.000224572
-0.000426875
-0.000662513
-0.000936997
-0.00125542
-0.00162252
-0.00204262
-0.00251958
-0.0030566
-0.00365605
-0.00431927
-0.00504642
-0.00583631
-0.0066863
-0.00759221
-0.00854835
-0.00954752
-0.0105811
-0.0116392
-0.0127109
-0.0137841
-0.0148462
-0.0158843
-0.016885
-0.0178351
-0.0187218
-0.0195329
-0.0202568
-0.0208833
-0.021403
-0.0218083
-0.0220929
-0.0222522
-0.0222834
-0.0221856
-0.0219597
-0.0216088
-0.0211379
-0.0205542
-0.019867
-0.0190877
-0.0182296
-0.0173081
-0.0163404
-0.0153449
-0.0143414
-0.0133502
-0.0123914
-0.0114845
-0.0106476
-0.00989625
-0.00924309
-0.00869691
-0.00826231
-0.00793946
-0.00772424
-0.00760857
-0.00758123
-0.00762868
-0.00773619
-0.00788878
-0.00807223
-0.00827369
-0.00848217
-0.00868863
-0.00888594
-0.00906854
-0.00923209
-0.00937288
-0.00948753
-0.00957466
-0.00963492
0.00111542
0.000775883
0.000543179
0.000368646
0.000211958
6.08803e-05
-9.55704e-05
-0.000268266
-0.000466351
-0.000697554
-0.000968682
-0.0012859
-0.00165488
-0.0020809
-0.00256874
-0.00312261
-0.00374593
-0.00444118
-0.00520963
-0.00605119
-0.00696426
-0.00794561
-0.00899032
-0.0100918
-0.0112418
-0.0124306
-0.013647
-0.0148787
-0.0161123
-0.017334
-0.0185291
-0.0196831
-0.0207815
-0.0218103
-0.0227559
-0.0236059
-0.0243489
-0.0249746
-0.0254743
-0.0258409
-0.0260689
-0.0261546
-0.0260959
-0.025893
-0.0255478
-0.0250641
-0.0244481
-0.0237081
-0.0228544
-0.0218998
-0.0208592
-0.0197497
-0.0185904
-0.0174023
-0.0162074
-0.0150288
-0.0138896
-0.0128122
-0.0118173
-0.0109231
-0.010144
-0.00949003
-0.00896641
-0.008573
-0.0083046
-0.00815147
-0.00810019
-0.00813484
-0.00823818
-0.00839294
-0.00858276
-0.008793
-0.00901112
-0.00922679
-0.00943169
-0.00961922
-0.00978382
-0.00992067
-0.0100284
-0.0101086
0.000932589
0.000570669
0.00032407
0.000139457
-2.75493e-05
-0.000190975
-0.00036326
-0.00055654
-0.000780973
-0.00104513
-0.00135656
-0.00172208
-0.00214798
-0.00264005
-0.00320353
-0.00384296
-0.00456195
-0.00536299
-0.00624721
-0.0072142
-0.00826183
-0.00938616
-0.0105814
-0.0118399
-0.0131523
-0.0145074
-0.0158928
-0.0172946
-0.0186981
-0.0200878
-0.0214478
-0.0227621
-0.024015
-0.0251912
-0.0262763
-0.0272566
-0.02812
-0.0288555
-0.0294536
-0.0299064
-0.0302078
-0.0303532
-0.0303398
-0.0301666
-0.0298347
-0.0293467
-0.0287076
-0.0279243
-0.027006
-0.0259643
-0.024813
-0.0235688
-0.0222505
-0.0208794
-0.0194789
-0.0180742
-0.0166915
-0.0153573
-0.0140974
-0.0129358
-0.0118934
-0.0109868
-0.0102273
-0.0096204
-0.00916518
-0.00885477
-0.00867694
-0.00861528
-0.00865064
-0.00876259
-0.00893091
-0.0091367
-0.00936317
-0.00959606
-0.00982362
-0.0100364
-0.0102265
-0.0103873
-0.0105173
-0.0106187
0.000675958
0.00029398
3.46525e-05
-0.000159794
-0.000337608
-0.000514606
-0.000704681
-0.000921216
-0.00117537
-0.00147657
-0.00183309
-0.00225244
-0.0027415
-0.00330659
-0.00395338
-0.00468668
-0.00551024
-0.00642652
-0.00743639
-0.00853899
-0.00973155
-0.0110093
-0.0123653
-0.0137909
-0.0152752
-0.0168057
-0.0183683
-0.0199477
-0.0215275
-0.0230908
-0.0246201
-0.0260982
-0.0275081
-0.0288336
-0.0300592
-0.0311706
-0.0321551
-0.033001
-0.0336984
-0.0342391
-0.0346162
-0.0348246
-0.0348611
-0.0347237
-0.0344125
-0.0339292
-0.0332773
-0.0324625
-0.0314923
-0.0303768
-0.0291285
-0.0277625
-0.0262968
-0.0247523
-0.0231527
-0.0215242
-0.0198954
-0.0182963
-0.0167574
-0.0153084
-0.013977
-0.0127872
-0.0117579
-0.0109015
-0.0102233
-0.00972089
-0.00938473
-0.00919913
-0.00914366
-0.009195
-0.00932883
-0.00952146
-0.00975115
-0.00999884
-0.0102486
-0.0104874
-0.0107045
-0.010891
-0.011045
-0.0111696
0.000339151
-6.02057e-05
-0.000330956
-0.000534976
-0.000724123
-0.000915974
-0.00112584
-0.00136833
-0.00165557
-0.00199783
-0.00240413
-0.00288265
-0.00344086
-0.0040856
-0.00482292
-0.00565786
-0.00659424
-0.00763436
-0.00877876
-0.010026
-0.0113724
-0.0128123
-0.0143377
-0.0159382
-0.0176016
-0.0193138
-0.021059
-0.0228202
-0.0245794
-0.0263181
-0.0280174
-0.0296589
-0.0312246
-0.0326971
-0.0340606
-0.0353003
-0.0364028
-0.0373564
-0.038151
-0.0387781
-0.0392307
-0.0395033
-0.0395924
-0.0394954
-0.0392115
-0.0387415
-0.0380877
-0.0372541
-0.0362469
-0.035074
-0.0337462
-0.0322767
-0.0306818
-0.0289809
-0.0271969
-0.0253564
-0.0234888
-0.0216265
-0.0198039
-0.0180561
-0.0164174
-0.0149196
-0.0135901
-0.0124499
-0.0115121
-0.0107809
-0.0102515
-0.00991029
-0.00973696
-0.0097059
-0.00978876
-0.0099567
-0.0101823
-0.0104408
-0.0107113
-0.0109763
-0.0112216
-0.0114355
-0.0116156
-0.0117656
-8.32717e-05
-0.000497003
-0.000777744
-0.000991059
-0.00119208
-0.00140008
-0.00163175
-0.00190284
-0.00222645
-0.00261364
-0.00307418
-0.0036169
-0.00424987
-0.00498038
-0.00581481
-0.0067584
-0.00781491
-0.00898639
-0.0102729
-0.0116722
-0.0131798
-0.0147887
-0.0164895
-0.0182703
-0.0201173
-0.0220145
-0.0239443
-0.0258881
-0.027826
-0.0297381
-0.0316042
-0.0334048
-0.0351209
-0.0367346
-0.0382296
-0.0395909
-0.040805
-0.0418603
-0.0427468
-0.0434561
-0.0439812
-0.0443169
-0.0444591
-0.0444052
-0.0441538
-0.0437047
-0.0430592
-0.04222
-0.0411913
-0.0399793
-0.0385924
-0.0370416
-0.0353406
-0.0335067
-0.0315612
-0.0295292
-0.0274399
-0.0253269
-0.0232269
-0.0211794
-0.0192248
-0.0174025
-0.0157489
-0.0142947
-0.0130627
-0.0120658
-0.0113059
-0.0107743
-0.0104522
-0.0103129
-0.0103245
-0.010453
-0.0106646
-0.0109283
-0.0112168
-0.0115076
-0.011782
-0.012025
-0.0122332
-0.0124114
-0.000595624
-0.00102044
-0.00130962
-0.00153192
-0.00174535
-0.00197077
-0.00222618
-0.00252842
-0.00289149
-0.00332725
-0.00384616
-0.00445769
-0.00517045
-0.00599217
-0.00692951
-0.00798775
-0.00917055
-0.0104796
-0.0119142
-0.0134713
-0.0151452
-0.0169276
-0.0188075
-0.0207712
-0.0228031
-0.0248853
-0.0269983
-0.0291216
-0.0312339
-0.0333137
-0.0353396
-0.0372912
-0.0391488
-0.0408942
-0.0425108
-0.0439838
-0.0453
-0.0464481
-0.0474185
-0.0482031
-0.0487955
-0.0491908
-0.0493846
-0.0493745
-0.0491588
-0.0487367
-0.0481085
-0.0472757
-0.0462408
-0.0450082
-0.0435838
-0.0419759
-0.0401955
-0.038257
-0.0361788
-0.0339836
-0.0316991
-0.0293581
-0.0269984
-0.0246621
-0.0223944
-0.0202417
-0.0182491
-0.0164577
-0.0149013
-0.0136037
-0.0125764
-0.0118174
-0.0113123
-0.011035
-0.0109513
-0.0110221
-0.0112072
-0.0114681
-0.0117706
-0.0120858
-0.0123897
-0.0126633
-0.012902
-0.0131114
-0.00120092
-0.0016333
-0.00192926
-0.0021602
-0.00238651
-0.00263056
-0.00291154
-0.00324729
-0.00365267
-0.00414027
-0.00472122
-0.0054056
-0.00620252
-0.00712007
-0.00816508
-0.00934284
-0.0106567
-0.0121078
-0.0136947
-0.0154133
-0.0172565
-0.0192144
-0.0212742
-0.0234205
-0.0256354
-0.0278992
-0.0301905
-0.032487
-0.0347657
-0.0370039
-0.0391792
-0.0412704
-0.0432574
-0.045122
-0.0468478
-0.0484201
-0.0498265
-0.0510561
-0.0521002
-0.0529513
-0.0536036
-0.0540526
-0.0542947
-0.0543273
-0.0541486
-0.0537575
-0.0531538
-0.0523377
-0.0513106
-0.0500747
-0.0486338
-0.0469934
-0.0451616
-0.0431492
-0.0409712
-0.0386468
-0.0362008
-0.0336638
-0.0310727
-0.0284702
-0.0259045
-0.0234276
-0.0210924
-0.0189503
-0.0170469
-0.0154185
-0.0140885
-0.0130651
-0.0123406
-0.0118924
-0.0116855
-0.0116768
-0.0118196
-0.0120675
-0.0123782
-0.0127155
-0.0130489
-0.0133544
-0.013626
-0.0138699
-0.00190075
-0.00233697
-0.00263796
-0.00287712
-0.00311672
-0.00338048
-0.00368867
-0.00406005
-0.00451024
-0.00505252
-0.00569866
-0.00645925
-0.00734386
-0.00836086
-0.00951718
-0.010818
-0.0122662
-0.0138622
-0.0156037
-0.0174852
-0.0194982
-0.0216309
-0.0238687
-0.026194
-0.0285871
-0.031026
-0.0334875
-0.0359475
-0.0383816
-0.040766
-0.0430774
-0.0452941
-0.0473961
-0.0493653
-0.0511856
-0.052843
-0.054326
-0.0556245
-0.0567307
-0.057638
-0.0583415
-0.0588374
-0.0591225
-0.0591947
-0.0590525
-0.0586945
-0.0581201
-0.0573289
-0.0563209
-0.0550969
-0.0536585
-0.0520088
-0.0501526
-0.0480973
-0.0458539
-0.0434375
-0.0408687
-0.0381744
-0.0353888
-0.0325533
-0.0297168
-0.0269345
-0.0242658
-0.0217712
-0.0195081
-0.0175263
-0.0158634
-0.0145403
-0.0135598
-0.0129054
-0.0125442
-0.0124307
-0.0125123
-0.0127344
-0.0130457
-0.0134014
-0.0137635
-0.014102
-0.0144088
-0.0146908
-0.00269517
-0.00313136
-0.00343554
-0.00368243
-0.00393562
-0.00422001
-0.00455682
-0.00496562
-0.00546271
-0.00606199
-0.00677577
-0.00761516
-0.00859006
-0.00970905
-0.010979
-0.0124049
-0.013989
-0.0157309
-0.0176271
-0.0196708
-0.0218515
-0.0241559
-0.0265669
-0.0290652
-0.0316285
-0.0342331
-0.0368538
-0.039465
-0.042041
-0.0445569
-0.0469891
-0.0493156
-0.0515165
-0.0535742
-0.0554734
-0.0572009
-0.0587461
-0.0601002
-0.0612563
-0.0622089
-0.0629541
-0.0634889
-0.0638109
-0.0639185
-0.0638104
-0.0634856
-0.0629431
-0.0621821
-0.0612019
-0.0600019
-0.0585821
-0.0569432
-0.0550872
-0.053018
-0.0507426
-0.0482714
-0.0456204
-0.0428116
-0.0398745
-0.0368475
-0.0337777
-0.0307211
-0.0277409
-0.0249049
-0.0222814
-0.0199338
-0.017915
-0.0162617
-0.0149899
-0.0140935
-0.0135447
-0.013298
-0.0132962
-0.0134769
-0.0137791
-0.0141482
-0.0145375
-0.0149096
-0.0152538
-0.0155776
-0.0035826
-0.00401484
-0.00432031
-0.00457434
-0.00484125
-0.00514696
-0.00551352
-0.00596115
-0.00650674
-0.00716472
-0.00794792
-0.0088678
-0.00993457
-0.0111569
-0.0125415
-0.0140929
-0.0158127
-0.0176996
-0.0197487
-0.0219514
-0.0242956
-0.0267658
-0.0293429
-0.0320052
-0.0347285
-0.0374869
-0.0402536
-0.0430015
-0.045704
-0.0483353
-0.0508717
-0.0532912
-0.0555743
-0.0577042
-0.0596663
-0.0614488
-0.063042
-0.0644385
-0.0656323
-0.0666194
-0.0673967
-0.0679622
-0.0683143
-0.068452
-0.0683747
-0.0680814
-0.0675714
-0.0668436
-0.0658968
-0.0647295
-0.0633405
-0.0617286
-0.0598933
-0.0578356
-0.0555583
-0.0530676
-0.050374
-0.047494
-0.0444517
-0.04128
-0.0380222
-0.0347323
-0.0314746
-0.0283215
-0.0253499
-0.0226361
-0.0202485
-0.0182414
-0.0166474
-0.0154743
-0.0147035
-0.0142929
-0.0141826
-0.0143034
-0.0145845
-0.0149605
-0.0153743
-0.0157802
-0.0161639
-0.016533
-0.00455988
-0.00498421
-0.00528899
-0.00554945
-0.00583006
-0.00615754
-0.00655462
-0.00704205
-0.00763719
-0.00835494
-0.00920849
-0.0102097
-0.0113688
-0.0126945
-0.0141933
-0.0158692
-0.0177229
-0.0197519
-0.0219497
-0.0243063
-0.0268075
-0.0294355
-0.0321691
-0.0349845
-0.0378553
-0.0407538
-0.0436517
-0.0465205
-0.0493329
-0.0520628
-0.0546862
-0.0571818
-0.0595306
-0.0617166
-0.0637264
-0.0655495
-0.0671773
-0.0686036
-0.069824
-0.0708353
-0.0716356
-0.0722237
-0.0725991
-0.0727615
-0.0727105
-0.072446
-0.0719672
-0.0712732
-0.0703626
-0.0692335
-0.0678836
-0.0663106
-0.0645119
-0.062486
-0.0602323
-0.0577528
-0.0550528
-0.052143
-0.0490411
-0.0457735
-0.0423776
-0.0389029
-0.0354115
-0.0319773
-0.0286831
-0.0256155
-0.0228583
-0.0204833
-0.0185427
-0.0170617
-0.0160353
-0.0154286
-0.0151826
-0.0152225
-0.0154681
-0.0158425
-0.0162771
-0.0167162
-0.0171411
-0.0175592
-0.00562222
-0.00603472
-0.0063368
-0.00660287
-0.00689693
-0.00724633
-0.00767433
-0.00820204
-0.00884721
-0.00962506
-0.0105491
-0.0116313
-0.0128822
-0.0143101
-0.0159213
-0.017719
-0.019703
-0.0218693
-0.0242102
-0.0267135
-0.029363
-0.0321389
-0.0350177
-0.0379734
-0.0409777
-0.0440014
-0.0470145
-0.0499878
-0.0528933
-0.0557048
-0.0583986
-0.0609538
-0.0633525
-0.0655797
-0.0676232
-0.0694736
-0.0711239
-0.0725691
-0.0738059
-0.0748322
-0.0756473
-0.0762509
-0.0766431
-0.0768245
-0.0767953
-0.0765558
-0.0761057
-0.0754443
-0.0745703
-0.0734816
-0.0721756
-0.0706489
-0.0688978
-0.0669188
-0.0647085
-0.0622652
-0.0595897
-0.0566869
-0.0535679
-0.0502519
-0.0467688
-0.0431615
-0.0394872
-0.0358177
-0.0322381
-0.0288424
-0.025727
-0.0229817
-0.0206789
-0.0188647
-0.0175517
-0.016717
-0.0163063
-0.016242
-0.0164355
-0.0167982
-0.0172486
-0.0177195
-0.018187
-0.0186575
-0.00676333
-0.00716018
-0.0074575
-0.0077282
-0.00803525
-0.0084064
-0.00886528
-0.00943326
-0.0101283
-0.0109659
-0.0119596
-0.0131218
-0.0144626
-0.0159903
-0.0177106
-0.019626
-0.021735
-0.0240325
-0.0265087
-0.0291498
-0.0319375
-0.0348497
-0.0378609
-0.040943
-0.044066
-0.047199
-0.0503112
-0.0533724
-0.0563544
-0.0592312
-0.0619796
-0.0645794
-0.0670136
-0.0692685
-0.0713332
-0.0731996
-0.074862
-0.0763166
-0.0775612
-0.0785949
-0.0794177
-0.0800303
-0.0804337
-0.0806289
-0.0806169
-0.0803984
-0.0799736
-0.0793422
-0.0785032
-0.0774547
-0.0761939
-0.0747171
-0.07302
-0.0710975
-0.0689445
-0.0665563
-0.0639296
-0.0610645
-0.0579655
-0.0546444
-0.051123
-0.0474359
-0.0436327
-0.0397802
-0.0359619
-0.0322752
-0.0288264
-0.0257205
-0.0230507
-0.0208858
-0.01926
-0.0181673
-0.0175626
-0.0173693
-0.0174921
-0.0178308
-0.0182907
-0.0187913
-0.019302
-0.0198282
-0.00797548
-0.008353
-0.00864351
-0.00891772
-0.00923703
-0.00962942
-0.0101187
-0.0107264
-0.0114705
-0.0123667
-0.0134286
-0.0146684
-0.0160964
-0.0177203
-0.0195452
-0.0215726
-0.0238001
-0.0262208
-0.0288235
-0.0315921
-0.0345064
-0.0375422
-0.040672
-0.0438658
-0.0470921
-0.0503187
-0.0535138
-0.056647
-0.05969
-0.0626169
-0.0654054
-0.0680361
-0.0704933
-0.0727643
-0.0748397
-0.0767127
-0.0783786
-0.0798349
-0.0810804
-0.0821152
-0.0829401
-0.0835566
-0.0839662
-0.0841706
-0.0841715
-0.0839699