/*--------------------------------*- C++ -*----------------------------------*\
  =========                 |
  \\      /  F ield         | OpenFOAM: The Open Source CFD Toolbox
   \\    /   O peration     | Website:  https://openfoam.org
    \\  /    A nd           | Version:  7
     \\/     M anipulation  |
\*---------------------------------------------------------------------------*/
FoamFile
{
    version     2.0;
    format      ascii;
    class       surfaceScalarField;
    location    "2";
    object      phi;
}
// * * * * * * * * * * * * * * * * * * * * * * * * * * * * * * * * * * * * * //

dimensions      [0 3 -1 0 0 0 0];

internalField   nonuniform List<scalar> 
12640
(
3.8115e-10
-3.86353e-10
1.421e-09
-1.03989e-09
2.66659e-09
-1.24553e-09
3.78794e-09
-1.1214e-09
4.60317e-09
-8.15206e-10
5.02404e-09
-4.20878e-10
5.01828e-09
5.73253e-12
4.58488e-09
4.33412e-10
3.73769e-09
8.47209e-10
2.49537e-09
1.24232e-09
8.7543e-10
1.61991e-09
-1.10876e-09
1.98417e-09
-3.44912e-09
2.3404e-09
-6.14286e-09
2.69375e-09
-9.19147e-09
3.0486e-09
-1.25995e-08
3.408e-09
-1.63729e-08
3.77346e-09
-2.05179e-08
4.14494e-09
-2.50387e-08
4.52082e-09
-2.99367e-08
4.898e-09
-3.52087e-08
5.27204e-09
-4.0846e-08
5.63725e-09
-4.68328e-08
5.98676e-09
-5.31455e-08
6.31272e-09
-5.97519e-08
6.60637e-09
-6.66102e-08
6.85828e-09
-7.36687e-08
7.05847e-09
-8.08653e-08
7.19662e-09
-8.81276e-08
7.26233e-09
-9.53731e-08
7.24544e-09
-1.02509e-07
7.13632e-09
-1.09436e-07
6.92624e-09
-1.16043e-07
6.60774e-09
-1.22218e-07
6.17501e-09
-1.27843e-07
5.6243e-09
-1.32797e-07
4.95429e-09
-1.36963e-07
4.16642e-09
-1.40229e-07
3.26517e-09
-1.42487e-07
2.25831e-09
-1.43644e-07
1.15671e-09
-1.43624e-07
-1.95965e-11
-1.42357e-07
-1.2665e-09
-1.3981e-07
-2.54784e-09
-1.35964e-07
-3.84612e-09
-1.30829e-07
-5.13425e-09
-1.24445e-07
-6.38403e-09
-1.16879e-07
-7.56649e-09
-1.08226e-07
-8.65271e-09
-9.86112e-08
-9.61481e-09
-8.81842e-08
-1.0427e-08
-7.71175e-08
-1.10667e-08
-6.5602e-08
-1.15154e-08
-5.38421e-08
-1.17599e-08
-4.20496e-08
-1.17925e-08
-3.04374e-08
-1.16122e-08
-1.92133e-08
-1.12241e-08
-8.57315e-09
-1.06401e-08
1.30505e-09
-9.87819e-09
1.02669e-08
-8.96189e-09
1.81845e-08
-7.91759e-09
2.49612e-08
-6.77669e-09
3.05325e-08
-5.57123e-09
3.48661e-08
-4.33366e-09
3.79614e-08
-3.09531e-09
3.98465e-08
-1.88507e-09
4.0575e-08
-7.285e-10
4.02222e-08
3.52848e-10
3.88806e-08
1.34159e-09
3.66563e-08
2.22426e-09
3.3666e-08
2.99031e-09
3.00354e-08
3.63057e-09
2.59005e-08
4.13498e-09
2.1411e-08
4.48945e-09
1.67391e-08
4.6719e-09
1.20915e-08
4.64763e-09
7.72585e-09
4.36562e-09
3.96654e-09
3.75932e-09
1.21223e-09
2.7543e-09
-1.10586e-10
1.32281e-09
-1.10587e-10
1.051e-09
-1.43741e-09
3.05045e-09
-3.0392e-09
5.20886e-09
-3.40404e-09
6.96775e-09
-2.88028e-09
7.96028e-09
-1.80771e-09
7.97451e-09
-4.35116e-10
6.9078e-09
1.07246e-09
4.7261e-09
2.61513e-09
1.43441e-09
4.1389e-09
-2.94473e-09
5.62148e-09
-8.38503e-09
7.06025e-09
-1.48643e-08
8.46349e-09
-2.23682e-08
9.84424e-09
-3.08904e-08
1.1216e-08
-4.04318e-08
1.259e-08
-5.09971e-08
1.39733e-08
-6.25919e-08
1.53683e-08
-7.52187e-08
1.67718e-08
-8.88733e-08
1.81754e-08
-1.03541e-07
1.95654e-08
-1.19192e-07
2.09237e-08
-1.35782e-07
2.22274e-08
-1.53246e-07
2.34502e-08
-1.71495e-07
2.45622e-08
-1.9042e-07
2.55309e-08
-2.09884e-07
2.63219e-08
-2.29725e-07
2.68996e-08
-2.49756e-07
2.72279e-08
-2.69765e-07
2.72716e-08
-2.89517e-07
2.69972e-08
-3.08755e-07
2.6374e-08
-3.27204e-07
2.53757e-08
-3.44578e-07
2.39814e-08
-3.60579e-07
2.21766e-08
-3.7491e-07
1.99549e-08
-3.87274e-07
1.73188e-08
-3.97388e-07
1.42803e-08
-4.04985e-07
1.08622e-08
-4.09825e-07
7.0981e-09
-4.11701e-07
3.03291e-09
-4.10445e-07
-1.27605e-09
-4.05941e-07
-5.77029e-09
-3.98122e-07
-1.03665e-08
-3.86984e-07
-1.49843e-08
-3.72584e-07
-1.95343e-08
-3.55045e-07
-2.39228e-08
-3.34557e-07
-2.80548e-08
-3.11374e-07
-3.18361e-08
-2.85812e-07
-3.5177e-08
-2.58244e-07
-3.79949e-08
-2.29093e-07
-4.02179e-08
-1.98821e-07
-4.17873e-08
-1.6792e-07
-4.26607e-08
-1.36899e-07
-4.28136e-08
-1.0627e-07
-4.22415e-08
-7.65334e-08
-4.09603e-08
-4.81671e-08
-3.90065e-08
-2.16095e-08
-3.64357e-08
2.74967e-09
-3.33211e-08
2.45822e-08
-2.97501e-08
4.36261e-08
-2.58206e-08
5.96931e-08
-2.16383e-08
7.26704e-08
-1.73109e-08
8.25194e-08
-1.29444e-08
8.92732e-08
-8.63888e-09
9.30305e-08
-4.48575e-09
9.39485e-08
-5.65171e-10
9.22355e-08
3.05462e-09
8.81428e-08
6.31691e-09
8.19595e-08
9.1736e-09
7.4009e-08
1.15811e-08
6.465e-08
1.3494e-08
5.42829e-08
1.48566e-08
4.33608e-08
1.5594e-08
3.24048e-08
1.56036e-08
2.20187e-08
1.47517e-08
1.28911e-08
1.28869e-08
5.76511e-09
9.8803e-09
1.33321e-09
5.75471e-09
1.22262e-09
1.27141e-09
-2.70876e-09
3.41918e-09
-5.18704e-09
5.45298e-09
-5.4378e-09
6.71077e-09
-4.13808e-09
6.74885e-09
-1.84584e-09
5.29707e-09
1.0167e-09
2.20958e-09
4.15998e-09
-2.57517e-09
7.39986e-09
-9.06879e-09
1.06325e-08
-1.72577e-08
1.38104e-08
-2.71199e-08
1.69225e-08
-3.86351e-08
1.99787e-08
-5.17894e-08
2.29985e-08
-6.65759e-08
2.60025e-08
-8.29932e-08
2.90072e-08
-1.01041e-07
3.20212e-08
-1.20716e-07
3.50432e-08
-1.42006e-07
3.80615e-08
-1.64884e-07
4.10537e-08
-1.89305e-07
4.39868e-08
-2.152e-07
4.68187e-08
-2.42471e-07
4.94983e-08
-2.70989e-07
5.19676e-08
-3.00589e-07
5.41622e-08
-3.31071e-07
5.60131e-08
-3.62198e-07
5.74486e-08
-3.93694e-07
5.83956e-08
-4.25248e-07
5.87821e-08
-4.56515e-07
5.85391e-08
-4.87121e-07
5.76029e-08
-5.16665e-07
5.59176e-08
-5.44727e-07
5.34375e-08
-5.70875e-07
5.01294e-08
-5.94673e-07
4.59747e-08
-6.15689e-07
4.09717e-08
-6.33507e-07
3.51368e-08
-6.47733e-07
2.85063e-08
-6.58008e-07
2.11371e-08
-6.64017e-07
1.31067e-08
-6.65498e-07
4.51409e-09
-6.62249e-07
-4.52499e-09
-6.54144e-07
-1.38751e-08
-6.4113e-07
-2.33808e-08
-6.23237e-07
-3.28773e-08
-6.00582e-07
-4.21892e-08
-5.7337e-07
-5.11349e-08
-5.41893e-07
-5.95314e-08
-5.0653e-07
-6.71993e-08
-4.67739e-07
-7.3968e-08
-4.26052e-07
-7.96815e-08
-3.82067e-07
-8.42037e-08
-3.3643e-07
-8.74236e-08
-2.89831e-07
-8.92598e-08
-2.4298e-07
-8.9665e-08
-1.96593e-07
-8.8628e-08
-1.51378e-07
-8.61759e-08
-1.0801e-07
-8.23742e-08
-6.71212e-08
-7.73246e-08
-2.92796e-08
-7.11626e-08
5.02265e-09
-6.40524e-08
3.53827e-08
-5.61806e-08
6.14932e-08
-4.77488e-08
8.315e-08
-3.89677e-08
1.00252e-07
-3.00465e-08
1.12801e-07
-2.11875e-08
1.20894e-07
-1.25789e-08
1.24719e-07
-4.39078e-09
1.24547e-07
3.22734e-09
1.20717e-07
1.01465e-08
1.13637e-07
1.62533e-08
1.03775e-07
2.14438e-08
9.16555e-08
2.56132e-08
7.78694e-08
2.86427e-08
6.30773e-08
3.03862e-08
4.8021e-08
3.06599e-08
3.35299e-08
2.92428e-08
2.05164e-08
2.59004e-08
9.94738e-09
2.04493e-08
2.78855e-09
1.29135e-08
4.01117e-09
1.12713e-09
-3.83596e-09
2.76872e-09
-6.8286e-09
3.86053e-09
-6.52958e-09
3.71061e-09
-3.9882e-09
1.86019e-09
4.55951e-12
-1.96957e-09
4.84649e-09
-7.93835e-09
1.01288e-08
-1.61198e-08
1.55813e-08
-2.65376e-08
2.10502e-08
-3.91887e-08
2.64615e-08
-5.40603e-08
3.17941e-08
-7.11391e-08
3.70575e-08
-9.04155e-08
4.22748e-08
-1.11883e-07
4.74704e-08
-1.35537e-07
5.26614e-08
-1.61369e-07
5.78524e-08
-1.89357e-07
6.3032e-08
-2.19468e-07
6.8172e-08
-2.51641e-07
7.32268e-08
-2.85789e-07
7.81346e-08
-3.21789e-07
8.28185e-08
-3.59479e-07
8.71884e-08
-3.98654e-07
9.11432e-08
-4.39065e-07
9.45732e-08
-4.80415e-07
9.7363e-08
-5.22361e-07
9.93942e-08
-5.64514e-07
1.00549e-07
-6.06446e-07
1.00714e-07
-6.4769e-07
9.97827e-08
-6.87747e-07
9.76605e-08
-7.26097e-07
9.42677e-08
-7.62204e-07
8.95438e-08
-7.95524e-07
8.34501e-08
-8.25523e-07
7.59732e-08
-8.51679e-07
6.71273e-08
-8.73498e-07
5.69564e-08
-8.90527e-07
4.55351e-08
-9.0236e-07
3.29697e-08
-9.08651e-07
1.9398e-08
-9.09126e-07
4.98893e-09
-9.03582e-07
-1.00684e-08
-8.9191e-07
-2.5547e-08
-8.74088e-07
-4.12029e-08
-8.50191e-07
-5.67751e-08
-8.2039e-07
-7.19896e-08
-7.8496e-07
-8.65654e-08
-7.4427e-07
-1.00221e-07
-6.98788e-07
-1.12682e-07
-6.49069e-07
-1.23687e-07
-5.95751e-07
-1.33e-07
-5.39544e-07
-1.4041e-07
-4.8122e-07
-1.45748e-07
-4.21593e-07
-1.48887e-07
-3.61509e-07
-1.49749e-07
-3.01824e-07
-1.48312e-07
-2.43389e-07
-1.44611e-07
-1.87025e-07
-1.38738e-07
-1.33508e-07
-1.30842e-07
-8.35483e-08
-1.21122e-07
-3.77737e-08
-1.09827e-07
3.28483e-09
-9.72392e-08
3.92071e-08
-8.36711e-08
6.96891e-08
-6.94497e-08
9.45506e-08
-5.4908e-08
1.13735e-07
-4.03718e-08
1.27306e-07
-2.61504e-08
1.35445e-07
-1.25292e-08
1.38438e-07
2.34065e-10
1.36673e-07
1.19119e-08
1.30627e-07
2.22992e-08
1.20862e-07
3.12081e-08
1.08023e-07
3.84526e-08
9.28325e-08
4.38333e-08
7.6098e-08
4.71206e-08
5.87153e-08
4.80427e-08
4.16712e-08
4.62869e-08
2.60443e-08
4.15272e-08
1.30024e-08
3.34913e-08
3.81447e-09
2.21014e-08
7.82565e-09
7.37114e-10
-4.57306e-09
1.34711e-09
-7.4386e-09
8.16618e-10
-5.9991e-09
-1.50593e-09
-1.66561e-09
-6.03896e-09
4.5376e-09
-1.30425e-08
1.185e-08
-2.26576e-08
1.97438e-08
-3.49547e-08
2.78785e-08
-4.99608e-08
3.60564e-08
-6.7681e-08
4.41817e-08
-8.81116e-08
5.22247e-08
-1.11247e-07
6.01934e-08
-1.37084e-07
6.81116e-08
-1.65617e-07
7.60027e-08
-1.96833e-07
8.38782e-08
-2.30712e-07
9.17309e-08
-2.67211e-07
9.95309e-08
-3.06263e-07
1.07224e-07
-3.47766e-07
1.14731e-07
-3.91582e-07
1.2195e-07
-4.37524e-07
1.2876e-07
-4.85357e-07
1.35021e-07
-5.34793e-07
1.4058e-07
-5.85492e-07
1.45272e-07
-6.37058e-07
1.48928e-07
-6.89043e-07
1.5138e-07
-7.40954e-07
1.5246e-07
-7.92252e-07
1.52012e-07
-8.42364e-07
1.49895e-07
-8.90692e-07
1.45988e-07
-9.36618e-07
1.40194e-07
-9.79519e-07
1.32445e-07
-1.01878e-06
1.22709e-07
-1.05379e-06
1.10989e-07
-1.084e-06
9.73287e-08
-1.10885e-06
8.18116e-08
-1.12788e-06
6.45644e-08
-1.14067e-06
4.57552e-08
-1.14686e-06
2.55936e-08
-1.1462e-06
4.32967e-09
-1.1385e-06
-1.77675e-08
-1.12368e-06
-4.037e-08
-1.10174e-06
-6.31389e-08
-1.07281e-06
-8.57122e-08
-1.03708e-06
-1.07713e-07
-9.94893e-07
-1.28757e-07
-9.46653e-07
-1.4846e-07
-8.92885e-07
-1.6645e-07
-8.34201e-07
-1.82371e-07
-7.71302e-07
-1.95899e-07
-7.04965e-07
-2.06747e-07
-6.36034e-07
-2.14679e-07
-5.65407e-07
-2.19514e-07
-4.94017e-07
-2.21139e-07
-4.22817e-07
-2.19512e-07
-3.52761e-07
-2.14667e-07
-2.84782e-07
-2.06717e-07
-2.19772e-07
-1.95852e-07
-1.58561e-07
-1.82334e-07
-1.01897e-07
-1.66491e-07
-5.04295e-08
-1.48706e-07
-4.69378e-09
-1.29407e-07
3.49029e-08
-1.09046e-07
6.80873e-08
-8.80924e-08
9.47259e-08
-6.70104e-08
1.14825e-07
-4.62495e-08
1.28528e-07
-2.6232e-08
1.36108e-07
-7.34613e-09
1.37963e-07
1.00569e-08
1.34604e-07
2.56583e-08
1.26649e-07
3.91632e-08
1.14816e-07
5.02853e-08
9.99209e-08
5.87287e-08
8.28727e-08
6.41688e-08
6.46783e-08
6.62371e-08
4.64449e-08
6.45203e-08
2.93905e-08
5.85815e-08
1.48674e-08
4.80145e-08
4.42176e-09
3.25471e-08
1.22474e-08
1.74373e-10
-4.74741e-09
-6.63284e-10
-6.60101e-09
-3.3787e-09
-3.2837e-09
-8.51853e-09
3.47426e-09
-1.64215e-08
1.24406e-08
-2.72864e-08
2.27148e-08
-4.12186e-08
3.3676e-08
-5.82688e-08
4.49286e-08
-7.84577e-08
5.62454e-08
-1.01793e-07
6.75169e-08
-1.28277e-07
7.87092e-08
-1.57913e-07
8.98294e-08
-1.90701e-07
1.00899e-07
-2.26632e-07
1.11934e-07
-2.65689e-07
1.22935e-07
-3.07829e-07
1.33871e-07
-3.52984e-07
1.44686e-07
-4.01048e-07
1.55287e-07
-4.5187e-07
1.65553e-07
-5.05251e-07
1.75331e-07
-5.60934e-07
1.84444e-07
-6.18606e-07
1.92694e-07
-6.77893e-07
1.99867e-07
-7.38361e-07
2.0574e-07
-7.99519e-07
2.10086e-07
-8.60823e-07
2.12683e-07
-9.21681e-07
2.13318e-07
-9.81464e-07
2.11795e-07
-1.03951e-06
2.07945e-07
-1.09515e-06
2.01626e-07
-1.14769e-06
1.92735e-07
-1.19646e-06
1.81211e-07
-1.24078e-06
1.67036e-07
-1.28004e-06
1.50245e-07
-1.31363e-06
1.30921e-07
-1.34102e-06
1.092e-07
-1.36172e-06
8.52679e-08
-1.37533e-06
5.93639e-08
-1.38152e-06
3.1775e-08
-1.38003e-06
2.83964e-09
-1.37069e-06
-2.70991e-08
-1.35346e-06
-5.76035e-08
-1.32836e-06
-8.82419e-08
-1.29552e-06
-1.18552e-07
-1.25517e-06
-1.48056e-07
-1.20766e-06
-1.76266e-07
-1.15343e-06
-2.02697e-07
-1.093e-06
-2.26875e-07
-1.02703e-06
-2.48349e-07
-9.56221e-07
-2.66703e-07
-8.814e-07
-2.81568e-07
-8.03448e-07
-2.92632e-07
-7.23309e-07
-2.99653e-07
-6.41978e-07
-3.0247e-07
-5.60477e-07
-3.01012e-07
-4.79843e-07
-2.95302e-07
-4.01099e-07
-2.85461e-07
-3.25241e-07
-2.7171e-07
-2.53207e-07
-2.54368e-07
-1.85862e-07
-2.33836e-07
-1.23972e-07
-2.10597e-07
-6.81877e-08
-1.85191e-07
-1.90302e-08
-1.58204e-07
2.31247e-08
-1.30247e-07
5.80518e-08
-1.01937e-07
8.5681e-08
-7.38787e-08
1.06097e-07
-4.66485e-08
1.19537e-07
-2.07857e-08
1.2638e-07
3.21357e-09
1.27144e-07
2.48949e-08
1.22471e-07
4.38359e-08
1.13125e-07
5.96317e-08
9.9979e-08
7.18744e-08
8.40167e-08
8.0131e-08
6.63284e-08
8.39255e-08
4.81187e-08
8.273e-08
3.07253e-08
7.59749e-08
1.56577e-08
6.30821e-08
4.67752e-09
4.35273e-08
1.69249e-08
-5.20939e-10
-4.22647e-09
-3.13778e-09
-3.98416e-09
-8.50426e-09
2.08279e-09
-1.70061e-08
1.19761e-08
-2.88608e-08
2.42953e-08
-4.41785e-08
3.80325e-08
-6.30068e-08
5.25044e-08
-8.53625e-08
6.72842e-08
-1.11251e-07
8.21334e-08
-1.40675e-07
9.69414e-08
-1.73642e-07
1.11676e-07
-2.10158e-07
1.26345e-07
-2.50225e-07
1.40966e-07
-2.93831e-07
1.5554e-07
-3.40943e-07
1.70047e-07
-3.91499e-07
1.84427e-07
-4.45396e-07
1.98583e-07
-5.02482e-07
2.12374e-07
-5.62553e-07
2.25624e-07
-6.25343e-07
2.3812e-07
-6.90522e-07
2.49623e-07
-7.57696e-07
2.59868e-07
-8.26406e-07
2.68576e-07
-8.96128e-07
2.75462e-07
-9.66284e-07
2.80243e-07
-1.03624e-06
2.82644e-07
-1.10534e-06
2.82411e-07
-1.17286e-06
2.79319e-07
-1.23809e-06
2.73176e-07
-1.3003e-06
2.63834e-07
-1.35876e-06
2.51196e-07
-1.41277e-06
2.35216e-07
-1.46164e-06
2.15906e-07
-1.50473e-06
1.93339e-07
-1.54146e-06
1.67648e-07
-1.57128e-06
1.39028e-07
-1.59375e-06
1.0773e-07
-1.60845e-06
7.40648e-08
-1.61507e-06
3.83975e-08
-1.6134e-06
1.16529e-09
-1.60325e-06
-3.72481e-08
-1.58458e-06
-7.62704e-08
-1.55743e-06
-1.15392e-07
-1.52193e-06
-1.54056e-07
-1.4783e-06
-1.91685e-07
-1.42687e-06
-2.27693e-07
-1.36807e-06
-2.61494e-07
-1.30243e-06
-2.92513e-07
-1.23058e-06
-3.202e-07
-1.15324e-06
-3.44042e-07
-1.07123e-06
-3.63578e-07
-9.85451e-07
-3.78414e-07
-8.96871e-07
-3.88233e-07
-8.06527e-07
-3.92814e-07
-7.15499e-07
-3.9204e-07
-6.24892e-07
-3.85909e-07
-5.35815e-07
-3.74537e-07
-4.49362e-07
-3.58164e-07
-3.6658e-07
-3.3715e-07
-2.88449e-07
-3.11967e-07
-2.1586e-07
-2.83186e-07
-1.49586e-07
-2.51464e-07
-9.02707e-08
-2.1752e-07
-3.84041e-08
-1.82114e-07
5.68331e-09
-1.46025e-07
4.18304e-08
-1.10026e-07
7.0047e-08
-7.48651e-08
9.05131e-08
-4.12518e-08
1.03573e-07
-9.84619e-09
1.09727e-07
1.87407e-08
1.09623e-07
4.39399e-08
1.04045e-07
6.52094e-08
9.39067e-08
8.2013e-08
8.02422e-08
9.37955e-08
6.42083e-08
9.99594e-08
4.70904e-08
9.98479e-08
3.03251e-08
9.27402e-08
1.55441e-08
7.78631e-08
4.65322e-09
5.44181e-08
2.15782e-08
-1.31952e-09
-2.90694e-09
-5.98915e-09
6.85524e-10
-1.43943e-08
1.04879e-08
-2.67152e-08
2.4297e-08
-4.30121e-08
4.05922e-08
-6.32814e-08
5.83019e-08
-8.74941e-08
7.67171e-08
-1.1562e-07
9.54103e-08
-1.4764e-07
1.14154e-07
-1.83549e-07
1.3285e-07
-2.23351e-07
1.51479e-07
-2.67055e-07
1.70049e-07
-3.14658e-07
1.88569e-07
-3.66143e-07
2.07025e-07
-4.21459e-07
2.25363e-07
-4.80515e-07
2.43483e-07
-5.43169e-07
2.61237e-07
-6.09222e-07
2.78427e-07
-6.78408e-07
2.9481e-07
-7.50395e-07
3.10107e-07
-8.24778e-07
3.24006e-07
-9.01084e-07
3.36174e-07
-9.78772e-07
3.46264e-07
-1.05724e-06
3.53931e-07
-1.13584e-06
3.58838e-07
-1.21386e-06
3.60665e-07
-1.29057e-06
3.59126e-07
-1.36523e-06
3.53974e-07
-1.43706e-06
3.45009e-07
-1.50532e-06
3.32088e-07
-1.56925e-06
3.15129e-07
-1.62815e-06
2.94114e-07
-1.68133e-06
2.69093e-07
-1.72818e-06
2.40186e-07
-1.76811e-06
2.07579e-07
-1.80061e-06
1.71527e-07
-1.82523e-06
1.32348e-07
-1.84159e-06
9.0421e-08
-1.84937e-06
4.61776e-08
-1.84838e-06
1.79793e-10
-1.83841e-06
-4.72208e-08
-1.81942e-06
-9.52585e-08
-1.79143e-06
-1.43386e-07
-1.75453e-06
-1.90952e-07
-1.70893e-06
-2.37288e-07
-1.65491e-06
-2.81709e-07
-1.59287e-06
-3.23532e-07
-1.52331e-06
-3.62079e-07
-1.44681e-06
-3.96698e-07
-1.36408e-06
-4.26772e-07
-1.27592e-06
-4.5174e-07
-1.18322e-06
-4.71109e-07
-1.08698e-06
-4.84476e-07
-9.88252e-07
-4.91542e-07
-8.88166e-07
-4.92126e-07
-7.87892e-07
-4.86182e-07
-6.88624e-07
-4.73805e-07
-5.91551e-07
-4.55237e-07
-4.97836e-07
-4.30865e-07
-4.08585e-07
-4.01218e-07
-3.24819e-07
-3.66952e-07
-2.47449e-07
-3.28834e-07
-1.7725e-07
-2.87718e-07
-1.14843e-07
-2.44521e-07
-6.06775e-08
-2.00191e-07
-1.50201e-08
-1.55683e-07
2.20494e-08
-1.11935e-07
5.06396e-08
-6.9842e-08
7.10433e-08
-3.02499e-08
8.37301e-08
6.0539e-09
8.93358e-08
3.83342e-08
8.8652e-08
6.58933e-08
8.2615e-08
8.805e-08
7.22991e-08
1.04111e-07
5.89136e-08
1.13345e-07
4.38099e-08
1.14952e-07
2.85028e-08
1.08047e-07
1.47095e-08
9.16563e-08
4.41607e-09
6.47116e-08
2.59942e-08
-2.20633e-09
-7.00618e-10
-9.15401e-09
7.63323e-09
-2.09204e-08
2.22543e-08
-3.74395e-08
4.0816e-08
-5.85843e-08
6.1737e-08
-8.42152e-08
8.39329e-08
-1.14211e-07
1.06713e-07
-1.48483e-07
1.29683e-07
-1.86982e-07
1.52652e-07
-2.29686e-07
1.75554e-07
-2.76594e-07
1.98387e-07
-3.27712e-07
2.21166e-07
-3.83032e-07
2.43889e-07
-4.42522e-07
2.66515e-07
-5.0611e-07
2.88952e-07
-5.73674e-07
3.11047e-07
-6.45029e-07
3.32591e-07
-7.19921e-07
3.53319e-07
-7.98025e-07
3.72914e-07
-8.78939e-07
3.91021e-07
-9.62188e-07
4.07255e-07
-1.04723e-06
4.21211e-07
-1.13344e-06
4.32478e-07
-1.22016e-06
4.40652e-07
-1.30667e-06
4.4535e-07
-1.39223e-06
4.46219e-07
-1.47605e-06
4.42949e-07
-1.55736e-06
4.35282e-07
-1.63537e-06
4.23025e-07
-1.70933e-06
4.06048e-07
-1.7785e-06
3.84294e-07
-1.84217e-06
3.57784e-07
-1.89968e-06
3.26609e-07
-1.95044e-06
2.90939e-07
-1.99387e-06
2.51015e-07
-2.02949e-06
2.07148e-07
-2.05686e-06
1.59719e-07
-2.07561e-06
1.09167e-07
-2.08543e-06
5.59955e-08
-2.08605e-06
7.97412e-10
-2.07734e-06
-5.59271e-08
-2.05918e-06
-1.13419e-07
-2.03154e-06
-1.7102e-07
-1.99449e-06
-2.28003e-07
-1.94817e-06
-2.8361e-07
-1.89281e-06
-3.37068e-07
-1.82875e-06
-3.87594e-07
-1.75642e-06
-4.34408e-07
-1.67637e-06
-4.7675e-07
-1.58925e-06
-5.13892e-07
-1.49583e-06
-5.4516e-07
-1.39699e-06
-5.69951e-07
-1.29371e-06
-5.87757e-07
-1.18707e-06
-5.98181e-07
-1.07824e-06
-6.00958e-07
-9.68441e-07
-5.95976e-07
-8.58961e-07
-5.83285e-07
-7.51089e-07
-5.63109e-07
-6.46108e-07
-5.35846e-07
-5.45259e-07
-5.02066e-07
-4.4971e-07
-4.62501e-07
-3.60523e-07
-4.18022e-07
-2.78623e-07
-3.69618e-07
-2.04778e-07
-3.18366e-07
-1.39574e-07
-2.65395e-07
-8.3399e-08
-2.11858e-07
-3.64385e-08
-1.58895e-07
1.33067e-09
-1.07611e-07
3.01368e-08
-5.9056e-08
5.04057e-08
-1.4215e-08
6.27507e-08
2.59892e-08
6.79598e-08
6.06843e-08
6.69836e-08
8.90262e-08
6.0926e-08
1.10169e-07
5.10397e-08
1.23231e-07
3.87294e-08
1.27262e-07
2.55683e-08
1.21208e-07
1.3328e-08
1.03897e-07
4.02499e-09
7.40146e-08
3.00192e-08
-3.16778e-09
2.46713e-09
-1.25835e-08
1.7049e-08
-2.79756e-08
3.76464e-08
-4.90007e-08
6.18411e-08
-7.53186e-08
8.8055e-08
-1.06635e-07
1.15249e-07
-1.42724e-07
1.42801e-07
-1.83429e-07
1.70388e-07
-2.28663e-07
1.97886e-07
-2.78385e-07
2.25276e-07
-3.32585e-07
2.52587e-07
-3.91259e-07
2.7984e-07
-4.54391e-07
3.07021e-07
-5.2193e-07
3.34055e-07
-5.9378e-07
3.60801e-07
-6.6978e-07
3.87047e-07
-7.497e-07
4.12511e-07
-8.33232e-07
4.36851e-07
-9.1999e-07
4.59672e-07
-1.00951e-06
4.80539e-07
-1.10124e-06
4.9899e-07
-1.19458e-06
5.14552e-07
-1.28886e-06
5.26755e-07
-1.38335e-06
5.35144e-07
-1.4773e-06
5.39298e-07
-1.56992e-06
5.3884e-07
-1.66042e-06
5.3345e-07
-1.74801e-06
5.22874e-07
-1.83192e-06
5.06929e-07
-1.91138e-06
4.85513e-07
-1.98569e-06
4.58602e-07
-2.05416e-06
4.26255e-07
-2.11616e-06
3.8861e-07
-2.17111e-06
3.45886e-07
-2.21847e-06
2.98372e-07
-2.25775e-06
2.46435e-07
-2.28854e-06
1.90504e-07
-2.31045e-06
1.31076e-07
-2.32316e-06
6.87074e-08
-2.32639e-06
4.02246e-09
-2.31996e-06
-6.23538e-08
-2.30371e-06
-1.29666e-07
-2.27757e-06
-1.97164e-07
-2.24152e-06
-2.64048e-07
-2.19565e-06
-3.29483e-07
-2.14011e-06
-3.92607e-07
-2.07516e-06
-4.52541e-07
-2.00117e-06
-5.08403e-07
-1.9186e-06
-5.5932e-07
-1.82805e-06
-6.04446e-07
-1.73022e-06
-6.42983e-07
-1.62597e-06
-6.74203e-07
-1.51625e-06
-6.97473e-07
-1.40216e-06
-7.12276e-07
-1.28488e-06
-7.18241e-07
-1.16569e-06
-7.15162e-07
-1.04596e-06
-7.03019e-07
-9.27074e-07
-6.81992e-07
-8.10454e-07
-6.52466e-07
-6.97485e-07
-6.15035e-07
-5.89496e-07
-5.7049e-07
-4.87718e-07
-5.19799e-07
-3.9325e-07
-4.64086e-07
-3.07027e-07
-4.04589e-07
-2.29791e-07
-3.42631e-07
-1.62074e-07
-2.79574e-07
-1.04186e-07
-2.16783e-07
-5.62051e-08
-1.55592e-07
-1.79813e-08
-9.72798e-08
1.08561e-08
-4.30524e-08
3.08879e-08
5.95737e-09
4.28907e-08
4.86815e-08
4.78229e-08
8.40941e-08
4.68115e-08
1.1118e-07
4.1145e-08
1.28898e-07
3.22715e-08
1.36135e-07
2.18074e-08
1.31673e-07
1.15553e-08
1.14149e-07
3.5302e-09
8.20397e-08
3.35494e-08
-4.19411e-09
6.66124e-09
-1.6233e-08
2.90878e-08
-3.54629e-08
5.68764e-08
-6.12343e-08
8.76125e-08
-9.29732e-08
1.19794e-07
-1.30215e-07
1.52492e-07
-1.72618e-07
1.85204e-07
-2.19954e-07
2.17724e-07
-2.72091e-07
2.50022e-07
-3.28965e-07
2.8215e-07
-3.90553e-07
3.14174e-07
-4.56838e-07
3.46126e-07
-5.27791e-07
3.77973e-07
-6.03339e-07
4.09603e-07
-6.83354e-07
4.40816e-07
-7.67637e-07
4.7133e-07
-8.5591e-07
5.00784e-07
-9.47811e-07
5.28752e-07
-1.04289e-06
5.54756e-07
-1.14064e-06
5.7828e-07
-1.24044e-06
5.9879e-07
-1.34163e-06
6.15747e-07
-1.4435e-06
6.28626e-07
-1.54529e-06
6.36935e-07
-1.64622e-06
6.40225e-07
-1.74549e-06
6.38108e-07
-1.8423e-06
6.30263e-07
-1.93588e-06
6.16448e-07
-2.02545e-06
5.96506e-07
-2.1103e-06
5.70363e-07
-2.18974e-06
5.38035e-07
-2.2631e-06
4.99619e-07
-2.32979e-06
4.553e-07
-2.38924e-06
4.05338e-07
-2.44094e-06
3.5007e-07
-2.48441e-06
2.89905e-07
-2.51922e-06
2.25317e-07
-2.54499e-06
1.56846e-07
-2.56138e-06
8.50908e-08
-2.56807e-06
1.07135e-08
-2.56483e-06
-6.5588e-08
-2.55147e-06
-1.43031e-07
-2.52783e-06
-2.20802e-07
-2.49384e-06
-2.98036e-07
-2.4495e-06
-3.73826e-07
-2.39488e-06
-4.4723e-07
-2.33014e-06
-5.17277e-07
-2.25556e-06
-5.82982e-07
-2.17152e-06
-6.43359e-07
-2.07853e-06
-6.97437e-07
-1.97723e-06
-7.44286e-07
-1.8684e-06
-7.83037e-07
-1.75296e-06
-8.12913e-07
-1.63198e-06
-8.33256e-07
-1.50666e-06
-8.4356e-07
-1.37832e-06
-8.43496e-07
-1.2484e-06
-8.32942e-07
-1.11839e-06
-8.12002e-07
-9.89833e-07
-7.81022e-07
-8.64276e-07
-7.40593e-07
-7.43223e-07
-6.91543e-07
-6.28097e-07
-6.34926e-07
-5.20192e-07
-5.7199e-07
-4.20638e-07
-5.04143e-07
-3.30363e-07
-4.32906e-07
-2.50069e-07
-3.59869e-07
-1.80211e-07
-2.86641e-07
-1.2099e-07
-2.14813e-07
-7.23537e-08
-1.45916e-07
-3.39986e-08
-8.14075e-08
-5.38694e-09
-2.26543e-08
1.42393e-08
2.90552e-08
2.58403e-08
7.24931e-08
3.0562e-08
1.06459e-07
2.97235e-08
1.29736e-07
2.48096e-08
1.41049e-07
1.74701e-08
1.39012e-07
9.52538e-09
1.22093e-07
2.9736e-09
8.85915e-08
3.6523e-08
-5.27408e-09
1.19353e-08
-2.00586e-08
4.38723e-08
-4.32869e-08
8.01047e-08
-7.39796e-08
1.18305e-07
-1.11311e-07
1.57125e-07
-1.54636e-07
1.95817e-07
-2.0349e-07
2.34057e-07
-2.57565e-07
2.71799e-07
-3.16683e-07
3.09141e-07
-3.80754e-07
3.46221e-07
-4.49736e-07
3.83157e-07
-5.23599e-07
4.19989e-07
-6.02293e-07
4.56667e-07
-6.85721e-07
4.93031e-07
-7.73721e-07
5.28816e-07
-8.66052e-07
5.63661e-07
-9.62388e-07
5.9712e-07
-1.06232e-06
6.2868e-07
-1.16534e-06
6.57776e-07
-1.27087e-06
6.83816e-07
-1.37828e-06
7.06194e-07
-1.48684e-06
7.24314e-07
-1.59583e-06
7.37609e-07
-1.70445e-06
7.45555e-07
-1.81191e-06
7.47689e-07
-1.91742e-06
7.43621e-07
-2.0202e-06
7.33042e-07
-2.11948e-06
7.1573e-07
-2.21453e-06
6.91556e-07
-2.30465e-06
6.60483e-07
-2.38918e-06
6.22563e-07
-2.4675e-06
5.77935e-07
-2.53902e-06
5.26822e-07
-2.6032e-06
4.69525e-07
-2.65955e-06
4.06418e-07
-2.70759e-06
3.37945e-07
-2.74689e-06
2.64617e-07
-2.77705e-06
1.87007e-07
-2.79771e-06
1.05747e-07
-2.80853e-06
2.15332e-08
-2.80923e-06
-6.48912e-08
-2.79955e-06
-1.52711e-07
-2.77928e-06
-2.41064e-07
-2.74829e-06
-3.29032e-07
-2.70647e-06
-4.15646e-07
-2.65381e-06
-4.9989e-07
-2.59037e-06
-5.80712e-07
-2.51633e-06
-6.57028e-07
-2.43195e-06
-7.27738e-07
-2.33764e-06
-7.91749e-07
-2.23393e-06
-8.47988e-07
-2.12154e-06
-8.95435e-07
-2.0013e-06
-9.33152e-07
-1.87424e-06
-9.60317e-07
-1.74154e-06
-9.76257e-07
-1.60454e-06
-9.80491e-07
-1.46473e-06
-9.72757e-07
-1.32368e-06
-9.53048e-07
-1.18308e-06
-9.21628e-07
-1.04462e-06
-8.79053e-07
-9.09996e-07
-8.26162e-07
-7.80851e-07
-7.64071e-07
-6.58699e-07
-6.94143e-07
-5.44895e-07
-6.17948e-07
-4.40585e-07
-5.37216e-07
-3.46673e-07
-4.5378e-07
-2.63795e-07
-3.6952e-07
-1.92302e-07
-2.86306e-07
-1.32258e-07
-2.0596e-07
-8.34494e-08
-1.30216e-07
-4.53926e-08
-6.07111e-08
-1.73576e-08
1.02022e-09
1.61192e-09
5.35236e-08
1.2677e-08
9.53935e-08
1.71848e-08
1.25229e-07
1.66535e-08
1.41581e-07
1.2763e-08
1.42903e-07
7.34757e-09
1.27509e-07
2.38884e-09
9.35502e-08
3.89119e-08
-6.39555e-09
1.83309e-08
-2.40145e-08
6.14912e-08
-5.135e-08
1.0744e-07
-8.70732e-08
1.54028e-07
-1.30094e-07
2.00146e-07
-1.79578e-07
2.45301e-07
-2.34932e-07
2.89411e-07
-2.95767e-07
3.32635e-07
-3.61857e-07
3.7523e-07
-4.3308e-07
4.17445e-07
-5.09376e-07
4.59452e-07
-5.90695e-07
5.01308e-07
-6.76964e-07
5.42937e-07
-7.68058e-07
5.84125e-07
-8.63778e-07
6.24537e-07
-9.63842e-07
6.63725e-07
-1.06788e-06
7.01155e-07
-1.17542e-06
7.36223e-07
-1.28593e-06
7.68282e-07
-1.39877e-06
7.96662e-07
-1.51328e-06
8.20697e-07
-1.6287e-06
8.39742e-07
-1.74429e-06
8.53194e-07
-1.85925e-06
8.60512e-07
-1.97279e-06
8.61229e-07
-2.08413e-06
8.54961e-07
-2.1925e-06
8.41418e-07
-2.29718e-06
8.20407e-07
-2.39745e-06
7.9183e-07
-2.49265e-06
7.55685e-07
-2.58215e-06
7.12062e-07
-2.66536e-06
6.61139e-07
-2.74171e-06
6.03173e-07
-2.81069e-06
5.385e-07
-2.87179e-06
4.67526e-07
-2.92457e-06
3.90724e-07
-2.96859e-06
3.08633e-07
-3.00343e-06
2.21851e-07
-3.02872e-06
1.3104e-07
-3.04411e-06
3.69169e-08
-3.04926e-06
-5.9741e-08
-3.04388e-06
-1.58093e-07
-3.0277e-06
-2.57241e-07
-3.00051e-06
-3.56226e-07
-2.96212e-06
-4.5403e-07
-2.91243e-06
-5.49579e-07
-2.8514e-06
-6.41744e-07
-2.77907e-06
-7.29357e-07
-2.6956e-06
-8.11214e-07
-2.60125e-06
-8.86096e-07
-2.49645e-06
-9.52791e-07
-2.38176e-06
-1.01012e-06
-2.25794e-06
-1.05697e-06
-2.12593e-06
-1.09233e-06
-1.98685e-06
-1.11534e-06
-1.84203e-06
-1.12532e-06
-1.69296e-06
-1.12183e-06
-1.54129e-06
-1.10471e-06
-1.38882e-06
-1.0741e-06
-1.2374e-06
-1.03047e-06
-1.08893e-06
-9.74633e-07
-9.45269e-07
-9.07734e-07
-8.08183e-07
-8.31228e-07
-6.7929e-07
-7.46841e-07
-5.59995e-07
-6.56511e-07
-4.51445e-07
-5.6233e-07
-3.54495e-07
-4.6647e-07
-2.69684e-07
-3.71117e-07
-1.97227e-07
-2.78417e-07
-1.3702e-07
-1.90423e-07
-8.86557e-08
-1.09076e-07
-5.14437e-08
-3.61919e-08
-2.44389e-08
2.65188e-08
-6.46899e-09
7.74236e-08
3.83987e-09
1.1492e-07
8.04011e-09
1.3738e-07
7.84372e-09
1.43099e-07
5.10506e-09
1.30247e-07
1.80119e-09
9.68541e-08
4.07131e-08
-7.54498e-09
2.58759e-08
-2.80511e-08
8.19973e-08
-5.95489e-08
1.38938e-07
-1.00346e-07
1.94825e-07
-1.49078e-07
2.48879e-07
-2.04716e-07
3.00939e-07
-2.66537e-07
3.51231e-07
-3.34069e-07
4.00167e-07
-4.07033e-07
4.48195e-07
-4.85279e-07
4.9569e-07
-5.6872e-07
5.42893e-07
-6.57286e-07
5.89874e-07
-7.50878e-07
6.36528e-07
-8.49339e-07
6.82586e-07
-9.52433e-07
7.27631e-07
-1.05984e-06
7.71128e-07
-1.17113e-06
8.12449e-07
-1.28581e-06
8.50902e-07
-1.40329e-06
8.85759e-07
-1.52291e-06
9.16282e-07
-1.64396e-06
9.41747e-07
-1.76569e-06
9.61473e-07
-1.88733e-06
9.74832e-07
-2.00809e-06
9.81274e-07
-2.12719e-06
9.80336e-07
-2.24389e-06
9.71651e-07
-2.35742e-06
9.54953e-07
-2.46709e-06
9.30078e-07
-2.57223e-06
8.96964e-07
-2.67218e-06
8.55644e-07
-2.76637e-06
8.06244e-07
-2.8542e-06
7.48976e-07
-2.93516e-06
6.84132e-07
-3.00874e-06
6.12077e-07
-3.07446e-06
5.33246e-07
-3.13187e-06
4.48138e-07
-3.18056e-06
3.57314e-07
-3.2201e-06
2.61396e-07
-3.25012e-06
1.61061e-07
-3.27025e-06
5.70477e-08
-3.28014e-06
-4.98485e-08
-3.27947e-06
-1.5877e-07
-3.26791e-06
-2.68795e-07
-3.2452e-06
-3.78941e-07
-3.21107e-06
-4.88155e-07
-3.16533e-06
-5.95321e-07
-3.10782e-06
-6.99256e-07
-3.03846e-06
-7.98717e-07
-2.95726e-06
-8.92411e-07
-2.86435e-06
-9.79007e-07
-2.75999e-06
-1.05716e-06
-2.64459e-06
-1.12552e-06
-2.51876e-06
-1.1828e-06
-2.38331e-06
-1.22778e-06
-2.23926e-06
-1.25938e-06
-2.08787e-06
-1.27671e-06
-1.93061e-06
-1.27909e-06
-1.76917e-06
-1.26615e-06
-1.60542e-06
-1.23785e-06
-1.44136e-06
-1.19454e-06
-1.27906e-06
-1.13693e-06
-1.12065e-06
-1.06615e-06
-9.68147e-07
-9.83728e-07
-8.23476e-07
-8.91511e-07
-6.88343e-07
-7.91645e-07
-5.64186e-07
-6.86487e-07
-4.5213e-07
-5.78525e-07
-3.52949e-07
-4.70298e-07
-2.67051e-07
-3.64315e-07
-1.94478e-07
-2.62996e-07
-1.34924e-07
-1.6863e-07
-8.77572e-08
-8.33587e-08
-5.2055e-08
-9.18329e-09
-2.66388e-08
5.20073e-08
-1.01082e-08
9.83891e-08
-8.7303e-10
1.28145e-07
2.81846e-09
1.39407e-07
2.85382e-09
1.30212e-07
1.22755e-09
9.84804e-08
4.19406e-08
-8.70716e-09
3.4583e-08
-3.21145e-08
1.05405e-07
-6.77745e-08
1.74598e-07
-1.13621e-07
2.40671e-07
-1.68011e-07
3.03269e-07
-2.29721e-07
3.62649e-07
-2.97893e-07
4.19404e-07
-3.71975e-07
4.74248e-07
-4.51634e-07
5.27854e-07
-5.36687e-07
5.80743e-07
-6.27021e-07
6.33228e-07
-7.22542e-07
6.85395e-07
-8.23121e-07
7.37108e-07
-9.28569e-07
7.88034e-07
-1.03861e-06
8.37673e-07
-1.15288e-06
8.854e-07
-1.27093e-06
9.30492e-07
-1.39219e-06
9.7217e-07
-1.51607e-06
1.00963e-06
-1.64186e-06
1.04208e-06
-1.76885e-06
1.06873e-06
-1.89627e-06
1.08889e-06
-2.02335e-06
1.10191e-06
-2.14931e-06
1.10724e-06
-2.2734e-06
1.10442e-06
-2.39487e-06
1.09312e-06
-2.51301e-06
1.07309e-06
-2.62713e-06
1.0442e-06
-2.7366e-06
1.00643e-06
-2.8408e-06
9.59844e-07
-2.93916e-06
9.04602e-07
-3.03113e-06
8.40951e-07
-3.11622e-06
7.69216e-07
-3.19393e-06
6.89793e-07
-3.26383e-06
6.03143e-07
-3.32548e-06
5.09791e-07
-3.37849e-06
4.10319e-07
-3.42246e-06
3.05367e-07
-3.45703e-06
1.95627e-07
-3.48183e-06
8.18486e-08
-3.49651e-06
-3.51639e-08
-3.50073e-06
-1.54546e-07
-3.49416e-06
-2.7537e-07
-3.47646e-06
-3.96644e-07
-3.44731e-06
-5.17302e-07
-3.40642e-06
-6.36206e-07
-3.35354e-06
-7.52139e-07
-3.28845e-06
-8.6381e-07
-3.21101e-06
-9.69854e-07
-3.12117e-06
-1.06885e-06
-3.01901e-06
-1.15932e-06
-2.90476e-06
-1.23977e-06
-2.77883e-06
-1.30873e-06
-2.64185e-06
-1.36476e-06
-2.49469e-06
-1.40654e-06
-2.33848e-06
-1.43292e-06
-2.17462e-06
-1.44295e-06
-2.00476e-06
-1.43601e-06
-1.8308e-06
-1.41181e-06
-1.65487e-06
-1.37047e-06
-1.47921e-06