/*--------------------------------*- C++ -*----------------------------------*\
  =========                 |
  \\      /  F ield         | OpenFOAM: The Open Source CFD Toolbox
   \\    /   O peration     | Website:  https://openfoam.org
    \\  /    A nd           | Version:  7
     \\/     M anipulation  |
\*---------------------------------------------------------------------------*/
FoamFile
{
    version     2.0;
    format      ascii;
    class       volVectorField;
    location    "2";
    object      U;
}
// * * * * * * * * * * * * * * * * * * * * * * * * * * * * * * * * * * * * * //

dimensions      [0 1 -1 0 0 0 0];

internalField   nonuniform List<vector> 
6400
(
(1.07844e-05 -1.08999e-05 0)
(6.58922e-05 -3.42299e-05 0)
(0.000162916 -4.28584e-05 0)
(0.000262096 -4.04168e-05 0)
(0.000341912 -3.22942e-05 0)
(0.000392477 -2.18066e-05 0)
(0.000409502 -1.07522e-05 0)
(0.000391949 -3.22918e-08 0)
(0.000340542 9.98424e-06 0)
(0.000256718 1.92411e-05 0)
(0.000142005 2.78464e-05 0)
(-2.32069e-06 3.59829e-05 0)
(-0.000175389 4.38501e-05 0)
(-0.00037677 5.16345e-05 0)
(-0.00060643 5.94932e-05 0)
(-0.000864631 6.7543e-05 0)
(-0.00115182 7.58564e-05 0)
(-0.00146852 8.44618e-05 0)
(-0.00181517 9.33462e-05 0)
(-0.00219201 0.000102458 0)
(-0.00259901 0.000111709 0)
(-0.0030357 0.000120979 0)
(-0.00350113 0.000130116 0)
(-0.00399373 0.000138938 0)
(-0.00451128 0.000147239 0)
(-0.00505084 0.000154785 0)
(-0.00560866 0.000161326 0)
(-0.0061802 0.000166592 0)
(-0.00676008 0.000170301 0)
(-0.00734208 0.000172166 0)
(-0.00791918 0.000171906 0)
(-0.00848365 0.000169249 0)
(-0.00902707 0.000163947 0)
(-0.0095405 0.000155786 0)
(-0.0100146 0.000144598 0)
(-0.0104399 0.000130274 0)
(-0.0108067 0.000112775 0)
(-0.0111059 9.21423e-05 0)
(-0.0113285 6.85065e-05 0)
(-0.0114665 4.20783e-05 0)
(-0.0115132 1.31843e-05 0)
(-0.0114625 -1.7491e-05 0)
(-0.0113103 -4.96738e-05 0)
(-0.0110544 -8.26963e-05 0)
(-0.0106946 -0.000115811 0)
(-0.0102329 -0.000148233 0)
(-0.0096733 -0.000179141 0)
(-0.0090225 -0.000207707 0)
(-0.00828933 -0.000233121 0)
(-0.00748478 -0.000254627 0)
(-0.00662181 -0.000271559 0)
(-0.00571504 -0.00028337 0)
(-0.00478037 -0.000289664 0)
(-0.00383454 -0.00029022 0)
(-0.00289465 -0.000285005 0)
(-0.00197763 -0.000274184 0)
(-0.00109974 -0.000258114 0)
(-0.000275989 -0.000237334 0)
(0.000480182 -0.000212549 0)
(0.00115741 -0.000184521 0)
(0.00174673 -0.00015417 0)
(0.00224164 -0.000122411 0)
(0.00263828 -9.01522e-05 0)
(0.00293534 -5.82477e-05 0)
(0.00313398 -2.74625e-05 0)
(0.0032375 1.55669e-06 0)
(0.00325113 2.82982e-05 0)
(0.00318164 5.23883e-05 0)
(0.00303704 7.3579e-05 0)
(0.00282626 9.17145e-05 0)
(0.00255901 0.000106681 0)
(0.00224572 0.000118327 0)
(0.00189773 0.000126352 0)
(0.00152778 0.000130151 0)
(0.00115083 0.000128607 0)
(0.000785357 0.000119881 0)
(0.000454677 0.000101316 0)
(0.000187449 6.95826e-05 0)
(1.70699e-05 2.32308e-05 0)
(-1.97345e-05 -1.98388e-05 0)
(3.48929e-05 -6.66159e-05 0)
(0.000154644 -0.000153598 0)
(0.00033217 -0.000179018 0)
(0.000498799 -0.000159406 0)
(0.000614344 -0.000113225 0)
(0.000657485 -5.34337e-05 0)
(0.000616695 1.18474e-05 0)
(0.000487083 7.78912e-05 0)
(0.000267941 0.000142316 0)
(-3.93063e-05 0.000204263 0)
(-0.000432504 0.000263783 0)
(-0.000909608 0.000321412 0)
(-0.00146911 0.000377879 0)
(-0.00211021 0.000433919 0)
(-0.00283271 0.000490147 0)
(-0.0036369 0.000546993 0)
(-0.00452327 0.000604657 0)
(-0.00549222 0.000663101 0)
(-0.00654373 0.00072205 0)
(-0.00767712 0.000781002 0)
(-0.0088907 0.000839246 0)
(-0.0101816 0.000895874 0)
(-0.0115453 0.000949807 0)
(-0.0129759 0.00099981 0)
(-0.0144654 0.00104452 0)
(-0.0160039 0.00108245 0)
(-0.0175796 0.00111207 0)
(-0.0191785 0.00113179 0)
(-0.0207846 0.00114001 0)
(-0.0223799 0.00113518 0)
(-0.0239447 0.00111586 0)
(-0.0254576 0.00108075 0)
(-0.0268962 0.00102875 0)
(-0.028237 0.000959035 0)
(-0.029456 0.000871105 0)
(-0.0305293 0.000764837 0)
(-0.0314336 0.00064054 0)
(-0.0321468 0.00049899 0)
(-0.0326484 0.000341457 0)
(-0.0329204 0.000169708 0)
(-0.0329478 -1.39563e-05 0)
(-0.0327189 -0.000206423 0)
(-0.0322265 -0.000404694 0)
(-0.0314675 -0.000605059 0)
(-0.0304441 -0.000803459 0)
(-0.0291634 -0.000995626 0)
(-0.027638 -0.00117719 0)
(-0.0258856 -0.00134379 0)
(-0.0239292 -0.00149124 0)
(-0.0217964 -0.0016157 0)
(-0.0195193 -0.00171378 0)
(-0.0171333 -0.00178272 0)
(-0.014677 -0.00182055 0)
(-0.0121905 -0.00182612 0)
(-0.00971487 -0.00179926 0)
(-0.00729098 -0.00174074 0)
(-0.00495817 -0.00165231 0)
(-0.00275329 -0.00153662 0)
(-0.000709671 -0.00139716 0)
(0.00114374 -0.00123796 0)
(0.00278322 -0.00106364 0)
(0.00419071 -0.000879039 0)
(0.00535413 -0.000689079 0)
(0.00626745 -0.000498516 0)
(0.00693052 -0.000311782 0)
(0.0073487 -0.000132833 0)
(0.00753237 3.49503e-05 0)
(0.00749629 0.000188794 0)
(0.00725895 0.000326487 0)
(0.00684208 0.000446242 0)
(0.00627017 0.000546474 0)
(0.00557047 0.000625465 0)
(0.00477319 0.00068093 0)
(0.00391223 0.000709482 0)
(0.00302633 0.000706067 0)
(0.0021605 0.000663634 0)
(0.00136633 0.000573556 0)
(0.000700213 0.000427521 0)
(0.000226969 0.000225818 0)
(2.37541e-05 1.72277e-05 0)
(4.45132e-05 -0.000165563 0)
(0.000181304 -0.00033197 0)
(0.000362755 -0.000363082 0)
(0.000506727 -0.000298555 0)
(0.000565535 -0.000173625 0)
(0.000512858 -1.47451e-05 0)
(0.000333258 0.000160168 0)
(1.90812e-05 0.000339922 0)
(-0.000432062 0.00051836 0)
(-0.00101969 0.000692791 0)
(-0.00174212 0.000862731 0)
(-0.00259752 0.00102895 0)
(-0.00358448 0.00119279 0)
(-0.00470219 0.00135565 0)
(-0.00595037 0.00151869 0)
(-0.00732903 0.00168263 0)
(-0.00883812 0.00184761 0)
(-0.0104771 0.00201317 0)
(-0.0122446 0.00217826 0)
(-0.0141378 0.00234119 0)
(-0.0161522 0.00249977 0)
(-0.0182812 0.00265128 0)
(-0.0205157 0.00279258 0)
(-0.0228441 0.00292015 0)
(-0.0252519 0.00303017 0)
(-0.0277214 0.00311863 0)
(-0.0302322 0.00318139 0)
(-0.0327608 0.00321429 0)
(-0.0352809 0.0032133 0)
(-0.0377635 0.00317462 0)
(-0.0401777 0.00309483 0)
(-0.0424903 0.00297102 0)
(-0.0446672 0.00280095 0)
(-0.0466736 0.00258316 0)
(-0.0484744 0.00231714 0)
(-0.0500357 0.00200341 0)
(-0.0513247 0.00164359 0)
(-0.0523111 0.00124055 0)
(-0.0529679 0.000798361 0)
(-0.0532718 0.000322341 0)
(-0.0532041 -0.000181006 0)
(-0.0527515 -0.000703939 0)
(-0.0519067 -0.00123776 0)
(-0.0506687 -0.00177295 0)
(-0.0490435 -0.00229931 0)
(-0.0470438 -0.00280619 0)
(-0.0446897 -0.00328284 0)
(-0.0420079 -0.00371864 0)
(-0.0390321 -0.0041035 0)
(-0.035802 -0.00442815 0)
(-0.0323631 -0.00468452 0)
(-0.0287654 -0.00486603 0)
(-0.0250625 -0.0049679 0)
(-0.0213107 -0.00498737 0)
(-0.0175675 -0.00492389 0)
(-0.0138901 -0.00477919 0)
(-0.0103341 -0.0045573 0)
(-0.00695215 -0.00426438 0)
(-0.00379255 -0.0039086 0)
(-0.000897952 -0.00349974 0)
(0.00169562 -0.00304885 0)
(0.00395962 -0.00256781 0)
(0.00587352 -0.00206889 0)
(0.0074251 -0.00156417 0)
(0.00861041 -0.0010652 0)
(0.00943352 -0.000582572 0)
(0.00990601 -0.000125706 0)
(0.0100463 0.000297285 0)
(0.00987904 0.000679528 0)
(0.00943421 0.00101512 0)
(0.00874683 0.00129867 0)
(0.00785664 0.00152462 0)
(0.00680816 0.0016864 0)
(0.00565125 0.00177552 0)
(0.00444188 0.00178078 0)
(0.00324311 0.00168817 0)
(0.00212417 0.0014825 0)
(0.00115757 0.00115192 0)
(0.000431742 0.000700313 0)
(7.09771e-05 0.000189381 0)
(4.22363e-05 -0.000266875 0)
(0.000157479 -0.000495967 0)
(0.000282171 -0.000504326 0)
(0.000332489 -0.000360837 0)
(0.000259753 -0.000119525 0)
(3.6701e-05 0.000179003 0)
(-0.000353022 0.000506283 0)
(-0.000918083 0.000844168 0)
(-0.00166185 0.00118228 0)
(-0.00258474 0.00151574 0)
(-0.00368589 0.00184325 0)
(-0.00496411 0.00216562 0)
(-0.00641845 0.00248461 0)
(-0.00804832 0.0028021 0)
(-0.00985334 0.00311954 0)
(-0.0118331 0.0034376 0)
(-0.0139864 0.00375592 0)
(-0.0163114 0.00407308 0)
(-0.0188042 0.00438655 0)
(-0.0214592 0.00469275 0)
(-0.024268 0.00498714 0)
(-0.0272194 0.00526427 0)
(-0.0302986 0.005518 0)
(-0.0334876 0.00574155 0)
(-0.0367646 0.00592773 0)
(-0.0401038 0.00606906 0)
(-0.043476 0.00615803 0)
(-0.0468484 0.00618726 0)
(-0.0501851 0.00614975 0)
(-0.0534473 0.00603913 0)
(-0.0565942 0.0058499 0)
(-0.0595831 0.00557766 0)
(-0.0623709 0.00521934 0)
(-0.0649141 0.00477346 0)
(-0.0671702 0.00424026 0)
(-0.0690984 0.00362188 0)
(-0.0706607 0.00292247 0)
(-0.0718223 0.00214828 0)
(-0.0725532 0.00130762 0)
(-0.0728282 0.00041084 0)
(-0.0726283 -0.000529828 0)
(-0.0719407 -0.00150024 0)
(-0.0707602 -0.00248474 0)
(-0.0690887 -0.00346644 0)
(-0.0669362 -0.00442751 0)
(-0.0643205 -0.00534959 0)
(-0.0612674 -0.00621424 0)
(-0.0578104 -0.00700344 0)
(-0.0539907 -0.00770007 0)
(-0.0498561 -0.00828848 0)
(-0.0454607 -0.00875504 0)
(-0.0408641 -0.00908857 0)
(-0.03613 -0.00928089 0)
(-0.0313251 -0.00932715 0)
(-0.0265178 -0.0092261 0)
(-0.0217768 -0.00898033 0)
(-0.0171692 -0.00859621 0)
(-0.0127594 -0.00808379 0)
(-0.00860718 -0.00745652 0)
(-0.00476632 -0.00673076 0)
(-0.00128345 -0.00592522 0)
(0.00180314 -0.00506028 0)
(0.00446432 -0.00415719 0)
(0.00668069 -0.00323734 0)
(0.00844275 -0.00232147 0)
(0.00975087 -0.00142908 0)
(0.0106149 -0.000577912 0)
(0.0110538 0.000216239 0)
(0.0110945 0.000939542 0)
(0.0107719 0.0015798 0)
(0.0101277 0.00212579 0)
(0.00921007 0.00256625 0)
(0.00807372 0.00288879 0)
(0.00677979 0.00307862 0)
(0.0053964 0.00311769 0)
(0.00399911 0.00298482 0)
(0.00266957 0.00265796 0)
(0.00149301 0.00211983 0)
(0.000580356 0.0013704 0)
(0.000103459 0.00046035 0)
(3.25889e-05 -0.000345119 0)
(9.73524e-05 -0.000595009 0)
(0.000115462 -0.000538961 0)
(1.27159e-05 -0.000275875 0)
(-0.000254867 0.000121132 0)
(-0.000712518 0.000597627 0)
(-0.00137519 0.0011154 0)
(-0.00225073 0.00164988 0)
(-0.00334255 0.0021868 0)
(-0.00465157 0.00271924 0)
(-0.00617766 0.0032451 0)
(-0.00792039 0.00376509 0)
(-0.00987937 0.00428114 0)
(-0.0120543 0.00479526 0)
(-0.0144446 0.00530875 0)
(-0.017049 0.00582165 0)
(-0.0198652 0.00633252 0)
(-0.022889 0.00683824 0)
(-0.0261137 0.00733405 0)
(-0.0295298 0.00781364 0)
(-0.0331243 0.00826926 0)
(-0.0368806 0.0086919 0)
(-0.0407778 0.00907156 0)
(-0.0447907 0.00939744 0)
(-0.0488898 0.00965826 0)
(-0.0530413 0.00984256 0)
(-0.0572076 0.00993901 0)
(-0.0613471 0.00993677 0)
(-0.0654153 0.00982585 0)
(-0.0693651 0.00959746 0)
(-0.0731477 0.00924439 0)
(-0.0767131 0.00876132 0)
(-0.0800116 0.00814513 0)
(-0.0829942 0.00739518 0)
(-0.0856138 0.00651351 0)
(-0.0878259 0.005505 0)
(-0.08959 0.00437745 0)
(-0.0908699 0.00314164 0)
(-0.0916349 0.00181126 0)
(-0.0918605 0.000402746 0)
(-0.0915285 -0.00106508 0)
(-0.090628 -0.00257064 0)
(-0.0891561 -0.00409062 0)
(-0.0871177 -0.00560009 0)
(-0.0845258 -0.00707304 0)
(-0.0814018 -0.00848289 0)
(-0.0777752 -0.00980305 0)
(-0.0736838 -0.0110077 0)
(-0.0691728 -0.0120722 0)
(-0.0642951 -0.0129742 0)
(-0.0591098 -0.013694 0)
(-0.0536822 -0.0142154 0)
(-0.0480821 -0.0145262 0)
(-0.0423831 -0.0146191 0)
(-0.036661 -0.0144916 0)
(-0.0309924 -0.0141466 0)
(-0.0254532 -0.0135926 0)
(-0.0201167 -0.0128431 0)
(-0.0150522 -0.0119168 0)
(-0.0103233 -0.0108367 0)
(-0.00598621 -0.0096296 0)
(-0.00208851 -0.00832485 0)
(0.00133183 -0.00695361 0)
(0.00424742 -0.00554769 0)
(0.00664196 -0.00413847 0)
(0.00851034 -0.00275596 0)
(0.00985861 -0.00142809 0)
(0.0107036 -0.000180251 0)
(0.0110722 0.000964776 0)
(0.011001 0.00198654 0)
(0.0105353 0.00286611 0)
(0.00972858 0.00358497 0)
(0.00864229 0.00412363 0)
(0.00734539 0.00446013 0)
(0.00591455 0.0045691 0)
(0.00443459 0.00442173 0)
(0.00299702 0.00398795 0)
(0.00169858 0.00324152 0)
(0.000670289 0.00216983 0)
(0.000122006 0.000795778 0)
(1.82272e-05 -0.000384299 0)
(1.06784e-05 -0.000592917 0)
(-0.000118321 -0.000418983 0)
(-0.000423808 1.10944e-05 0)
(-0.000940275 0.000606361 0)
(-0.00168805 0.00129981 0)
(-0.00267842 0.00204497 0)
(-0.00391701 0.002812 0)
(-0.00540628 0.00358358 0)
(-0.00714711 0.00435129 0)
(-0.00913982 0.00511247 0)
(-0.0113846 0.00586771 0)
(-0.0138816 0.00661886 0)
(-0.0166306 0.00736766 0)
(-0.0196307 0.00811466 0)
(-0.0228797 0.00885864 0)
(-0.0263733 0.00959627 0)
(-0.0301046 0.0103219 0)
(-0.0340636 0.0110278 0)
(-0.0382363 0.011704 0)
(-0.0426047 0.0123386 0)
(-0.0471459 0.0129184 0)
(-0.0518324 0.0134288 0)
(-0.056632 0.0138544 0)
(-0.0615075 0.0141793 0)
(-0.0664175 0.0143879 0)
(-0.0713163 0.014465 0)
(-0.0761549 0.0143963 0)
(-0.0808817 0.0141692 0)
(-0.0854428 0.0137731 0)
(-0.0897836 0.0131997 0)
(-0.0938493 0.0124437 0)
(-0.0975858 0.0115027 0)
(-0.100941 0.0103781 0)
(-0.103866 0.00907465 0)
(-0.106316 0.00760102 0)
(-0.108248 0.0059696 0)
(-0.109627 0.00419653 0)
(-0.110424 0.00230162 0)
(-0.110616 0.000307957 0)
(-0.110185 -0.00175876 0)
(-0.109122 -0.00386903 0)
(-0.107427 -0.00599164 0)
(-0.105105 -0.00809356 0)
(-0.102172 -0.0101405 0)
(-0.09865 -0.0120976 0)
(-0.0945704 -0.0139301 0)
(-0.0899723 -0.0156041 0)
(-0.0849029 -0.0170874 0)
(-0.0794166 -0.0183506 0)
(-0.0735751 -0.0193674 0)
(-0.0674464 -0.0201162 0)
(-0.0611039 -0.0205802 0)
(-0.0546255 -0.0207487 0)
(-0.0480922 -0.0206174 0)
(-0.0415867 -0.0201888 0)
(-0.0351919 -0.0194725 0)
(-0.0289888 -0.0184853 0)
(-0.0230553 -0.0172503 0)
(-0.0174639 -0.0157971 0)
(-0.0122802 -0.0141602 0)
(-0.00756138 -0.0123783 0)
(-0.00335449 -0.010493 0)
(0.000304364 -0.00854727 0)
(0.00339098 -0.00658415 0)
(0.0058935 -0.0046455 0)
(0.00781252 -0.00277098 0)
(0.00916097 -0.000997283 0)
(0.00996364 0.000642083 0)
(0.0102566 0.00211659 0)
(0.0100863 0.00339794 0)
(0.0095093 0.00445886 0)
(0.00859108 0.00527149 0)
(0.00740596 0.0058058 0)
(0.00603692 0.00602826 0)
(0.00457595 0.00590152 0)
(0.00312295 0.00538572 0)
(0.00178498 0.00444208 0)
(0.000708952 0.00303938 0)
(0.000129637 0.00116498 0)
(5.87105e-07 -0.0003726 0)
(-9.63029e-05 -0.000460488 0)
(-0.000405549 -0.000103953 0)
(-0.000955378 0.00054702 0)
(-0.00176651 0.00138619 0)
(-0.00285183 0.00233644 0)
(-0.00421705 0.00334495 0)
(-0.00586419 0.00437828 0)
(-0.00779381 0.00541739 0)
(-0.0100062 0.00645321 0)
(-0.0125017 0.00748295 0)
(-0.0152809 0.00850716 0)
(-0.0183442 0.0095274 0)
(-0.0216916 0.0105446 0)
(-0.0253212 0.0115581 0)
(-0.0292297 0.0125644 0)
(-0.0334103 0.0135577 0)
(-0.0378533 0.0145288 0)
(-0.0425443 0.015466 0)
(-0.0474648 0.0163549 0)
(-0.0525909 0.017179 0)
(-0.0578937 0.0179199 0)
(-0.063339 0.0185579 0)
(-0.0688874 0.0190728 0)
(-0.0744948 0.0194441 0)
(-0.0801127 0.0196517 0)
(-0.0856887 0.019677 0)
(-0.0911678 0.0195028 0)
(-0.0964926 0.0191145 0)
(-0.101605 0.0185003 0)
(-0.106446 0.0176519 0)
(-0.110958 0.0165649 0)
(-0.115087 0.0152387 0)
(-0.118777 0.0136776 0)
(-0.121981 0.0118899 0)
(-0.124653 0.0098889 0)
(-0.126753 0.00769204 0)
(-0.128246 0.00532129 0)
(-0.129104 0.00280275 0)
(-0.129305 0.000166341 0)
(-0.128834 -0.00255535 0)
(-0.127681 -0.00532508 0)
(-0.125847 -0.00810406 0)
(-0.123337 -0.0108514 0)
(-0.120166 -0.0135248 0)
(-0.116356 -0.0160812 0)
(-0.111937 -0.0184777 0)
(-0.106948 -0.0206725 0)
(-0.101435 -0.0226256 0)
(-0.0954528 -0.0243 0)
(-0.0890622 -0.0256625 0)
(-0.0823323 -0.0266852 0)
(-0.0753383 -0.027346 0)
(-0.0681608 -0.0276299 0)
(-0.0608846 -0.0275297 0)
(-0.0535976 -0.0270464 0)
(-0.0463887 -0.02619 0)
(-0.0393465 -0.0249791 0)
(-0.032557 -0.0234411 0)
(-0.0261019 -0.0216111 0)
(-0.0200564 -0.0195314 0)
(-0.0144875 -0.0172498 0)
(-0.00945235 -0.0148186 0)
(-0.00499646 -0.0122924 0)
(-0.00115294 -0.00972691 0)
(0.00205841 -0.00717692 0)
(0.00463151 -0.00469516 0)
(0.00657399 -0.00233117 0)
(0.00790693 -0.000130826 0)
(0.00866429 0.00186362 0)
(0.00889216 0.00361292 0)
(0.00864801 0.00507954 0)
(0.00799988 0.00622604 0)
(0.00702572 0.00701318 0)
(0.00581325 0.00739828 0)
(0.00446029 0.00733424 0)
(0.00307382 0.00676971 0)
(0.00176969 0.00565091 0)
(0.000705772 0.00392492 0)
(0.000129124 0.00154248 0)
(-1.96609e-05 -0.000300762 0)
(-0.000219651 -0.000173803 0)
(-0.000736411 0.000440071 0)
(-0.00156536 0.00137182 0)
(-0.00270967 0.00250353 0)
(-0.00417254 0.00375109 0)
(-0.00595241 0.00505798 0)
(-0.00804644 0.0063894 0)
(-0.0104525 0.0077262 0)
(-0.0131696 0.00905976 0)
(-0.0161979 0.0103878 0)
(-0.019538 0.0117109 0)
(-0.0231904 0.0130302 0)
(-0.0271546 0.0143453 0)
(-0.031428 0.0156534 0)
(-0.0360052 0.0169484 0)
(-0.0408771 0.0182205 0)
(-0.0460301 0.0194566 0)
(-0.0514457 0.02064 0)
(-0.0571001 0.0217513 0)
(-0.0629638 0.0227683 0)
(-0.0690017 0.0236673 0)
(-0.075173 0.0244234 0)
(-0.0814321 0.0250111 0)
(-0.0877284 0.0254055 0)
(-0.0940076 0.0255828 0)
(-0.100212 0.0255212 0)
(-0.106282 0.0252014 0)
(-0.112157 0.0246077 0)
(-0.117776 0.0237281 0)
(-0.123078 0.0225551 0)
(-0.128005 0.0210862 0)
(-0.132501 0.0193236 0)
(-0.136514 0.017275 0)
(-0.139996 0.0149531 0)
(-0.142903 0.0123757 0)
(-0.145195 0.00956583 0)
(-0.146841 0.00655109 0)
(-0.147811 0.00336344 0)
(-0.148086 3.92122e-05 0)
(-0.14765 -0.00338022 0)
(-0.146492 -0.00685303 0)
(-0.144611 -0.0103329 0)
(-0.142012 -0.0137714 0)
(-0.138707 -0.0171185 0)
(-0.134715 -0.0203234 0)
(-0.130064 -0.0233351 0)
(-0.124789 -0.0261037 0)
(-0.118934 -0.0285812 0)
(-0.11255 -0.0307225 0)
(-0.105698 -0.032487 0)
(-0.0984454 -0.0338394 0)
(-0.090868 -0.0347513 0)
(-0.083048 -0.0352021 0)
(-0.0750731 -0.0351804 0)
(-0.0670357 -0.0346846 0)
(-0.0590307 -0.0337236 0)
(-0.0511539 -0.0323169 0)
(-0.0434999 -0.0304947 0)
(-0.0361601 -0.0282973 0)
(-0.0292201 -0.025774 0)
(-0.0227576 -0.0229816 0)
(-0.0168405 -0.0199833 0)
(-0.0115252 -0.0168458 0)
(-0.00685467 -0.0136381 0)
(-0.00285777 -0.010429 0)
(0.000451512 -0.0072857 0)
(0.00307434 -0.00427197 0)
(0.00502687 -0.00144764 0)
(0.00633973 0.00113174 0)
(0.00705736 0.00341438 0)
(0.00723704 0.00535107 0)
(0.00694808 0.00689343 0)
(0.00627099 0.00799184 0)
(0.00529717 0.00859334 0)
(0.00412921 0.00863993 0)
(0.00287996 0.00806756 0)
(0.00167222 0.00680622 0)
(0.000670181 0.00478088 0)
(0.000122807 0.00190855 0)
(-4.2112e-05 -0.000161235 0)
(-0.000356654 0.000286965 0)
(-0.00110358 0.00124132 0)
(-0.00224054 0.00251881 0)
(-0.00374997 0.00399415 0)
(-0.00562339 0.00558003 0)
(-0.00785052 0.00721952 0)
(-0.0104226 0.008879 0)
(-0.0133341 0.0105412 0)
(-0.0165823 0.0121992 0)
(-0.0201667 0.013852 0)
(-0.0240877 0.0155004 0)
(-0.0283455 0.0171447 0)
(-0.0329389 0.0187829 0)
(-0.037864 0.0204094 0)
(-0.0431132 0.0220142 0)
(-0.0486744 0.0235832 0)
(-0.0545301 0.0250981 0)
(-0.0606573 0.0265367 0)
(-0.067027 0.0278737 0)
(-0.0736039 0.0290812 0)
(-0.0803472 0.0301298 0)
(-0.0872102 0.0309891 0)
(-0.0941417 0.031629 0)
(-0.101086 0.0320203 0)
(-0.107984 0.0321362 0)
(-0.114775 0.0319525 0)
(-0.121396 0.0314489 0)
(-0.127785 0.0306091 0)
(-0.133879 0.0294223 0)
(-0.139618 0.0278827 0)
(-0.144945 0.0259901 0)
(-0.149805 0.0237504 0)
(-0.154147 0.0211748 0)
(-0.157925 0.0182808 0)
(-0.161096 0.0150909 0)
(-0.163624 0.0116331 0)
(-0.165475 0.00794047 0)
(-0.166622 0.00405043 0)
(-0.167043 5.10615e-06 0)
(-0.166722 -0.00414771 0)
(-0.165648 -0.00836054 0)
(-0.163816 -0.0125805 0)
(-0.161226 -0.0167522 0)
(-0.157887 -0.0208185 0)
(-0.153814 -0.024721 0)
(-0.149029 -0.0284011 0)
(-0.143564 -0.0318005 0)
(-0.137457 -0.0348627 0)
(-0.130756 -0.0375342 0)
(-0.123519 -0.0397657 0)
(-0.11581 -0.0415138 0)
(-0.107705 -0.0427424 0)
(-0.0992866 -0.0434239 0)
(-0.0906445 -0.0435411 0)
(-0.081875 -0.0430881 0)
(-0.0730789 -0.042071 0)
(-0.0643595 -0.040509 0)
(-0.0558204 -0.0384339 0)
(-0.0475632 -0.0358899 0)
(-0.039685 -0.0329327 0)
(-0.0322755 -0.029628 0)
(-0.0254148 -0.0260495 0)
(-0.019171 -0.0222768 0)
(-0.0135988 -0.0183929 0)
(-0.00873733 -0.0144817 0)
(-0.00460976 -0.0106259 0)
(-0.00122258 -0.00690534 0)
(0.00143431 -0.00339524 0)
(0.00338725 -0.000166133 0)
(0.00467802 0.00271608 0)
(0.00536289 0.00518899 0)
(0.00551163 0.00719193 0)
(0.00520656 0.00866365 0)
(0.00454205 0.00953982 0)
(0.00362459 0.00975058 0)
(0.00257175 0.0092185 0)
(0.00151158 0.00785734 0)
(0.00061075 0.00557129 0)
(0.000112584 0.00224859 0)
(-6.64681e-05 5.2482e-05 0)
(-0.000505261 0.000938314 0)
(-0.00150118 0.00232313 0)
(-0.00296975 0.00401533 0)
(-0.00487007 0.0058872 0)
(-0.00718032 0.00785257 0)
(-0.00988028 0.00985785 0)
(-0.0129544 0.0118736 0)
(-0.0163932 0.0138865 0)
(-0.0201918 0.015893 0)
(-0.0243488 0.0178938 0)
(-0.0288638 0.0198904 0)
(-0.0337367 0.0218821 0)
(-0.038965 0.0238645 0)
(-0.0445431 0.0258283 0)
(-0.0504611 0.0277593 0)
(-0.0567033 0.029638 0)
(-0.0632484 0.0314401 0)
(-0.0700687 0.0331375 0)
(-0.07713 0.0346984 0)
(-0.0843918 0.036089 0)
(-0.0918079 0.0372741 0)
(-0.0993269 0.0382184 0)
(-0.106893 0.0388873 0)
(-0.114446 0.0392484 0)
(-0.121925 0.0392724 0)
(-0.129266 0.0389337 0)
(-0.136405 0.0382117 0)
(-0.143281 0.0370912 0)
(-0.14983 0.0355626 0)
(-0.155995 0.0336227 0)
(-0.161719 0.0312746 0)
(-0.16695 0.0285275 0)
(-0.171639 0.0253968 0)
(-0.175741 0.0219041 0)
(-0.179216 0.0180766 0)
(-0.182026 0.0139467 0)
(-0.184141 0.00955216 0)
(-0.185531 0.00493556 0)
(-0.186172 0.000143907 0)
(-0.186047 -0.00477199 0)
(-0.185142 -0.00975685 0)
(-0.183447 -0.0147524 0)
(-0.180958 -0.0196973 0)
(-0.177679 -0.0245278 0)
(-0.173618 -0.0291784 0)
(-0.168793 -0.0335825 0)
(-0.163227 -0.0376737 0)
(-0.156954 -0.0413867 0)
(-0.150016 -0.0446588 0)
(-0.142466 -0.0474312 0)
(-0.134365 -0.0496511 0)
(-0.125787 -0.0512731 0)
(-0.116812 -0.0522612 0)
(-0.107533 -0.0525905 0)
(-0.0980484 -0.0522487 0)
(-0.0884647 -0.0512376 0)
(-0.0788925 -0.0495738 0)
(-0.0694447 -0.0472892 0)
(-0.0602342 -0.0444309 0)
(-0.0513703 -0.0410598 0)
(-0.0429562 -0.0372499 0)
(-0.0350857 -0.0330857 0)
(-0.0278408 -0.0286596 0)
(-0.0212891 -0.0240697 0)
(-0.0154821 -0.0194161 0)
(-0.0104534 -0.0147986 0)
(-0.00621883 -0.0103144 0)
(-0.00277537 -0.0060561 0)
(-0.000102073 -0.00211088 0)
(0.00183936 0.00143951 0)
(0.00310352 0.00451787 0)
(0.00376004 0.00704979 0)
(0.00389255 0.00896114 0)
(0.00359787 0.0101752 0)
(0.00298572 0.0106095 0)
(0.00217746 0.0101732 0)
(0.00130503 0.00876447 0)
(0.000534933 0.00626915 0)
(9.99809e-05 0.00255244 0)
(-9.25634e-05 0.000345959 0)
(-0.000663735 0.00179393 0)
(-0.00192387 0.0037045 0)
(-0.00374275 0.00588328 0)
(-0.00605385 0.00820553 0)
(-0.0088207 0.0105912 0)
(-0.0120121 0.0129942 0)
(-0.0156052 0.0153925 0)
(-0.019586 0.0177792 0)
(-0.0239472 0.0201554 0)
(-0.0286859 0.0225246 0)
(-0.0338012 0.0248889 0)
(-0.0392917 0.0272465 0)
(-0.0451537 0.02959 0)
(-0.0513795 0.031906 0)
(-0.0579563 0.0341749 0)
(-0.064865 0.0363711 0)
(-0.0720801 0.0384639 0)
(-0.0795694 0.0404186 0)
(-0.0872939 0.0421971 0)
(-0.0952085 0.0437595 0)
(-0.103262 0.0450651 0)
(-0.1114 0.046074 0)
(-0.119562 0.0467482 0)
(-0.127687 0.0470525 0)
(-0.135711 0.0469562 0)
(-0.143571 0.0464334 0)
(-0.151202 0.0454641 0)
(-0.158543 0.0440344 0)
(-0.165534 0.0421374 0)
(-0.172119 0.0397726 0)
(-0.178243 0.0369462 0)
(-0.183857 0.0336713 0)
(-0.188913 0.0299671 0)
(-0.193369 0.0258588 0)
(-0.197184 0.0213775 0)
(-0.200323 0.0165596 0)
(-0.202753 0.0114467 0)
(-0.204445 0.00608536 0)
(-0.205373 0.000526542 0)
(-0.205515 -0.00517499 0)
(-0.204854 -0.010959 0)
(-0.203376 -0.0167624 0)
(-0.201071 -0.0225182 0)
(-0.197937 -0.0281567 0)
(-0.193976 -0.0336056 0)
(-0.189197 -0.0387908 0)
(-0.183618 -0.0436376 0)
(-0.177264 -0.0480716 0)
(-0.170172 -0.0520202 0)
(-0.162386 -0.0554146 0)
(-0.153964 -0.0581911 0)
(-0.144974 -0.0602936 0)
(-0.135496 -0.0616758 0)
(-0.125619 -0.0623029 0)
(-0.115446 -0.0621543 0)
(-0.105087 -0.061225 0)
(-0.0946603 -0.0595269 0)
(-0.0842872 -0.0570899 0)
(-0.0740923 -0.0539619 0)
(-0.0641987 -0.0502083 0)
(-0.0547243 -0.04591 0)
(-0.0457785 -0.0411622 0)
(-0.0374591 -0.0360707 0)
(-0.0298492 -0.030749 0)
(-0.0230142 -0.0253149 0)
(-0.0170009 -0.0198868 0)
(-0.0118357 -0.0145813 0)
(-0.00752448 -0.00951022 0)
(-0.00405282 -0.00477942 0)
(-0.00138683 -0.000488421 0)
(0.000525643 0.00326902 0)
(0.00175366 0.00640318 0)
(0.00238176 0.00882577 0)
(0.00250882 0.0104467 0)
(0.00224739 0.0111705 0)
(0.00172199 0.0108929 0)
(0.00106757 0.00949774 0)
(0.000449019 0.0068554 0)
(8.62271e-05 0.00281358 0)
(-0.000120161 0.000723898 0)
(-0.000830286 0.00286494 0)
(-0.00236645 0.00540034 0)
(-0.00454954 0.00813922 0)
(-0.0072856 0.0109659 0)
(-0.0105224 0.0138118 0)
(-0.0142171 0.0166429 0)
(-0.018339 0.0194479 0)
(-0.0228693 0.0222291 0)
(-0.0277981 0.0249935 0)
(-0.0331208 0.0277485 0)
(-0.0388353 0.0304968 0)
(-0.044939 0.0332351 0)
(-0.0514265 0.0359528 0)
(-0.0582876 0.0386314 0)
(-0.0655066 0.0412452 0)
(-0.0730608 0.0437622 0)
(-0.0809207 0.0461449 0)
(-0.0890496 0.0483514 0)
(-0.0974044 0.0503375 0)
(-0.105936 0.0520574 0)
(-0.11459 0.0534656 0)
(-0.123307 0.0545182 0)
(-0.132027 0.0551742 0)
(-0.140687 0.0553971 0)
(-0.149222 0.0551555 0)
(-0.15757 0.0544239 0)
(-0.165667 0.0531838 0)
(-0.173455 0.0514236 0)
(-0.180875 0.0491387 0)
(-0.187874 0.0463319 0)
(-0.1944 0.0430128 0)
(-0.200404 0.0391976 0)
(-0.205843 0.034909 0)
(-0.210674 0.0301756 0)
(-0.214858 0.0250315 0)
(-0.218359 0.0195163 0)
(-0.221145 0.0136748 0)
(-0.223184 0.00755638 0)
(-0.224449 0.00121531 0)
(-0.224914 -0.00528995 0)
(-0.224559 -0.0118958 0)
(-0.223364 -0.0185349 0)
(-0.221316 -0.0251356 0)
(-0.218404 -0.0316228 0)
(-0.214624 -0.0379178 0)
(-0.209978 -0.0439397 0)
(-0.204474 -0.0496054 0)
(-0.19813 -0.0548316 0)
(-0.190973 -0.0595356 0)
(-0.183041 -0.0636375 0)
(-0.174382 -0.067062 0)
(-0.165058 -0.0697406 0)
(-0.155145 -0.0716148 0)
(-0.14473 -0.072638 0)
(-0.133915 -0.0727784 0)
(-0.122813 -0.0720214 0)
(-0.111546 -0.0703717 0)
(-0.100247 -0.0678546 0)
(-0.0890508 -0.0645166 0)
(-0.0780945 -0.060425 0)
(-0.0675123 -0.0556671 0)
(-0.0574315 -0.0503477 0)
(-0.0479678 -0.0445859 0)
(-0.0392222 -0.0385116 0)
(-0.0312773 -0.0322614 0)
(-0.0241952 -0.0259744 0)
(-0.0180155 -0.0197884 0)
(-0.012755 -0.0138368 0)
(-0.00840747 -0.00824673 0)
(-0.00494466 -0.00313755 0)
(-0.00231769 0.00137837 0)
(-0.000458671 0.00519422 0)
(0.000717486 0.00820616 0)
(0.00131152 0.0103098 0)
(0.00143852 0.0113961 0)
(0.00122594 0.0113478 0)
(0.000811503 0.0100359 0)
(0.000358087 0.00731775 0)
(7.22853e-05 0.00302857 0)
(-0.000148984 0.00119013 0)
(-0.001003 0.00415983 0)
(-0.00282349 0.00742142 0)
(-0.00537991 0.0107945 0)
(-0.00854937 0.014179 0)
(-0.0122631 0.0175237 0)
(-0.0164663 0.0208112 0)
(-0.02112 0.0240451 0)
(-0.0262003 0.0272387 0)
(-0.0316945 0.0304074 0)
(-0.0375963 0.0335623 0)
(-0.043902 0.0367076 0)
(-0.0506074 0.0398381 0)
(-0.0577052 0.042939 0)
(-0.0651826 0.0459865 0)
(-0.0730206 0.0489483 0)
(-0.0811931 0.0517853 0)
(-0.0896665 0.0544528 0)
(-0.0984004 0.0569022 0)
(-0.107348 0.0590831 0)
(-0.116456 0.0609443 0)
(-0.125669 0.062436 0)
(-0.134926 0.0635113 0)
(-0.144163 0.0641273 0)
(-0.153319 0.0642466 0)
(-0.16233 0.0638381 0)
(-0.171134 0.0628777 0)
(-0.179671 0.0613487 0)
(-0.187883 0.0592419 0)
(-0.195715 0.0565559 0)
(-0.203115 0.0532962 0)
(-0.210035 0.0494757 0)
(-0.216428 0.0451136 0)
(-0.222251 0.0402356 0)
(-0.227463 0.0348728 0)
(-0.232027 0.0290621 0)
(-0.235907 0.0228456 0)
(-0.239069 0.0162703 0)
(-0.241481 0.00938803 0)
(-0.243114 0.00225551 0)
(-0.243941 -0.00506605 0)
(-0.243937 -0.0125104 0)
(-0.243079 -0.0200068 0)
(-0.241348 -0.0274799 0)
(-0.238727 -0.03485 0)
(-0.235205 -0.0420332 0)
(-0.230776 -0.0489419 0)
(-0.225439 -0.0554859 0)
(-0.219203 -0.0615728 0)
(-0.212083 -0.06711 0)
(-0.204108 -0.0720062 0)
(-0.195315 -0.0761734 0)
(-0.185759 -0.07953 0)
(-0.175506 -0.082003 0)
(-0.164639 -0.0835316 0)
(-0.153255 -0.0840702 0)
(-0.141469 -0.0835918 0)
(-0.129406 -0.0820903 0)
(-0.117205 -0.079583 0)
(-0.105012 -0.0761118 0)
(-0.092979 -0.0717436 0)
(-0.0812574 -0.0665698 0)
(-0.0699934 -0.0607034 0)
(-0.0593237 -0.0542766 0)
(-0.0493701 -0.0474361 0)
(-0.0402357 -0.0403385 0)
(-0.0320011 -0.0331455 0)
(-0.0247225 -0.0260187 0)
(-0.01843 -0.0191158 0)
(-0.0131281 -0.0125877 0)
(-0.00879591 -0.00657651 0)
(-0.005389 -0.00121572 0)
(-0.00284147 0.0033688 0)
(-0.00106807 0.00705598 0)
(3.35835e-05 0.00972599 0)
(0.000581164 0.011256 0)
(0.000705113 0.0115158 0)
(0.000546222 0.0103647 0)
(0.000265971 0.00764929 0)
(5.88676e-05 0.0031963 0)
(-0.000178703 0.00174746 0)
(-0.00117974 0.00568429 0)
(-0.0032892 0.00977435 0)
(-0.00622316 0.0138553 0)
(-0.00982876 0.0178497 0)
(-0.0140203 0.0217297 0)
(-0.0187305 0.0254999 0)
(-0.023912 0.0291821 0)
(-0.029536 0.0328038 0)
(-0.0355866 0.0363898 0)
(-0.0420555 0.0399562 0)
(-0.0489374 0.0435082 0)
(-0.0562262 0.0470386 0)
(-0.0639122 0.0505282 0)
(-0.0719801 0.053947 0)
(-0.0804076 0.0572558 0)
(-0.0891649 0.060408 0)
(-0.0982151 0.063352 0)
(-0.107514 0.0660324 0)
(-0.117012 0.068393 0)
(-0.126654 0.0703779 0)
(-0.136381 0.0719339 0)
(-0.146132 0.0730115 0)
(-0.155844 0.073567 0)
(-0.165454 0.0735629 0)
(-0.174902 0.0729691 0)
(-0.184125 0.0717633 0)
(-0.193068 0.0699311 0)
(-0.201673 0.067466 0)
(-0.209889 0.0643695 0)
(-0.217667 0.06065 0)
(-0.224958 0.0563233 0)
(-0.23172 0.0514114 0)
(-0.237911 0.0459423 0)
(-0.243492 0.0399497 0)
(-0.248426 0.0334726 0)
(-0.252678 0.026555 0)
(-0.256214 0.0192458 0)
(-0.259004 0.0115988 0)
(-0.261016 0.00367218 0)
(-0.262223 -0.00447075 0)
(-0.262598 -0.0127619 0)
(-0.262114 -0.0211282 0)
(-0.260748 -0.0294916 0)
(-0.258478 -0.037769 0)
(-0.255286 -0.0458723 0)
(-0.251158 -0.0537088 0)
(-0.246084 -0.0611816 0)
(-0.24006 -0.0681905 0)
(-0.233092 -0.0746334 0)
(-0.225194 -0.0804075 0)
(-0.216394 -0.0854122 0)
(-0.206731 -0.0895511 0)
(-0.196262 -0.0927357 0)
(-0.185061 -0.0948887 0)
(-0.173217 -0.0959479 0)
(-0.16084 -0.0958699 0)
(-0.148058 -0.0946344 0)
(-0.135012 -0.0922464 0)
(-0.121859 -0.0887395 0)
(-0.108763 -0.0841766 0)
(-0.0958938 -0.0786495 0)
(-0.0834175 -0.072278 0)
(-0.0714942 -0.0652056 0)
(-0.0602701 -0.057596 0)
(-0.0498722 -0.0496268 0)
(-0.0404041 -0.0414842 0)
(-0.0319421 -0.0333563 0)
(-0.0245338 -0.0254284 0)
(-0.0181971 -0.0178785 0)
(-0.012921 -0.0108747 0)
(-0.0086675 -0.0045746 0)
(-0.00537369 0.00087429 0)
(-0.00295485 0.00533169 0)
(-0.0013071 0.00866097 0)
(-0.000310081 0.0107246 0)
(0.000170097 0.0113798 0)
(0.000278058 0.0104746 0)
(0.000175243 0.00784698 0)
(4.64419e-05 0.00331736 0)
(-0.000208927 0.00239754 0)
(-0.00135817 0.00744105 0)
(-0.00375737 0.0124613 0)
(-0.00706805 0.0173223 0)
(-0.0111068 0.0219765 0)
(-0.0157707 0.0264262 0)
(-0.02098 0.0307028 0)
(-0.0266789 0.0348505 0)
(-0.0328335 0.0389134 0)
(-0.0394248 0.042927 0)