/*--------------------------------*- C++ -*----------------------------------*\
  =========                 |
  \\      /  F ield         | OpenFOAM: The Open Source CFD Toolbox
   \\    /   O peration     | Website:  https://openfoam.org
    \\  /    A nd           | Version:  7
     \\/     M anipulation  |
\*---------------------------------------------------------------------------*/
FoamFile
{
    version     2.0;
    format      ascii;
    class       volScalarField;
    location    "1.85";
    object      p;
}
// * * * * * * * * * * * * * * * * * * * * * * * * * * * * * * * * * * * * * //

dimensions      [0 2 -2 0 0 0 0];

internalField   nonuniform List<scalar> 
6400
(
-8.51349e-07
1.12046e-06
-3.1437e-05
-9.81786e-05
-0.00019173
-0.000305106
-0.000432286
-0.000568174
-0.000708822
-0.000851267
-0.000993367
-0.00113361
-0.00127092
-0.00140451
-0.0015338
-0.00165822
-0.00177725
-0.00189026
-0.00199653
-0.00209521
-0.00218532
-0.00226577
-0.00233534
-0.00239273
-0.00243661
-0.00246561
-0.00247838
-0.00247366
-0.00245025
-0.00240717
-0.00234357
-0.00225891
-0.00215291
-0.00202564
-0.00187753
-0.00170943
-0.00152262
-0.00131884
-0.00110027
-0.00086956
-0.0006298
-0.00038448
-0.000137448
0.000107154
0.000344958
0.000571469
0.000782154
0.000972558
0.00113842
0.00127578
0.00138111
0.00145141
0.00148431
0.00147816
0.00143206
0.00134596
0.00122064
0.00105771
0.000859584
0.000629423
0.000371071
8.89491e-05
-0.000212042
-0.000526634
-0.000849312
-0.00117442
-0.00149628
-0.00180927
-0.00210789
-0.00238687
-0.0026412
-0.00286618
-0.00305751
-0.00321142
-0.00332489
-0.00339614
-0.00342554
-0.00341723
-0.00338105
-0.00333485
-4.9349e-06
-2.44239e-06
-3.20286e-05
-9.00835e-05
-0.000170213
-0.000267623
-0.000377818
-0.000496772
-0.000621212
-0.000748535
-0.000876746
-0.00100435
-0.00113022
-0.00125347
-0.00137339
-0.00148935
-0.00160073
-0.00170686
-0.00180701
-0.00190035
-0.00198595
-0.0020628
-0.00212977
-0.00218568
-0.00222933
-0.00225948
-0.00227491
-0.00227449
-0.00225715
-0.00222199
-0.00216828
-0.0020955
-0.00200342
-0.0018921
-0.00176195
-0.00161373
-0.00144861
-0.00126817
-0.0010744
-0.000869721
-0.000656928
-0.000439204
-0.000220053
-3.24326e-06
0.000207252
0.000407342
0.000592908
0.000759907
0.00090447
0.00102302
0.00111236
0.00116981
0.00119324
0.00118118
0.0011329
0.00104838
0.000928406
0.000774496
0.000588911
0.000374591
0.000135084
-0.000125535
-0.000402767
-0.000691795
-0.000987585
-0.001285
-0.0015789
-0.00186421
-0.00213605
-0.00238975
-0.00262096
-0.00282569
-0.00300044
-0.00314228
-0.0032491
-0.00331992
-0.00335561
-0.00335949
-0.00333502
-0.00328872
2.68748e-05
2.60495e-05
-4.05045e-06
-5.87049e-05
-0.000132123
-0.000220447
-0.000320157
-0.000428012
-0.000541267
-0.000657709
-0.00077559
-0.000893542
-0.0010105
-0.00112561
-0.00123816
-0.00134752
-0.00145303
-0.00155405
-0.00164984
-0.0017396
-0.00182246
-0.00189743
-0.00196348
-0.0020195
-0.00206435
-0.00209688
-0.00211596
-0.0021205
-0.0021095
-0.00208211
-0.00203761
-0.00197552
-0.00189557
-0.00179779
-0.00168252
-0.00155043
-0.00140259
-0.00124041
-0.00106575
-0.000880814
-0.000688195
-0.000490858
-0.000292059
-9.53181e-05
9.56527e-05
0.000277022
0.000444928
0.000595575
0.000725335
0.000830847
0.000909123
0.000957636
0.000974413
0.000958101
0.000908023
0.000824216
0.000707442
0.000559182
0.000381608
0.000177529
-4.96754e-05
-0.000296143
-0.000557622
-0.000829575
-0.00110729
-0.00138597
-0.00166084
-0.00192726
-0.00218075
-0.00241711
-0.00263248
-0.00282336
-0.00298675
-0.00312022
-0.00322199
-0.00329121
-0.00332848
-0.00333572
-0.00331084
-0.00325226
9.48426e-05
8.38314e-05
4.85049e-05
-7.20222e-06
-7.87522e-05
-0.000162867
-0.000256615
-0.000357366
-0.000462896
-0.000571391
-0.000681398
-0.000791772
-0.000901598
-0.00101014
-0.00111675
-0.00122085
-0.00132183
-0.00141907
-0.00151187
-0.00159947
-0.00168103
-0.00175561
-0.00182222
-0.00187978
-0.00192722
-0.00196341
-0.00198726
-0.00199771
-0.00199376
-0.00197456
-0.00193938
-0.00188769
-0.00181917
-0.00173379
-0.00163179
-0.00151375
-0.00138059
-0.00123362
-0.00107451
-0.000905332
-0.000728514
-0.000546846
-0.000363415
-0.000181574
-4.87306e-06
0.000163013
0.00031837
0.000457537
0.000577007
0.000673532
0.000744215
0.000786608
0.000798802
0.000779487
0.000728019
0.000644445
0.000529521
0.000384705
0.000212121
1.45146e-05
-0.000204825
-0.000442148
-0.000693344
-0.000954044
-0.00121973
-0.00148584
-0.00174786
-0.00200141
-0.00224237
-0.00246685
-0.00267135
-0.00285273
-0.00300832
-0.00313592
-0.00323387
-0.00330109
-0.00333768
-0.00334428
-0.00331484
-0.00324287
0.000192527
0.000165079
0.000120359
6.02756e-05
-1.25394e-05
-9.53479e-05
-0.000185745
-0.000281687
-0.000381467
-0.000483692
-0.000587251
-0.000691267
-0.000795036
-0.000897981
-0.000999587
-0.00109934
-0.00119673
-0.00129118
-0.00138204
-0.00146861
-0.00155006
-0.00162551
-0.00169399
-0.00175445
-0.00180584
-0.00184704
-0.00187696
-0.00189453
-0.00189875
-0.00188871
-0.00186363
-0.00182292
-0.00176617
-0.00169326
-0.0016043
-0.00149975
-0.0013804
-0.00124743
-0.00110235
-0.000947093
-0.00078396
-0.000615579
-0.000444914
-0.000275198
-0.000109875
4.74758e-05
0.000193219
0.000323761
0.000435649
0.000525671
0.000590959
0.000629086
0.000638146
0.000616837
0.000564506
0.000481192
0.00036764
0.000225285
5.62283e-05
-0.000136821
-0.00035062
-0.00058148
-0.00082537
-0.00107802
-0.00133505
-0.00159205
-0.00184469
-0.00208883
-0.00232056
-0.0025363
-0.00273281
-0.00290723
-0.00305714
-0.00318051
-0.00327569
-0.00334142
-0.00337731
-0.00338313
-0.00335044
-0.00327013
0.000313396
0.000265176
0.000207658
0.000140394
6.36724e-05
-2.02865e-05
-0.000109585
-0.00020276
-0.000298614
-0.000396189
-0.00049474
-0.000593702
-0.00069262
-0.000791109
-0.000888809
-0.000985336
-0.00108026
-0.0011731
-0.00126328
-0.00135011
-0.00143282
-0.00151055
-0.00158236
-0.00164721
-0.00170403
-0.00175171
-0.00178912
-0.00181516
-0.00182876
-0.00182895
-0.00181487
-0.00178582
-0.00174128
-0.001681
-0.00160497
-0.0015135
-0.00140724
-0.00128721
-0.0011548
-0.0010118
-0.000860386
-0.000703077
-0.000542743
-0.000382539
-0.000225847
-7.62088e-05
6.27645e-05
0.000187484
0.000294486
0.000380537
0.000442735
0.000478613
0.000486225
0.000464223
0.000411916
0.000329309
0.000217114
7.67463e-05
-8.97118e-05
-0.000279567
-0.000489592
-0.00071612
-0.000955152
-0.00120247
-0.00145375
-0.00170468
-0.00195107
-0.00218891
-0.00241448
-0.00262441
-0.00281566
-0.00298561
-0.003132
-0.00325293
-0.00334677
-0.00341212
-0.00344827
-0.00345444
-0.00342111
-0.00333816
0.000451236
0.000379157
0.000306289
0.000229584
0.000146782
5.95943e-05
-3.05586e-05
-0.000122781
-0.000216388
-0.00031087
-0.000405871
-0.000501155
-0.000596539
-0.000691859
-0.000786935
-0.000881533
-0.000975342
-0.00106796
-0.00115889
-0.00124748
-0.00133302
-0.00141465
-0.00149143
-0.00156233
-0.00162625
-0.00168204
-0.00172853
-0.00176452
-0.00178889
-0.00180054
-0.0017985
-0.00178195
-0.00175022
-0.00170291
-0.00163986
-0.00156121
-0.00146748
-0.00135951
-0.00123859
-0.00110635
-0.000964872
-0.000816587
-0.000664299
-0.00051112
-0.000360416
-0.000215733
-8.07125e-05
4.10081e-05
0.000145898
0.000230642
0.00029225
0.000328159
0.000336329
0.000315321
0.000264365
0.000183397
7.30783e-05
-6.52149e-05
-0.000229422
-0.000416857
-0.000624291
-0.000848052
-0.00108413
-0.00132832
-0.00157631
-0.00182382
-0.00206672
-0.0023011
-0.00252336
-0.00273024
-0.00291888
-0.00308681
-0.00323191
-0.00335236
-0.00344658
-0.00351309
-0.00355101
-0.00355927
-0.00352817
-0.00344767
0.000599977
0.000501898
0.00041183
0.00032397
0.000233395
0.000141329
4.87367e-05
-4.40559e-05
-0.000136887
-0.000229703
-0.000322549
-0.000415527
-0.000508744
-0.000602272
-0.000696134
-0.000790253
-0.000884448
-0.000978415
-0.00107172
-0.00116377
-0.00125388
-0.00134121
-0.00142482
-0.00150364
-0.00157653
-0.00164227
-0.00169962
-0.00174729
-0.00178402
-0.00180859
-0.0018199
-0.00181694
-0.00179889
-0.00176517
-0.00171544
-0.00164968
-0.00156822
-0.00147177
-0.00136146
-0.00123882
-0.0011058
-0.000964795
-0.000818545
-0.000670151
-0.000522995
-0.000380668
-0.000246881
-0.000125368
-1.97773e-05
6.64424e-05
0.000130157
0.000168654
0.000179748
0.00016186
0.000114091
3.62701e-05
-7.10292e-05
-0.000206492
-0.000368095
-0.000553169
-0.000758478
-0.000980329
-0.00121469
-0.00145731
-0.00170385
-0.00195004
-0.00219174
-0.00242507
-0.00264649
-0.00285282
-0.0030413
-0.00320954
-0.00335554
-0.00347757
-0.00357406
-0.00364356
-0.00368508
-0.00369744
-0.00367141
-0.00359763
0.000753819
0.000628312
0.000519729
0.00041946
0.000319843
0.00022163
0.000125332
3.06946e-05
-6.26499e-05
-0.000155112
-0.00024714
-0.000339185
-0.000431648
-0.000524855
-0.000619034
-0.000714277
-0.000810531
-0.000907593
-0.0010051
-0.00110252
-0.00119917
-0.00129423
-0.00138672
-0.00147556
-0.00155952
-0.0016373
-0.00170756
-0.00176887
-0.00181984
-0.00185909
-0.00188532
-0.00189735
-0.00189416
-0.00187497
-0.00183925
-0.00178677
-0.0017177
-0.00163257
-0.00153235
-0.00141846
-0.00129277
-0.00115759
-0.00101563
-0.000869997
-0.000724116
-0.00058165
-0.000446416
-0.000322285
-0.000213066
-0.000122391
-5.35908e-05
-9.58026e-06
7.25002e-06
-4.87337e-06
-4.703e-05
-0.000119551
-0.000221994
-0.000353143
-0.000511043
-0.000693059
-0.000895961
-0.00111603
-0.0013492
-0.00159115
-0.00183751
-0.00208393
-0.00232624
-0.00256053
-0.00278325
-0.00299126
-0.00318183
-0.00335263
-0.0035017
-0.00362738
-0.00372816
-0.0038026
-0.0038497
-0.00386827
-0.00384988
-0.00378626
0.000907241
0.000753355
0.000625357
0.000511797
0.000402224
0.000296909
0.000195898
9.83448e-05
3.34369e-06
-8.99833e-05
-0.000182491
-0.000274984
-0.000368166
-0.000462617
-0.000558773
-0.000656892
-0.000757055
-0.000859156
-0.0009629
-0.0010678
-0.0011732
-0.00127826
-0.00138196
-0.00148316
-0.00158056
-0.00167276
-0.00175825
-0.00183548
-0.00190287
-0.00195886
-0.00200194
-0.00203071
-0.00204394
-0.0020406
-0.00201994
-0.00198153
-0.00192533
-0.0018517
-0.00176143
-0.00165582
-0.00153663
-0.0014061
-0.00126693
-0.00112224
-0.000975489
-0.00083045
-0.000691073
-0.000561399
-0.000445438
-0.000347053
-0.000269823
-0.000216926
-0.000191016
-0.000194125
-0.000227576
-0.000291921
-0.000386906
-0.000511469
-0.000663766
-0.00084123
-0.00104066
-0.00125833
-0.00149012
-0.00173166
-0.00197848
-0.00222615
-0.0024704
-0.00270727
-0.00293313
-0.00314481
-0.00333955
-0.00351503
-0.00366931
-0.00380075
-0.00390787
-0.00398928
-0.00404398
-0.00407077
-0.00406231
-0.00401158
0.00105484
0.000871982
0.000724005
0.000596582
0.000476427
0.000363309
0.000256787
0.000155412
5.77312e-05
-3.76059e-05
-0.000131866
-0.00022621
-0.000321644
-0.000419
-0.000518918
-0.000621822
-0.000727921
-0.000837203
-0.000949439
-0.00106418
-0.00118077
-0.00129835
-0.00141586
-0.00153208
-0.00164559
-0.00175486
-0.00185825
-0.00195402
-0.00204038
-0.00211555
-0.00217779
-0.00222546
-0.00225705
-0.0022713
-0.00226721
-0.00224411
-0.00220171
-0.00214018
-0.00206013
-0.0019627
-0.00184954
-0.00172282
-0.0015852
-0.0014398
-0.00129017
-0.00114017
-0.000993909
-0.000855629
-0.000729581
-0.000619902
-0.000530474
-0.000464797
-0.000425858
-0.000416021
-0.000436924
-0.000489415
-0.0005735
-0.000688338
-0.000832256
-0.00100281
-0.00119686
-0.00141069
-0.00164017
-0.00188084
-0.00212815
-0.00237753
-0.0026246
-0.00286526
-0.00309577
-0.00331286
-0.00351368
-0.00369587
-0.00385743
-0.00399671
-0.00411225
-0.00420268
-0.00426695
-0.0043039
-0.00430736
-0.00427171
0.00119127
0.000979139
0.000810897
0.000669294
0.000538161
0.000416738
0.000304076
0.000198102
9.68103e-05
-1.63201e-06
-9.89094e-05
-0.000196538
-0.000295823
-0.000397842
-0.000503436
-0.000613188
-0.000727429
-0.000846238
-0.000969442
-0.00109662
-0.00122711
-0.00136002
-0.00149423
-0.0016284
-0.00176103
-0.00189041
-0.00201473
-0.00213203
-0.00224031
-0.00233754
-0.00242169
-0.00249086
-0.00254327
-0.00257735
-0.00259182
-0.00258575
-0.00255858
-0.00251024
-0.00244114
-0.00235226
-0.00224505
-0.00212163
-0.00198459
-0.00183708
-0.00168269
-0.00152538
-0.00136945
-0.00121934
-0.0010796
-0.000954678
-0.00084881
-0.000765887
-0.000709301
-0.000681829
-0.000685515
-0.000721588
-0.000790406
-0.000891429
-0.00102324
-0.00118357
-0.00136941
-0.00157711
-0.00180252
-0.00204112
-0.00228826
-0.00253922
-0.00278947
-0.00303471
-0.00327105
-0.00349502
-0.00370366
-0.00389444
-0.00406529
-0.00421448
-0.00434049
-0.00444194
-0.00451774
-0.00456668
-0.00458383
-0.004565
0.00131119
0.00106976
0.00088119
0.000725291
0.000582966
0.000452895
0.000333593
0.000222346
0.000116574
1.39558e-05
-8.76126e-05
-0.000190001
-0.000294807
-0.00040335
-0.000516664
-0.000635484
-0.000760257
-0.000891143
-0.00102802
-0.00117048
-0.00131785
-0.00146919
-0.00162329
-0.00177872
-0.00193382
-0.00208672
-0.00223539
-0.00237766
-0.00251126
-0.00263388
-0.00274321
-0.00283702
-0.00291322
-0.00296992
-0.00300552
-0.00301876
-0.00300882
-0.00297532
-0.00291844
-0.00283901
-0.00273806
-0.00261782
-0.00248076
-0.00232998
-0.0021691
-0.00200222
-0.00183379
-0.0016685
-0.0015112
-0.00136669
-0.00123964
-0.00113439
-0.00105483
-0.00100422
-0.000985118
-0.000999244
-0.00104741
-0.00112949
-0.0012444
-0.00139016
-0.00156396
-0.00176226
-0.00198093
-0.00221544
-0.00246101
-0.00271278
-0.002966
-0.00321616
-0.00345911
-0.00369117
-0.00390913
-0.00411026
-0.00429232
-0.00445341
-0.00459192
-0.00470639
-0.00479559
-0.00485831
-0.00489073
-0.0048902
0.00140928
0.00113874
0.000929982
0.000759835
0.000606252
0.000467314
0.00034097
0.00022384
0.000112754
4.89476e-06
-0.000102263
-0.000210938
-0.000323015
-0.000440049
-0.000563259
-0.000693526
-0.000831404
-0.000977127
-0.00113061
-0.00129146
-0.00145897
-0.00163213
-0.00180966
-0.00198999
-0.0021713
-0.00235154
-0.00252844
-0.00269958
-0.0028624
-0.00301428
-0.00315259
-0.00327476
-0.00337832
-0.00346104
-0.00352096
-0.00355645
-0.00356634
-0.00354995
-0.00350712
-0.00343826
-0.00334476
-0.00322811
-0.0030908
-0.0029359
-0.00276706
-0.00258846
-0.00240471
-0.00222077
-0.00204179
-0.001873
-0.00171953
-0.00158624
-0.0014776
-0.0013975
-0.00134908
-0.0013347
-0.00135573
-0.00141259
-0.00150466
-0.00163035
-0.00178715
-0.0019717
-0.00217997
-0.00240744
-0.00264922
-0.00290029
-0.00315565
-0.00341054
-0.00366049
-0.0039015
-0.00413004
-0.00434311
-0.00453817
-0.00471311
-0.0048661
-0.00499557
-0.00510007
-0.00517814
-0.00522736
-0.00524645
0.00148019
0.00118096
0.000952333
0.00076813
0.000603343
0.000455414
0.00032169
0.000198103
8.08789e-05
-3.33011e-05
-0.000147382
-0.000263932
-0.000385118
-0.00051272
-0.000648138
-0.00079239
-0.000946132
-0.00110966
-0.00128293
-0.00146552
-0.00165671
-0.00185542
-0.00206025
-0.00226951
-0.00248118
-0.00269301
-0.00290248
-0.00310689
-0.00330336
-0.00348895
-0.00366065
-0.00381551
-0.00395067
-0.00406349
-0.0041516
-0.00421297
-0.00424602
-0.00424968
-0.00422347
-0.00416751
-0.00408269
-0.0039705
-0.00383319
-0.00367372
-0.00349573
-0.00330345
-0.00310164
-0.00289552
-0.00269058
-0.00249248
-0.00230687
-0.00213922
-0.00199468
-0.00187783
-0.00179259
-0.00174203
-0.00172827
-0.00175241
-0.00181444
-0.0019133
-0.00204688
-0.00221214
-0.00240522
-0.00262165
-0.00285647
-0.00310449
-0.00336046
-0.00361929
-0.00387612
-0.00412656
-0.00436668
-0.00459306
-0.0048028
-0.00499343
-0.00516285
-0.00530924
-0.00543086
-0.00552598
-0.00559342
-0.00563332
0.00151857
0.00119132
0.000943296
0.00074535
0.000569508
0.00041253
0.000271128
0.000140523
1.63293e-05
-0.00010528
-0.00022767
-0.000353754
-0.000485976
-0.000626338
-0.000776413
-0.000937351
-0.0011099
-0.00129441
-0.00149086
-0.00169883
-0.00191754
-0.00214583
-0.0023822
-0.00262478
-0.00287138
-0.00311951
-0.00336638
-0.00360899
-0.00384412
-0.00406845
-0.00427858
-0.00447114
-0.00464284
-0.00479057
-0.00491148
-0.00500311
-0.00506339
-0.00509083
-0.00508449
-0.00504414
-0.00497024
-0.00486405
-0.00472756
-0.00456357
-0.00437564
-0.00416802
-0.0039456
-0.00371382
-0.00347852
-0.00324583
-0.00302197
-0.00281309
-0.00262509
-0.0024634
-0.0023328
-0.00223728
-0.00217985
-0.00216245
-0.00218588
-0.00224975
-0.00235254
-0.00249163
-0.00266345
-0.00286365
-0.00308727
-0.00332895
-0.00358316
-0.00384443
-0.00410747
-0.00436738
-0.00461971
-0.00486053
-0.00508644
-0.00529451
-0.00548224
-0.00564745
-0.005788
-0.00590183
-0.00598892
-0.00605085
0.00151913
0.00116474
0.00089796
0.000686694
0.000500019
0.000333975
0.000184613
4.64266e-05
-8.55917e-05
-0.00021578
-0.000347924
-0.000485278
-0.000630562
-0.000785992
-0.000953309
-0.00113379
-0.00132826
-0.00153714
-0.0017604
-0.00199763
-0.00224798
-0.00251022
-0.0027827
-0.00306341
-0.00334994
-0.00363954
-0.00392915
-0.00421542
-0.0044948
-0.00476353
-0.0050178
-0.00525377
-0.00546765
-0.00565584
-0.00581497
-0.00594202
-0.00603443
-0.00609015
-0.00610776
-0.00608654
-0.00602653
-0.00592859
-0.0057944
-0.00562653
-0.00542839
-0.00520418
-0.00495888
-0.00469814
-0.00442813
-0.00415545
-0.00388695
-0.00362951
-0.00338987
-0.00317442
-0.00298898
-0.00283859
-0.00272734
-0.00265824
-0.00263306
-0.00265232
-0.00271523
-0.0028198
-0.00296286
-0.00314032
-0.00334725
-0.00357818
-0.00382729
-0.0040887
-0.00435659
-0.00462546
-0.00489022
-0.00514631
-0.00538967
-0.00561679
-0.00582463
-0.00601052
-0.00617184
-0.00630603
-0.00641424
-0.00649948
0.00147663
0.00109623
0.000811499
0.000587426
0.000390198
0.000215101
5.74997e-05
-8.88489e-05
-0.000229582
-0.00036955
-0.000512961
-0.000663405
-0.000823872
-0.000996794
-0.00118407
-0.00138709
-0.00160679
-0.0018436
-0.00209754
-0.00236816
-0.00265456
-0.00295541
-0.00326894
-0.00359295
-0.00392481
-0.00426153
-0.00459971
-0.00493567
-0.00526545
-0.00558487
-0.00588965
-0.00617542
-0.00643789
-0.00667286
-0.00687639
-0.00704487
-0.00717511
-0.00726447
-0.00731094
-0.00731324
-0.00727088
-0.00718423
-0.00705459
-0.00688418
-0.00667618
-0.00643469
-0.00616471
-0.00587203
-0.00556316
-0.00524515
-0.00492548
-0.00461184
-0.00431189
-0.0040331
-0.00378244
-0.00356622
-0.0033898
-0.00325745
-0.00317217
-0.00313561
-0.00314795
-0.00320802
-0.00331326
-0.00345993
-0.00364329
-0.00385779
-0.00409735
-0.00435561
-0.00462618
-0.00490285
-0.00517977
-0.00545156
-0.0057134
-0.00596102
-0.00619067
-0.00639908
-0.00658298
-0.00673924
-0.00687012
-0.00698008
0.001386
0.000980967
0.000679219
0.000442932
0.000235479
5.13609e-05
-0.000114765
-0.000269885
-0.000420266
-0.000571274
-0.000727534
-0.00089297
-0.00107084
-0.00126378
-0.00147386
-0.00170258
-0.00195094
-0.00221945
-0.00250813
-0.0028165
-0.00314362
-0.00348805
-0.00384789
-0.00422074
-0.00460376
-0.00499365
-0.00538672
-0.00577889
-0.0061658
-0.0065428
-0.00690508
-0.00724775
-0.0075659
-0.00785472
-0.00810962
-0.00832631
-0.00850093
-0.00863014
-0.00871125
-0.00874232
-0.00872224
-0.00865079
-0.00852876
-0.00835795
-0.00814122
-0.00788246
-0.00758661
-0.00725955
-0.00690805
-0.00653962
-0.00616236
-0.00578479
-0.00541557
-0.00506334
-0.0047364
-0.00444244
-0.00418834
-0.00397988
-0.00382154
-0.00371633
-0.00366573
-0.00366959
-0.0037262
-0.00383239
-0.00398371
-0.00417465
-0.00439888
-0.00464958
-0.00491971
-0.00520223
-0.00549041
-0.0057779
-0.00605892
-0.00632824
-0.00658129
-0.00681401
-0.00702232
-0.00720241
-0.00735761
-0.00749386
0.00124236
0.000814299
0.000496622
0.000248795
3.14808e-05
-0.000161618
-0.000336569
-0.000501103
-0.000662115
-0.000825482
-0.000996243
-0.00117865
-0.00137623
-0.00159183
-0.00182765
-0.00208533
-0.00236596
-0.00267009
-0.00299775
-0.00334846
-0.0037212
-0.00411444
-0.00452614
-0.0049537
-0.00539404
-0.00584358
-0.00629828
-0.00675368
-0.00720494
-0.00764694
-0.00807432
-0.00848158
-0.00886317
-0.0092136
-0.00952756
-0.00980001
-0.0100263
-0.0102024
-0.0103248
-0.0103907
-0.0103984
-0.010347
-0.0102365
-0.0100684
-0.00984489
-0.00956972
-0.00924761
-0.00888444
-0.00848719
-0.00806375
-0.00762285
-0.0071738
-0.00672634
-0.00629034
-0.00587554
-0.00549124
-0.005146
-0.00484737
-0.00460157
-0.00441334
-0.00428567
-0.00421981
-0.00421514
-0.00426932
-0.00437838
-0.00453697
-0.00473861
-0.00497603
-0.00524146
-0.00552698
-0.00582477
-0.00612738
-0.00642785
-0.00671984
-0.0069977
-0.00725643
-0.00749101
-0.00769674
-0.00787805
-0.00804238
0.0010411
0.000591856
0.000259476
8.55238e-07
-0.00022592
-0.000427957
-0.000612055
-0.000786684
-0.00095936
-0.00113646
-0.00132344
-0.00152488
-0.00174455
-0.0019855
-0.00225011
-0.00254014
-0.00285675
-0.00320055
-0.0035716
-0.00396939
-0.00439285
-0.00484036
-0.0053097
-0.00579812
-0.00630226
-0.00681826
-0.0073417
-0.00786772
-0.00839101
-0.0089059
-0.00940645
-0.00988652
-0.0103399
-0.0107603
-0.0111416
-0.011478
-0.011764
-0.0119947
-0.0121657
-0.0122735
-0.0123153
-0.0122895
-0.0121956
-0.0120341
-0.0118068
-0.0115171
-0.0111693
-0.0107692
-0.010324
-0.00984172
-0.00933176
-0.00880421
-0.00826985
-0.00773986
-0.0072255
-0.00673782
-0.00628728
-0.00588343
-0.00553457
-0.00524743
-0.00502692
-0.00487598
-0.00479547
-0.00478415
-0.00483881
-0.00495444
-0.00512455
-0.00534144
-0.00559661
-0.00588115
-0.00618604
-0.0065025
-0.00682222
-0.00713748
-0.00744137
-0.00772774
-0.0079904
-0.00822367
-0.00843302
-0.00862746
0.000777955
0.000309611
-3.611e-05
-0.000304714
-0.000540523
-0.000751456
-0.000945044
-0.00113048
-0.0013159
-0.00150817
-0.00171313
-0.0019357
-0.0021799
-0.00244899
-0.0027455
-0.00307132
-0.00342772
-0.00381535
-0.0042343
-0.00468404
-0.00516347
-0.00567084
-0.00620382
-0.00675943
-0.00733409
-0.00792359
-0.00852316
-0.00912749
-0.00973078
-0.0103268
-0.010909
-0.0114705
-0.0120043
-0.0125034
-0.0129609
-0.01337
-0.0137244
-0.014018
-0.0142457
-0.0144029
-0.014486
-0.0144924
-0.0144208
-0.0142708
-0.0140438
-0.0137424
-0.0133706
-0.012934
-0.0124396
-0.0118958
-0.0113124
-0.0107002
-0.010071
-0.00943733
-0.00881197
-0.00820787
-0.00763755
-0.00711281
-0.0066443
-0.0062411
-0.00591042
-0.00565731
-0.00548446
-0.00539214
-0.00537822
-0.0054383
-0.00556604
-0.00575345
-0.0059913
-0.00626961
-0.00657803
-0.00690626
-0.00724439
-0.00758311
-0.00791399
-0.00822948
-0.00852204
-0.00878479
-0.00902428
-0.00925112
0.00044909
-3.60498e-05
-0.000393623
-0.000671337
-0.000915727
-0.00113551
-0.00133895
-0.00153595
-0.00173522
-0.00194412
-0.00216888
-0.00241472
-0.00268592
-0.00298596
-0.00331752
-0.00368264
-0.00408266
-0.00451833
-0.00498974
-0.00549639
-0.0060371
-0.00661004
-0.00721273
-0.007842
-0.00849399
-0.00916418
-0.00984742
-0.0105379
-0.0112294
-0.0119149
-0.0125874
-0.0132391
-0.0138624
-0.0144494
-0.0149921
-0.015483
-0.0159145
-0.0162799
-0.0165728
-0.0167876
-0.0169197
-0.0169656
-0.0169228
-0.0167904
-0.0165687
-0.0162596
-0.0158667
-0.0153952
-0.0148519
-0.0142452
-0.0135853
-0.0128836
-0.0121528
-0.0114067
-0.0106597
-0.00992659
-0.00922218
-0.00856068
-0.00795537
-0.00741805
-0.0069586
-0.00658463
-0.00630112
-0.0061103
-0.0060115
-0.00600133
-0.00607385
-0.00622091
-0.00643268
-0.00669803
-0.00700518
-0.00734213
-0.00769711
-0.00805896
-0.00841745
-0.00876338
-0.00908761
-0.00938183
-0.00965369
-0.00991552
5.11608e-05
-0.000448256
-0.000816073
-0.00110197
-0.00135446
-0.00158306
-0.00179673
-0.00200604
-0.0022203
-0.00244731
-0.00269369
-0.00296496
-0.00326566
-0.00359946
-0.00396923
-0.00437713
-0.00482463
-0.00531253
-0.00584098
-0.00640946
-0.00701677
-0.00766098
-0.00833946
-0.00904884
-0.009785
-0.0105431
-0.0113175
-0.012102
-0.0128898
-0.0136733
-0.0144447
-0.0151956
-0.0159173
-0.0166011
-0.0172382
-0.01782
-0.0183379
-0.0187839
-0.0191507
-0.0194317
-0.0196211
-0.0197142
-0.0197076
-0.0195994
-0.0193889
-0.0190774
-0.0186676
-0.0181642
-0.0175737
-0.0169045
-0.0161667
-0.0153723
-0.0145348
-0.0136691
-0.012791
-0.0119175
-0.0110654
-0.0102517
-0.00949244
-0.00880247
-0.00819477
-0.00767997
-0.00726587
-0.00695714
-0.00675512
-0.00665782
-0.00666008
-0.00675389
-0.0069289
-0.00717291
-0.0074726
-0.00781408
-0.00818349
-0.00856751
-0.00895381
-0.00933127
-0.00968884
-0.0100166
-0.0103232
-0.0106229
-0.000418607
-0.000929587
-0.00130593
-0.00159903
-0.00185912
-0.00209648
-0.00232075
-0.00254316
-0.00277353
-0.00302014
-0.00328995
-0.00358879
-0.00392145
-0.0042918
-0.00470289
-0.00515702
-0.00565578
-0.00620004
-0.00679001
-0.00742518
-0.00810431
-0.00882538
-0.00958562
-0.0103814
-0.0112085
-0.0120615
-0.0129345
-0.0138207
-0.0147127
-0.0156024
-0.0164811
-0.0173397
-0.0181686
-0.0189582
-0.0196986
-0.0203802
-0.0209933
-0.0215289
-0.0219784
-0.0223341
-0.022589
-0.0227375
-0.0227749
-0.0226982
-0.0225059
-0.0221981
-0.0217769
-0.0212462
-0.0206119
-0.0198823
-0.0190672
-0.018179
-0.0172317
-0.0162412
-0.0152247
-0.014201
-0.0131891
-0.0122088
-0.0112791
-0.0104181
-0.00964236
-0.00896597
-0.00840007
-0.00795238
-0.00762683
-0.00742339
-0.00733816
-0.00736364
-0.00748916
-0.0077016
-0.00798604
-0.00832655
-0.00870694
-0.00911143
-0.00952527
-0.00993504
-0.0103275
-0.0106908
-0.0110347
-0.0113753
-0.000962353
-0.00148201
-0.00186507
-0.00216432
-0.00243148
-0.00267753
-0.00291277
-0.00314903
-0.00339665
-0.00366431
-0.00395934
-0.00428785
-0.00465486
-0.00506447
-0.0055199
-0.00602359
-0.00657726
-0.00718187
-0.0078377
-0.00854423
-0.00930019
-0.0101035
-0.0109512
-0.0118395
-0.0127638
-0.0137184
-0.014697
-0.0156923
-0.0166961
-0.0176998
-0.0186938
-0.0196681
-0.0206125
-0.0215162
-0.0223683
-0.023158
-0.0238748
-0.0245084
-0.025049
-0.0254878
-0.0258166
-0.0260286
-0.026118
-0.0260806
-0.0259139
-0.0256169
-0.0251909
-0.0246387
-0.0239659
-0.0231797
-0.0222902
-0.0213094
-0.0202518
-0.0191338
-0.0179741
-0.0167928
-0.0156112
-0.0144517
-0.0133364
-0.0122871
-0.0113239
-0.010465
-0.00972533
-0.00911641
-0.00864536
-0.0083148
-0.00812268
-0.00806248
-0.00812365
-0.00829227
-0.0085519
-0.00888446
-0.00927122
-0.0096936
-0.0101341
-0.0105766
-0.0110053
-0.0114062
-0.01179
-0.012175
-0.00158152
-0.00210681
-0.00249468
-0.00279901
-0.00307267
-0.00332731
-0.00357386
-0.0038247
-0.00409065
-0.00438078
-0.00470273
-0.00506291
-0.00546658
-0.00591802
-0.00642065
-0.00697707
-0.00758911
-0.00825784
-0.00898359
-0.00976588
-0.0106034
-0.011494
-0.0124345
-0.013421
-0.0144484
-0.0155109
-0.0166015
-0.0177125
-0.018835
-0.0199597
-0.0210762
-0.0221738
-0.023241
-0.0242662
-0.0252376
-0.0261432
-0.0269713
-0.0277105
-0.02835
-0.0288796
-0.0292901
-0.0295734
-0.0297226
-0.0297325
-0.0295993
-0.0293209
-0.0288975
-0.0283312
-0.0276264
-0.0267899
-0.0258309
-0.0247613
-0.0235956
-0.0223506
-0.0210457
-0.0197025
-0.0183442
-0.0169956
-0.015682
-0.0144286
-0.0132598
-0.012198
-0.0112627
-0.0104696
-0.00982984
-0.0093495
-0.00902908
-0.0088637
-0.0088434
-0.00895385
-0.00917718
-0.00949319
-0.00988036
-0.010317
-0.0107825
-0.0112578
-0.0117239
-0.0121642
-0.0125908
-0.0130237
-0.00227681
-0.00280457
-0.00319526
-0.00350355
-0.0037831
-0.00404621
-0.00430436
-0.00457046
-0.00485575
-0.00516967
-0.00552016
-0.00591388
-0.00635634
-0.00685202
-0.00740451
-0.00801657
-0.00869017
-0.00942648
-0.0102259
-0.0110879
-0.0120113
-0.0129937
-0.0140318
-0.0151215
-0.0162575
-0.0174333
-0.0186417
-0.0198742
-0.0211215
-0.0223733
-0.0236186
-0.0248456
-0.0260421
-0.0271953
-0.0282924
-0.0293203
-0.0302662
-0.0311177
-0.0318627
-0.03249
-0.0329892
-0.033351
-0.0335676
-0.0336324
-0.0335405
-0.0332888
-0.0328764
-0.0323042
-0.0315756
-0.0306964
-0.0296753
-0.0285233
-0.0272546
-0.0258862
-0.0244378
-0.022932
-0.0213936
-0.0198494
-0.0183278
-0.0168576
-0.0154672
-0.0141837
-0.0130315
-0.0120313
-0.0111991
-0.0105451
-0.0100733
-0.00978119
-0.00966016
-0.00969589
-0.00986944
-0.0101585
-0.0105386
-0.0109848
-0.0114729
-0.0119803
-0.0124846
-0.0129662
-0.0134382
-0.0139229
-0.00304812
-0.00357511
-0.00396658
-0.00427765
-0.00456244
-0.00483383
-0.00510383
-0.00538579
-0.00569134
-0.00603024
-0.00641073
-0.00683971
-0.00732289
-0.00786497
-0.00846971
-0.00914002
-0.00987801
-0.010685
-0.0115613
-0.0125066
-0.0135195
-0.0145977
-0.0157376
-0.0169349
-0.0181838
-0.0194777
-0.0208086
-0.0221676
-0.0235445
-0.0249285
-0.0263075
-0.027669
-0.0289997
-0.030286
-0.0315138
-0.0326691
-0.033738
-0.0347069
-0.0355629
-0.0362934
-0.0368872
-0.0373338
-0.0376243
-0.0377511
-0.0377081
-0.0374913
-0.0370983
-0.0365292
-0.0357861
-0.0348738
-0.0337997
-0.0325743
-0.0312109
-0.029726
-0.0281395
-0.0264743
-0.0247564
-0.0230144
-0.0212792
-0.0195829
-0.0179581
-0.0164366
-0.0150482
-0.0138191
-0.0127708
-0.0119187
-0.0112712
-0.0108292
-0.0105861
-0.0105284
-0.0106366
-0.0108864
-0.0112504
-0.0117001
-0.0122074
-0.0127456
-0.0132886
-0.0138132
-0.0143334
-0.0148739
-0.00389456
-0.00441745
-0.00480762
-0.00512025
-0.00540958
-0.00568902
-0.00597102
-0.00626935
-0.00659595
-0.00696088
-0.00737264
-0.00783835
-0.00836394
-0.00895428
-0.00961331
-0.0103441
-0.0111489
-0.0120291
-0.0129851
-0.0140166
-0.0151222
-0.0162993
-0.0175444
-0.0188526
-0.0202181
-0.0216336
-0.0230907
-0.0245798
-0.0260901
-0.0276098
-0.0291262
-0.0306257
-0.0320941
-0.0335168
-0.0348787
-0.0361648
-0.0373601
-0.0384502
-0.0394208
-0.0402587
-0.0409515
-0.0414878
-0.0418578
-0.0420527
-0.0420656
-0.0418912
-0.0415263
-0.0409695
-0.0402219
-0.0392871
-0.0381712
-0.0368834
-0.0354362
-0.0338452
-0.0321297
-0.0303126
-0.0284205
-0.0264831
-0.0245333
-0.0226063
-0.0207384
-0.0189663
-0.0173252
-0.0158473
-0.0145605
-0.0134861
-0.012638
-0.0120215
-0.0116335
-0.0114618
-0.0114869
-0.0116831
-0.0120203
-0.012466
-0.0129879
-0.013555
-0.0141366
-0.0147056
-0.0152768
-0.0158771
-0.00481437
-0.00532984
-0.00571659
-0.00602953
-0.00632266
-0.00660982
-0.00690389
-0.00721894
-0.00756722
-0.00795904
-0.00840312
-0.00890678
-0.00947614
-0.0101163
-0.0108312
-0.0116243
-0.0124978
-0.0134532
-0.014491
-0.0156109
-0.0168114
-0.0180899
-0.0194425
-0.0208643
-0.0223488
-0.0238884
-0.025474
-0.0270955
-0.0287414
-0.030399
-0.0320547
-0.0336941
-0.035302
-0.0368627
-0.0383603
-0.0397787
-0.0411021
-0.042315
-0.0434023
-0.0443499
-0.0451445
-0.045774
-0.0462274
-0.0464954
-0.0465701
-0.0464451
-0.0461162
-0.045581
-0.0448392
-0.0438932
-0.0427478
-0.0414107
-0.0398931
-0.0382092
-0.0363775
-0.0344202
-0.0323636
-0.0302382
-0.0280782
-0.0259209
-0.0238064
-0.0217756
-0.0198692
-0.018126
-0.0165804
-0.0152607
-0.0141873
-0.0133715
-0.0128141
-0.012506
-0.0124285
-0.0125549
-0.0128526
-0.0132854
-0.0138163
-0.0144094
-0.015029
-0.0156434
-0.0162682
-0.0169326
-0.005805
-0.00630973