/*--------------------------------*- C++ -*----------------------------------*\
  =========                 |
  \\      /  F ield         | OpenFOAM: The Open Source CFD Toolbox
   \\    /   O peration     | Website:  https://openfoam.org
    \\  /    A nd           | Version:  7
     \\/     M anipulation  |
\*---------------------------------------------------------------------------*/
FoamFile
{
    version     2.0;
    format      ascii;
    class       surfaceScalarField;
    location    "1.85";
    object      phi;
}
// * * * * * * * * * * * * * * * * * * * * * * * * * * * * * * * * * * * * * //

dimensions      [0 3 -1 0 0 0 0];

internalField   nonuniform List<scalar> 
12640
(
3.17723e-10
-3.09946e-10
9.35632e-10
-6.17952e-10
1.51199e-09
-5.76303e-10
1.84401e-09
-3.32033e-10
1.83796e-09
6.11245e-12
1.46363e-09
3.74323e-10
7.2335e-10
7.40223e-10
-3.6119e-10
1.08454e-09
-1.7603e-09
1.39914e-09
-3.44192e-09
1.68162e-09
-5.3749e-09
1.93299e-09
-7.53104e-09
2.15615e-09
-9.88584e-09
2.35479e-09
-1.24186e-08
2.53272e-09
-1.5112e-08
2.69347e-09
-1.7952e-08
2.83999e-09
-2.09264e-08
2.97446e-09
-2.40247e-08
3.09822e-09
-2.72365e-08
3.21183e-09
-3.05516e-08
3.31507e-09
-3.39586e-08
3.40703e-09
-3.74447e-08
3.48616e-09
-4.09952e-08
3.55044e-09
-4.45927e-08
3.59747e-09
-4.82172e-08
3.62456e-09
-5.18461e-08
3.62886e-09
-5.54536e-08
3.60749e-09
-5.90112e-08
3.55759e-09
-6.24876e-08
3.47644e-09
-6.58492e-08
3.36157e-09
-6.906e-08
3.21082e-09
-7.20825e-08
3.02249e-09
-7.48778e-08
2.79533e-09
-7.74066e-08
2.52871e-09
-7.96292e-08
2.22265e-09
-8.15071e-08
1.87792e-09
-8.30032e-08
1.49607e-09
-8.40827e-08
1.0795e-09
-8.47142e-08
6.31499e-10
-8.48705e-08
1.5625e-10
-8.45292e-08
-3.41302e-10
-8.3674e-08
-8.55188e-10
-8.22952e-08
-1.37879e-09
-8.03904e-08
-1.90477e-09
-7.79652e-08
-2.42522e-09
-7.50334e-08
-2.93183e-09
-7.16173e-08
-3.41604e-09
-6.77481e-08
-3.86923e-09
-6.34651e-08
-4.28296e-09
-5.8816e-08
-4.64918e-09
-5.38555e-08
-4.96046e-09
-4.86453e-08
-5.21023e-09
-4.32523e-08
-5.39295e-09
-3.77479e-08
-5.50437e-09
-3.22064e-08
-5.5416e-09
-2.67031e-08
-5.50327e-09
-2.13135e-08
-5.38964e-09
-1.61109e-08
-5.20254e-09
-1.11655e-08
-4.9454e-09
-6.54237e-09
-4.62314e-09
-2.30034e-09
-4.24202e-09
1.50918e-09
-3.80951e-09
4.84326e-09
-3.33408e-09
7.66814e-09
-2.82488e-09
9.95985e-09
-2.29171e-09
1.17045e-08
-1.74469e-09
1.28987e-08
-1.19416e-09
1.35493e-08
-6.50604e-10
1.3674e-08
-1.24667e-10
1.33013e-08
3.7268e-10
1.24715e-08
8.29792e-10
1.12377e-08
1.23379e-09
9.66801e-09
1.5697e-09
7.84882e-09
1.81919e-09
5.88989e-09
1.95893e-09
3.93093e-09
1.95897e-09
2.14838e-09
1.78255e-09
7.61463e-10
1.38692e-09
2.00297e-11
7.41432e-10
2.00309e-11
6.28303e-10
-9.38286e-10
1.55499e-09
-1.54457e-09
2.21718e-09
-1.23865e-09
2.26416e-09
-3.78973e-10
1.49668e-09
7.73614e-10
-1.7482e-10
2.04583e-09
-2.76372e-09
3.32916e-09
-6.23917e-09
4.56e-09
-1.05445e-08
5.70442e-09
-1.56115e-08
6.74855e-09
-2.13693e-08
7.69087e-09
-2.77502e-08
8.53711e-09
-3.46923e-08
9.2968e-09
-4.21403e-08
9.98077e-09
-5.00463e-08
1.05994e-08
-5.83678e-08
1.11615e-08
-6.70669e-08
1.16736e-08
-7.61086e-08
1.21398e-08
-8.54582e-08
1.25614e-08
-9.50803e-08
1.29373e-08
-1.04937e-07
1.32637e-08
-1.14986e-07
1.35351e-08
-1.2518e-07
1.37444e-08
-1.35465e-07
1.38827e-08
-1.45781e-07
1.39409e-08
-1.56061e-07
1.39088e-08
-1.6623e-07
1.37765e-08
-1.76207e-07
1.35342e-08
-1.85903e-07
1.31727e-08
-1.95226e-07
1.26839e-08
-2.04076e-07
1.20608e-08
-2.12351e-07
1.12983e-08
-2.19949e-07
1.0393e-08
-2.26764e-07
9.34385e-09
-2.32694e-07
8.15208e-09
-2.37637e-07
6.82172e-09
-2.41501e-07
5.35964e-09
-2.44197e-07
3.77569e-09
-2.45648e-07
2.08275e-09
-2.45789e-07
2.96885e-10
-2.44567e-07
-1.56327e-09
-2.41947e-07
-3.47572e-09
-2.37909e-07
-5.41622e-09
-2.32456e-07
-7.35826e-09
-2.25607e-07
-9.27355e-09
-2.17407e-07
-1.11325e-08
-2.07918e-07
-1.2905e-08
-1.97226e-07
-1.45607e-08
-1.85439e-07
-1.60702e-08
-1.72683e-07
-1.74055e-08
-1.59102e-07
-1.8541e-08
-1.44859e-07
-1.94537e-08
-1.30127e-07
-2.01247e-08
-1.15092e-07
-2.05391e-08
-9.99469e-08
-2.06871e-08
-8.48863e-08
-2.05638e-08
-7.01059e-08
-2.01701e-08
-5.57964e-08
-1.95121e-08
-4.21403e-08
-1.86015e-08
-2.93082e-08
-1.74553e-08
-1.7455e-08
-1.60952e-08
-6.71746e-09
-1.45471e-08
2.78916e-09
-1.28407e-08
1.09729e-08
-1.10086e-08
1.77669e-08
-9.0857e-09
2.31308e-08
-7.10857e-09
2.70516e-08
-5.11502e-09
2.95448e-08
-3.14383e-09
3.0655e-08
-1.23483e-09
3.0457e-08
5.70687e-10
2.90576e-08
2.22918e-09
2.65983e-08
3.69311e-09
2.32588e-08
4.90921e-09
1.92621e-08
5.81584e-09
1.48806e-08
6.34045e-09
1.04407e-08
6.3988e-09
6.32358e-09
5.89968e-09
2.9511e-09
4.7594e-09
7.38345e-10
2.95419e-09
7.58378e-10
5.92574e-10
-1.5308e-09
1.25262e-09
-2.20463e-09
1.33262e-09
-1.31859e-09
4.30017e-10
5.2358e-10
-1.694e-09
2.89751e-09
-5.1535e-09
5.50539e-09
-9.9728e-09
8.14854e-09
-1.61166e-08
1.07038e-08
-2.35138e-08
1.31016e-08
-3.20744e-08
1.53091e-08
-4.17016e-08
1.73181e-08
-5.22997e-08
1.91352e-08
-6.37784e-08
2.07755e-08
-7.60549e-08
2.22573e-08
-8.90542e-08
2.35987e-08
-1.02708e-07
2.48154e-08
-1.16953e-07
2.59189e-08
-1.31729e-07
2.69158e-08
-1.46976e-07
2.78078e-08
-1.6263e-07
2.85915e-08
-1.78625e-07
2.92589e-08
-1.94888e-07
2.97979e-08
-2.11337e-07
3.01932e-08
-2.27881e-07
3.04273e-08
-2.44421e-07
3.04806e-08
-2.60845e-07
3.0333e-08
-2.77033e-07
2.99642e-08
-2.92854e-07
2.93549e-08
-3.08168e-07
2.84869e-08
-3.22829e-07
2.73447e-08
-3.36683e-07
2.59155e-08
-3.49575e-07
2.41899e-08
-3.61345e-07
2.21629e-08
-3.71835e-07
1.98342e-08
-3.80892e-07
1.72085e-08
-3.88366e-07
1.42962e-08
-3.9412e-07
1.11135e-08
-3.98027e-07
7.68281e-09
-3.99977e-07
4.03265e-09
-3.99878e-07
1.9792e-10
-3.9766e-07
-3.78171e-09
-3.93276e-07
-7.85942e-09
-3.86708e-07
-1.19846e-08
-3.77964e-07
-1.6102e-08
-3.67084e-07
-2.01532e-08
-3.54139e-07
-2.40776e-08
-3.39231e-07
-2.78134e-08
-3.22492e-07
-3.12991e-08
-3.04087e-07
-3.4475e-08
-2.84208e-07
-3.72845e-08
-2.63074e-07
-3.96756e-08
-2.40925e-07
-4.16024e-08
-2.18023e-07
-4.30264e-08
-1.94645e-07
-4.39179e-08
-1.71075e-07
-4.42565e-08
-1.47606e-07
-4.40325e-08
-1.2453e-07
-4.3247e-08
-1.0213e-07
-4.19121e-08
-8.06799e-08
-4.00511e-08
-6.04374e-08
-3.76978e-08
-4.16367e-08
-3.48958e-08
-2.44861e-08
-3.16977e-08
-9.16304e-09
-2.81637e-08
4.18903e-09
-2.43607e-08
1.54639e-08
-2.03606e-08
2.45947e-08
-1.62394e-08
3.15561e-08
-1.20764e-08
3.63656e-08
-7.95337e-09
3.90855e-08
-3.95466e-09
3.98241e-08
-1.67949e-10
3.87382e-08
3.3151e-09
3.60357e-08
6.39557e-09
3.19792e-08
8.96569e-09
2.68897e-08
1.09053e-08
2.11502e-08
1.208e-08
1.52065e-08
1.23425e-08
9.56306e-09
1.15431e-08
4.76767e-09
9.5548e-09
1.38458e-09
6.33728e-09
2.14296e-09
3.393e-10
-1.8702e-09
3.34873e-10
-2.20009e-09
-6.45774e-10
-3.37873e-10
-2.99796e-09
2.87577e-09
-6.95568e-09
6.8552e-09
-1.26287e-08
1.11784e-08
-2.00357e-08
1.55556e-08
-2.91328e-08
1.98008e-08
-3.98359e-08
2.38047e-08
-5.20389e-08
2.75122e-08
-6.56262e-08
3.09054e-08
-8.04812e-08
3.39902e-08
-9.64917e-08
3.6786e-08
-1.13553e-07
3.93182e-08
-1.31566e-07
4.16122e-08
-1.50441e-07
4.369e-08
-1.70089e-07
4.55674e-08
-1.90426e-07
4.72529e-08
-2.11366e-07
4.87471e-08
-2.32817e-07
5.00427e-08
-2.54683e-07
5.11255e-08
-2.7686e-07
5.19747e-08
-2.99232e-07
5.25647e-08
-3.2167e-07
5.28661e-08
-3.44037e-07
5.28471e-08
-3.66179e-07
5.2475e-08
-3.87932e-07
5.17173e-08
-4.0912e-07
5.0543e-08
-4.29557e-07
4.89243e-08
-4.4905e-07
4.6837e-08
-4.67397e-07
4.42624e-08
-4.84394e-07
4.11877e-08
-4.99839e-07
3.76075e-08
-5.13529e-07
3.35239e-08
-5.25268e-07
2.89481e-08
-5.34872e-07
2.39002e-08
-5.42169e-07
1.84101e-08
-5.47004e-07
1.25175e-08
-5.49243e-07
6.27197e-09
-5.48778e-07
-2.66612e-10
-5.45529e-07
-7.03091e-09
-5.39446e-07
-1.39426e-08
-5.30513e-07
-2.09173e-08
-5.18751e-07
-2.78638e-08
-5.04219e-07
-3.46862e-08
-4.87011e-07
-4.12851e-08
-4.67265e-07
-4.75598e-08
-4.45153e-07
-5.34107e-08
-4.20887e-07
-5.87408e-08
-3.94713e-07
-6.34587e-08
-3.66908e-07
-6.74803e-08
-3.37779e-07
-7.07316e-08
-3.07655e-07
-7.31502e-08
-2.76886e-07
-7.46876e-08
-2.45832e-07
-7.53108e-08
-2.14861e-07
-7.50031e-08
-1.84342e-07
-7.37657e-08
-1.54637e-07
-7.16172e-08
-1.26094e-07
-6.85943e-08
-9.9041e-08
-6.47507e-08
-7.37804e-08
-6.01564e-08
-5.0582e-08
-5.48961e-08
-2.96782e-08
-4.90675e-08
-1.12591e-08
-4.27798e-08
4.53155e-09
-3.61512e-08
1.75995e-08
-2.93074e-08
2.79032e-08
-2.23801e-08
3.54558e-08
-1.5506e-08
4.03276e-08
-8.82645e-09
4.26477e-08
-2.488e-09
4.26064e-08
3.35633e-09
4.04575e-08
8.5445e-09
3.65204e-08
1.29028e-08
3.11825e-08
1.62432e-08
2.49006e-08
1.83619e-08
1.81999e-08
1.90432e-08
1.16711e-08
1.80719e-08
5.96482e-09
1.52611e-08
1.79331e-09
1.05088e-08
3.93627e-09
-3.81394e-11
-1.83204e-09
-9.84008e-10
-1.25428e-09
-3.38232e-09
2.06039e-09
-7.57346e-09
7.06695e-09
-1.37517e-08
1.30335e-08
-2.19987e-08
1.94253e-08
-3.23119e-08
2.58688e-08
-4.46298e-08
3.21188e-08
-5.88527e-08
3.80276e-08
-7.48586e-08
4.35181e-08
-9.25159e-08
4.85626e-08
-1.11691e-07
5.31655e-08
-1.32255e-07
5.73497e-08
-1.54083e-07
6.11465e-08
-1.77059e-07
6.45878e-08
-2.01069e-07
6.77005e-08
-2.26006e-07
7.05037e-08
-2.51759e-07
7.30062e-08
-2.78217e-07
7.52055e-08
-3.05264e-07
7.70889e-08
-3.32772e-07
7.86334e-08
-3.60604e-07
7.98076e-08
-3.88613e-07
8.05735e-08
-4.16635e-07
8.08878e-08
-4.44492e-07
8.07045e-08
-4.71994e-07
7.99767e-08
-4.98935e-07
7.86582e-08
-5.25098e-07
7.6706e-08
-5.50255e-07
7.40815e-08
-5.74171e-07
7.07526e-08
-5.96604e-07
6.66952e-08
-6.1731e-07
6.18943e-08
-6.36049e-07
5.63458e-08
-6.52582e-07
5.00571e-08
-6.66682e-07
4.30485e-08
-6.78136e-07
3.53536e-08
-6.86746e-07
2.70199e-08
-6.92337e-07
1.81088e-08
-6.94761e-07
8.69608e-09
-6.93899e-07
-1.12906e-09
-6.89664e-07
-1.12652e-08
-6.82009e-07
-2.15979e-08
-6.70923e-07
-3.20032e-08
-6.56439e-07
-4.23483e-08
-6.38631e-07
-5.24939e-08
-6.17619e-07
-6.22967e-08
-5.93567e-07
-7.16119e-08
-5.66682e-07
-8.02961e-08
-5.37212e-07
-8.82104e-08
-5.05447e-07
-9.52238e-08
-4.71712e-07
-1.01216e-07
-4.36363e-07
-1.0608e-07
-3.99787e-07
-1.09727e-07
-3.62388e-07
-1.12086e-07
-3.2459e-07
-1.13109e-07
-2.86821e-07
-1.12771e-07
-2.49515e-07
-1.11072e-07
-2.13095e-07
-1.08037e-07
-1.77974e-07
-1.03716e-07
-1.4454e-07
-9.81846e-08
-1.13154e-07
-9.1542e-08
-8.41416e-08
-8.39087e-08
-5.77843e-08
-7.54248e-08
-3.43166e-08
-6.62475e-08
-1.39194e-08
-5.65484e-08
3.28387e-09
-4.65107e-08
1.72313e-08
-3.63275e-08
2.7925e-08
-2.61997e-08
3.54344e-08
-1.63358e-08
3.98977e-08
-6.95127e-09
4.15242e-08
1.7298e-09
4.0596e-08
9.4727e-09
3.74692e-08
1.60297e-08
3.25749e-08
2.11375e-08
2.64196e-08
2.45172e-08
1.95848e-08
2.58779e-08
1.27279e-08
2.49288e-08
6.58698e-09
2.14021e-08
2.00155e-09
1.50942e-08
5.93782e-09
-4.86845e-10
-1.34516e-09
-2.56467e-09
8.23438e-10
-6.64339e-09
6.13912e-09
-1.2973e-08
1.33966e-08
-2.16814e-08
2.17419e-08
-3.28014e-08
3.05453e-08
-4.62946e-08
3.93619e-08
-6.20722e-08
4.78964e-08
-8.00131e-08
5.59686e-08
-9.99778e-08
6.34828e-08
-1.21819e-07
7.04034e-08
-1.45387e-07
7.67339e-08
-1.70538e-07
8.25008e-08
-1.97132e-07
8.77406e-08
-2.25035e-07
9.24905e-08
-2.54116e-07
9.67813e-08
-2.84245e-07
1.00633e-07
-3.15292e-07
1.04053e-07
-3.47121e-07
1.07035e-07
-3.79589e-07
1.09556e-07
-4.1254e-07
1.11585e-07
-4.45808e-07
1.13076e-07
-4.79211e-07
1.13977e-07
-5.12552e-07
1.14229e-07
-5.4562e-07
1.13772e-07
-5.78184e-07
1.12542e-07
-6.10005e-07
1.10479e-07
-6.40827e-07
1.07528e-07
-6.70385e-07
1.0364e-07
-6.98407e-07
9.87749e-08
-7.24617e-07
9.29054e-08
-7.48739e-07
8.60158e-08
-7.70499e-07
7.81055e-08
-7.89631e-07
6.91897e-08
-8.05884e-07
5.9301e-08
-8.1902e-07
4.84898e-08
-8.28825e-07
3.68246e-08
-8.35109e-07
2.43928e-08
-8.37713e-07
1.12999e-08
-8.36511e-07
-2.33104e-09
-8.31415e-07
-1.63608e-08
-8.22379e-07
-3.06343e-08
-8.09398e-07
-4.4984e-08
-7.92515e-07
-5.92314e-08
-7.71819e-07
-7.319e-08
-7.47447e-07
-8.66683e-08
-7.19586e-07
-9.94734e-08
-6.88467e-07
-1.11415e-07
-6.5437e-07
-1.22307e-07
-6.17618e-07
-1.31977e-07
-5.7857e-07
-1.40263e-07
-5.37626e-07
-1.47024e-07
-4.95214e-07
-1.52139e-07
-4.51785e-07
-1.55514e-07
-4.07812e-07
-1.57082e-07
-3.63776e-07
-1.56808e-07
-3.20161e-07
-1.54687e-07
-2.77446e-07
-1.50751e-07
-2.36098e-07
-1.45064e-07
-1.9656e-07
-1.37722e-07
-1.59246e-07
-1.28856e-07
-1.24532e-07
-1.18623e-07
-9.27473e-08
-1.0721e-07
-6.41695e-08
-9.48253e-08
-3.90179e-08
-8.17001e-08
-1.74476e-08
-6.8081e-08
4.54274e-10
-5.42294e-08
1.46728e-08
-4.04183e-08
2.5268e-08
-2.69309e-08
3.23769e-08
-1.40602e-08
3.6216e-08
-2.10933e-09
3.70819e-08
8.60685e-09
3.5352e-08
1.77595e-08
3.14854e-08
2.50041e-08
2.60224e-08
2.99802e-08
1.95861e-08
3.23142e-08
1.28865e-08
3.16284e-08
6.73185e-09
2.75568e-08
2.05641e-09
1.97697e-08
7.99424e-09
-9.80516e-10
-3.64625e-10
-4.31875e-09
4.16171e-09
-1.02685e-08
1.20889e-08
-1.8964e-08
2.20921e-08
-3.04459e-08
3.32237e-08
-4.4681e-08
4.47805e-08
-6.15818e-08
5.62628e-08
-8.1023e-08
6.73377e-08
-1.02856e-07
7.78014e-08
-1.2692e-07
8.75463e-08
-1.53049e-07
9.65327e-08
-1.8108e-07
1.04766e-07
-2.10855e-07
1.12276e-07
-2.4222e-07
1.19105e-07
-2.75024e-07
1.25295e-07
-3.09121e-07
1.30878e-07
-3.44363e-07
1.35875e-07
-3.80599e-07
1.40289e-07
-4.1767e-07
1.44106e-07
-4.55408e-07
1.47294e-07
-4.93632e-07
1.49808e-07
-5.32146e-07
1.51589e-07
-5.70738e-07
1.52568e-07
-6.09179e-07
1.5267e-07
-6.47224e-07
1.51817e-07
-6.84612e-07
1.49929e-07
-7.21067e-07
1.46934e-07
-7.56302e-07
1.42762e-07
-7.90019e-07
1.37357e-07
-8.21915e-07
1.30671e-07
-8.51684e-07
1.22675e-07
-8.79022e-07
1.13354e-07
-9.03631e-07
1.02714e-07
-9.25222e-07
9.0781e-08
-9.43523e-07
7.76019e-08
-9.5828e-07
6.3247e-08
-9.69265e-07
4.78092e-08
-9.76276e-07
3.14046e-08
-9.79148e-07
1.41715e-08
-9.77749e-07
-3.72989e-09
-9.7199e-07
-2.21197e-08
-9.61825e-07
-4.07994e-08
-9.47254e-07
-5.95548e-08
-9.28327e-07
-7.8159e-08
-9.05141e-07
-9.63752e-08
-8.77848e-07
-1.13961e-07
-8.46649e-07
-1.30673e-07
-8.11793e-07
-1.4627e-07
-7.73583e-07
-1.60518e-07
-7.32363e-07
-1.73196e-07
-6.88524e-07
-1.84102e-07
-6.42494e-07
-1.93054e-07
-5.94736e-07
-1.99898e-07
-5.4574e-07
-2.04511e-07
-4.96017e-07
-2.06805e-07
-4.46093e-07
-2.06732e-07
-3.96499e-07
-2.04282e-07
-3.47761e-07
-1.99489e-07
-3.00396e-07
-1.92429e-07
-2.54897e-07
-1.83221e-07
-2.11729e-07
-1.72024e-07
-1.71316e-07
-1.59036e-07
-1.34036e-07
-1.4449e-07
-1.0021e-07
-1.28651e-07
-7.00985e-08
-1.11812e-07
-4.38918e-08
-9.42876e-08
-2.17069e-08
-7.64143e-08
-3.58221e-09
-5.8543e-08
1.05255e-08
-4.10386e-08
2.07437e-08
-2.42784e-08
2.72858e-08
-8.65146e-09
3.04523e-08
5.44035e-09
3.06309e-08
1.75809e-08
2.8297e-08
2.73381e-08
2.40138e-08
3.42634e-08
1.84347e-08
3.78933e-08
1.23098e-08
3.77533e-08
6.49864e-09
3.33679e-08
1.99737e-09
2.42709e-08
9.99161e-09
-1.50212e-09
1.1375e-09
-6.18984e-09
8.8495e-09
-1.41481e-08
2.00471e-08
-2.53796e-08
3.33235e-08
-3.98218e-08
4.76659e-08
-5.73624e-08
6.23211e-08
-7.78534e-08
7.67538e-08
-1.01124e-07
9.06086e-08
-1.26993e-07
1.0367e-07
-1.55273e-07
1.15826e-07
-1.8578e-07
1.2704e-07
-2.18334e-07
1.3732e-07
-2.52764e-07
1.46705e-07
-2.88901e-07
1.55242e-07
-3.26583e-07
1.62977e-07
-3.65647e-07
1.69943e-07
-4.0593e-07
1.76158e-07
-4.47261e-07
1.8162e-07
-4.89461e-07
1.86306e-07
-5.32339e-07
1.90172e-07
-5.75688e-07
1.93158e-07
-6.19286e-07
1.95188e-07
-6.62894e-07
1.96176e-07
-7.06253e-07
1.9603e-07
-7.49089e-07
1.94652e-07
-7.9111e-07
1.9195e-07
-8.32011e-07
1.87835e-07
-8.71476e-07
1.82227e-07
-9.0918e-07
1.7506e-07
-9.44793e-07
1.66284e-07
-9.77985e-07
1.55866e-07
-1.00843e-06
1.43797e-07
-1.0358e-06
1.3009e-07
-1.05981e-06
1.14784e-07
-1.08015e-06
9.79428e-08
-1.09656e-06
7.9659e-08
-1.1088e-06
6.00521e-08
-1.11667e-06
3.92691e-08
-1.11998e-06
1.74834e-08
-1.1186e-06
-5.10579e-09
-1.11245e-06
-2.82763e-08
-1.10146e-06
-5.17839e-08
-1.08565e-06
-7.53663e-08
-1.06506e-06
-9.87462e-08
-1.0398e-06
-1.21635e-07
-1.01003e-06
-1.43737e-07
-9.75945e-07
-1.64757e-07
-9.37816e-07
-1.84398e-07
-8.95955e-07
-2.02378e-07
-8.50726e-07
-2.18426e-07
-8.02537e-07
-2.32291e-07
-7.5184e-07
-2.43751e-07
-6.99124e-07
-2.52613e-07
-6.4491e-07
-2.58724e-07
-5.89745e-07
-2.6197e-07
-5.34191e-07
-2.62285e-07
-4.78821e-07
-2.59652e-07
-4.24208e-07
-2.54102e-07
-3.70913e-07
-2.45724e-07
-3.19481e-07
-2.34654e-07
-2.70424e-07
-2.21081e-07
-2.24218e-07
-2.05242e-07
-1.8129e-07
-1.87419e-07
-1.42007e-07
-1.67934e-07
-1.06674e-07
-1.47145e-07
-7.55209e-08
-1.25441e-07
-4.87003e-08
-1.03235e-07
-2.62803e-08
-8.0963e-08
-8.24112e-09
-5.90778e-08
5.5273e-09
-3.80468e-08
1.52275e-08
-1.83517e-08
2.11552e-08
-4.87398e-10
2.36999e-08
1.50362e-08
2.33447e-08
2.76933e-08
2.06671e-08
3.69411e-08
1.63415e-08
4.22188e-08
1.11461e-08
4.29488e-08
5.97411e-09
3.85399e-08
1.85568e-09
2.83894e-08
1.18473e-08
-2.04245e-09
3.17994e-09
-8.14088e-09
1.49479e-08
-1.82055e-08
3.01118e-08
-3.20969e-08
4.72149e-08
-4.96386e-08
6.52076e-08
-7.06283e-08
8.33108e-08
-9.48489e-08
1.00974e-07
-1.22077e-07
1.17837e-07
-1.52092e-07
1.33685e-07
-1.84679e-07
1.48412e-07
-2.1963e-07
1.61991e-07
-2.56751e-07
1.74441e-07
-2.95854e-07
1.85808e-07
-3.36759e-07
1.96148e-07
-3.79291e-07
2.05509e-07
-4.23274e-07
2.13926e-07
-4.68529e-07
2.21413e-07
-5.14869e-07
2.2796e-07
-5.62095e-07
2.33532e-07
-6.09995e-07
2.38072e-07
-6.58341e-07
2.41504e-07
-7.06886e-07
2.43733e-07
-7.55365e-07
2.44655e-07
-8.03494e-07
2.44159e-07
-8.50972e-07
2.4213e-07
-8.97482e-07
2.3846e-07
-9.42692e-07
2.33046e-07
-9.86263e-07
2.25798e-07
-1.02785e-06
2.16642e-07
-1.06709e-06
2.05526e-07
-1.10364e-06
1.92417e-07
-1.13715e-06
1.77312e-07
-1.1673e-06
1.60234e-07
-1.19375e-06
1.41235e-07
-1.21621e-06
1.204e-07
-1.23439e-06
9.78437e-08
-1.24805e-06
7.37143e-08
-1.25697e-06
4.81907e-08
-1.26097e-06
2.14827e-08
-1.25991e-06
-6.17084e-09
-1.25368e-06
-3.45044e-08
-1.24224e-06
-6.32273e-08
-1.22557e-06
-9.20284e-08
-1.20374e-06
-1.20579e-07
-1.17684e-06
-1.48538e-07
-1.14502e-06
-1.75555e-07
-1.1085e-06
-2.01278e-07
-1.06754e-06
-2.2536e-07
-1.02246e-06
-2.4746e-07
-9.73627e-07
-2.67256e-07
-9.2147e-07
-2.84448e-07
-8.66454e-07
-2.98767e-07
-8.09089e-07
-3.09979e-07
-7.49921e-07
-3.17892e-07
-6.89525e-07
-3.22366e-07
-6.28501e-07
-3.2331e-07
-5.67459e-07
-3.20693e-07
-5.07016e-07
-3.14546e-07
-4.47779e-07
-3.0496e-07
-3.90343e-07
-2.9209e-07
-3.35272e-07
-2.76151e-07
-2.83094e-07
-2.57419e-07
-2.34288e-07
-2.36225e-07
-1.89274e-07
-2.12948e-07
-1.48404e-07
-1.88015e-07
-1.11953e-07
-1.61891e-07
-8.01164e-08
-1.35072e-07
-5.29967e-08
-1.08083e-07
-3.0605e-08
-8.14695e-08
-1.28553e-08
-5.57965e-08
4.36876e-10
-3.16438e-08
9.55583e-09
-9.60635e-09
1.48857e-08
9.70635e-09
1.69104e-08
2.56685e-08
1.62148e-08
3.76367e-08
1.34861e-08
4.49474e-08
9.5198e-09
4.69151e-08
5.22813e-09
4.28315e-08
1.65463e-09
3.19629e-08
1.35019e-08
-2.59539e-09
5.77531e-09
-1.01459e-08
2.24984e-08
-2.23842e-08
4.23501e-08
-3.9022e-08
6.38528e-08
-5.9761e-08
8.59466e-08
-8.43017e-08
1.07851e-07
-1.12351e-07
1.29023e-07
-1.43627e-07
1.49114e-07
-1.77866e-07
1.67923e-07
-2.14819e-07
1.85366e-07
-2.54257e-07
2.01429e-07
-2.95966e-07
2.1615e-07
-3.39745e-07
2.29587e-07
-3.85402e-07
2.41804e-07
-4.32749e-07
2.52855e-07
-4.81597e-07
2.62774e-07
-5.31754e-07
2.7157e-07
-5.83018e-07
2.79224e-07
-6.35174e-07
2.85688e-07
-6.87991e-07
2.90889e-07
-7.4122e-07
2.94733e-07
-7.94593e-07
2.97106e-07
-8.47823e-07
2.97885e-07
-9.00603e-07
2.96939e-07
-9.52609e-07
2.94137e-07
-1.0035e-06
2.89353e-07
-1.05293e-06
2.82474e-07
-1.10053e-06
2.73399e-07
-1.14594e-06
2.62049e-07
-1.18878e-06
2.48368e-07
-1.22869e-06
2.32329e-07
-1.26531e-06
2.13933e-07
-1.29829e-06
1.93215e-07
-1.3273e-06
1.70243e-07
-1.35202e-06
1.45122e-07
-1.37217e-06
1.17991e-07
-1.38748e-06
8.9027e-08
-1.39774e-06
5.84411e-08
-1.40273e-06
2.64793e-08
-1.40232e-06
-6.57947e-09
-1.3964e-06
-4.04268e-08
-1.3849e-06
-7.47257e-08
-1.36781e-06
-1.09116e-07
-1.34518e-06
-1.43217e-07
-1.31708e-06
-1.76635e-07
-1.28367e-06
-2.08964e-07
-1.24515e-06
-2.39796e-07
-1.20179e-06
-2.68725e-07
-1.15389e-06
-2.95356e-07
-1.10184e-06
-3.19309e-07
-1.04605e-06
-3.40232e-07
-9.87018e-07
-3.57803e-07
-9.25255e-07
-3.71742e-07
-8.61331e-07
-3.81816e-07
-7.95849e-07
-3.87847e-07
-7.2944e-07
-3.89719e-07
-6.62752e-07
-3.87381e-07
-5.96444e-07
-3.80854e-07
-5.31174e-07
-3.70231e-07
-4.67586e-07
-3.55678e-07
-4.063e-07
-3.37437e-07
-3.479e-07
-3.15819e-07
-2.92923e-07
-2.91202e-07
-2.41844e-07
-2.64027e-07
-1.95071e-07
-2.34788e-07
-1.52931e-07
-2.0403e-07
-1.15666e-07
-1.72337e-07
-8.34226e-08
-1.40327e-07
-5.62477e-08
-1.08644e-07
-3.40864e-08
-7.79578e-08
-1.67784e-08
-4.89518e-08
-4.05733e-09
-2.23274e-08
4.44984e-09
1.19918e-09
9.22235e-09
2.0896e-08
1.08458e-08
3.60132e-08
1.00136e-08
4.57796e-08
7.52979e-09
4.9399e-08
4.3144e-09
4.60469e-08
1.4111e-09
3.48662e-08
1.4913e-08
-3.15641e-09
8.93172e-09
-1.21853e-08
3.15273e-08
-2.66398e-08
5.68046e-08
-4.60788e-08
8.32918e-08
-7.00773e-08
1.09945e-07
-9.82328e-08
1.36007e-07
-1.30171e-07
1.60962e-07
-1.65549e-07
1.84491e-07
-2.04054e-07
2.06429e-07
-2.45405e-07
2.26716e-07
-2.89345e-07
2.45369e-07
-3.35642e-07
2.62447e-07
-3.84081e-07
2.78025e-07
-4.34456e-07
2.9218e-07
-4.86569e-07
3.04969e-07
-5.40221e-07
3.16427e-07
-5.95207e-07
3.26556e-07
-6.51312e-07
3.35328e-07
-7.08304e-07
3.4268e-07
-7.65938e-07
3.48523e-07
-8.23946e-07
3.52741e-07
-8.82043e-07
3.55203e-07
-9.39922e-07
3.55764e-07
-9.97257e-07
3.54274e-07
-1.05371e-06
3.50586e-07
-1.10891e-06
3.44558e-07
-1.1625e-06
3.36065e-07
-1.2141e-06
3.24998e-07
-1.26332e-06
3.11273e-07
-1.30979e-06
2.94834e-07
-1.35312e-06
2.75656e-07
-1.39293e-06
2.5375e-07
-1.42888e-06
2.29162e-07
-1.46061e-06
2.01976e-07
-1.48781e-06
1.72317e-07
-1.51017e-06
1.4035e-07
-1.52742e-06
1.06278e-07
-1.53932e-06
7.03457e-08
-1.54568e-06
3.28337e-08
-1.54632e-06
-5.94005e-09
-1.54112e-06
-4.56252e-08
-1.53e-06
-8.58394e-08
-1.51295e-06
-1.26174e-07
-1.48997e-06
-1.66198e-07
-1.46114e-06
-2.05462e-07
-1.4266e-06
-2.43506e-07
-1.38653e-06
-2.79863e-07
-1.34118e-06
-3.1407e-07
-1.29087e-06
-3.4567e-07
-1.23595e-06
-3.74226e-07
-1.17686e-06
-3.99325e-07
-1.11407e-06
-4.2059e-07
-1.04813e-06
-4.37688e-07
-9.79606e-07
-4.50337e-07
-9.09135e-07
-4.58318e-07
-8.37376e-07
-4.61478e-07
-7.65015e-07
-4.59742e-07
-6.92754e-07
-4.53115e-07
-6.21301e-07
-4.41684e-07
-5.51354e-07
-4.25625e-07
-4.83594e-07
-4.05197e-07
-4.18666e-07
-3.80747e-07
-3.57169e-07
-3.52699e-07
-2.99643e-07
-3.21552e-07
-2.46558e-07
-2.87874e-07
-1.983e-07
-2.52288e-07
-1.55165e-07
-2.15472e-07
-1.17349e-07
-1.78142e-07
-8.49458e-08
-1.41048e-07
-5.79361e-08
-1.04968e-07
-3.61906e-08
-7.06973e-08
-1.94663e-08
-3.90517e-08
-7.40676e-09
-1.08603e-08
4.57188e-10
1.30321e-08
4.70706e-09
3.17633e-08
6.03637e-09
4.44503e-08
5.25145e-09
5.01839e-08
3.27284e-09
4.80255e-08
1.13712e-09
3.70019e-08
1.60501e-08
-3.7217e-09
1.26535e-08
-1.42424e-08
4.20479e-08
-3.09346e-08
7.34968e-08
-5.32022e-08
1.05559e-07
-8.049e-08
1.37233e-07
-1.1229e-07
1.67807e-07
-1.48143e-07
1.96815e-07
-1.87641e-07
2.2399e-07
-2.30423e-07
2.49211e-07
-2.76169e-07
2.72463e-07
-3.24599e-07
2.93799e-07
-3.75459e-07
3.13307e-07
-4.28518e-07
3.31085e-07
-4.83562e-07
3.47223e-07
-5.4038e-07
3.61787e-07
-5.98763e-07
3.7481e-07
-6.58496e-07
3.86289e-07
-7.19351e-07
3.96183e-07
-7.81086e-07
4.04415e-07
-8.43439e-07
4.10876e-07
-9.06131e-07
4.15432e-07
-9.68858e-07
4.1793e-07
-1.0313e-06
4.18204e-07
-1.09311e-06
4.16087e-07
-1.15394e-06
4.11413e-07
-1.21341e-06
4.04028e-07
-1.27114e-06
3.93793e-07
-1.32673e-06
3.80594e-07
-1.3798e-06
3.64343e-07
-1.42995e-06
3.44983e-07
-1.47679e-06
3.22495e-07
-1.51994e-06
2.96896e-07
-1.55902e-06
2.68246e-07
-1.59369e-06
2.36645e-07
-1.62361e-06
2.02237e-07
-1.64847e-06
1.65211e-07
-1.66799e-06
1.25797e-07
-1.68192e-06
8.42691e-08
-1.69002e-06
4.09425e-08
-1.69214e-06
-3.82745e-09
-1.68811e-06
-4.96519e-08
-1.67785e-06
-9.61028e-08
-1.6613e-06
-1.42725e-07
-1.63846e-06
-1.89038e-07
-1.60938e-06
-2.34538e-07
-1.57417e-06
-2.7871e-07
-1.53301e-06
-3.21028e-07
-1.48611e-06
-3.60966e-07
-1.43378e-06
-3.98007e-07
-1.37635e-06
-4.31649e-07
-1.31426e-06
-4.61416e-07
-1.24799e-06
-4.86868e-07
-1.17806e-06
-5.07613e-07
-1.10509e-06
-5.23313e-07
-1.0297e-06
-5.33699e-07
-9.52607e-07
-5.38576e-07
-8.74517e-07
-5.37832e-07
-7.96182e-07
-5.3145e-07
-7.18361e-07
-5.19505e-07
-6.41812e-07
-5.02173e-07
-5.67278e-07
-4.79731e-07
-4.95475e-07
-4.52551e-07
-4.2707e-07
-4.21104e-07
-3.62676e-07
-3.85947e-07
-3.02831e-07
-3.47718e-07
-2.4799e-07
-3.07129e-07
-1.98513e-07
-2.64949e-07
-1.54655e-07
-2.22e-07
-1.1656e-07
-1.79144e-07
-8.42532e-08
-1.37274e-07
-5.76437e-08
-9.73068e-08
-3.65174e-08
-6.0178e-08
-2.05397e-08
-2.6838e-08
-9.25608e-09
1.7485e-09
-2.09376e-09
2.4601e-08
1.6367e-09
4.07199e-08
2.73973e-09
4.90809e-08
2.13199e-09
4.86333e-08
8.41032e-10
3.82929e-08
1.68912e-08
-4.28766e-09
1.69411e-08
-1.63019e-08
5.40622e-08
-3.52345e-08
9.24293e-08
-6.03329e-08
1.30658e-07
-9.09104e-08
1.6781e-07
-1.26351e-07
2.03247e-07
-1.66111e-07
2.36575e-07
-2.09715e-07
2.67593e-07
-2.56751e-07
2.96246e-07
-3.06862e-07
3.22574e-07
-3.59739e-07
3.46676e-07
-4.1511e-07
3.68678e-07
-4.7273e-07
3.88705e-07
-5.32371e-07
4.06864e-07
-5.93815e-07
4.23231e-07
-6.56843e-07
4.37838e-07
-7.2123e-07
4.50676e-07
-7.86739e-07
4.61692e-07
-8.53118e-07
4.70793e-07
-9.20093e-07
4.77851e-07
-9.87372e-07
4.82711e-07
-1.05464e-06
4.85198e-07
-1.12156e-06
4.85128e-07
-1.18779e-06
4.82312e-07
-1.25295e-06
4.76571e-07
-1.31665e-06
4.67735e-07
-1.37852e-06
4.55656e-07
-1.43813e-06
4.40212e-07
-1.4951e-06
4.21314e-07
-1.54903e-06
3.98905e-07
-1.5995e-06
3.72969e-07
-1.64614e-06
3.43534e-07
-1.68856e-06
3.10669e-07
-1.72641e-06
2.74491e-07
-1.75933e-06
2.35163e-07
-1.78701e-06
1.92893e-07
-1.80916e-06
1.47938e-07
-1.82549e-06
1.00599e-07
-1.83577e-06
5.12232e-08
-1.8398e-06
2.03447e-10
-1.83741e-06
-5.20415e-08
-1.82848e-06
-1.05034e-07
-1.81292e-06
-1.58277e-07
-1.79072e-06
-2.11241e-07
-1.76189e-06
-2.63371e-07
-1.7265e-06
-3.14093e-07
-1.68471e-06
-3.62823e-07
-1.6367e-06
-4.08972e-07
-1.58275e-06
-4.51957e-07
-1.5232e-06
-4.91207e-07
-1.45843e-06
-5.2618e-07
-1.38893e-06
-5.56366e-07
-1.31524e-06
-5.81305e-07
-1.23796e-06
-6.00596e-07
-1.15775e-06
-6.1391e-07
-1.07533e-06
-6.20999e-07
-9.91448e-07
-6.2171e-07
-9.0691e-07
-6.15988e-07
-8.22525e-07
-6.0389e-07
-7.39114e-07
-5.85585e-07
-6.57489e-07
-5.61355e-07
-5.78439e-07
-5.31601e-07
-5.02712e-07
-4.9683e-07
-4.31e-07
-4.57659e-07
-3.6392e-07
-4.14798e-07
-3.02006e-07
-3.69043e-07
-2.45689e-07
-3.21265e-07
-1.95293e-07
-2.72396e-07
-1.51022e-07
-2.23415e-07
-1.12956e-07
-1.7534e-07
-8.10463e-08
-1.29216e-07
-5.51154e-08
-8.6109e-08
-3.48557e-08
-4.70977e-08
-1.9832e-08
-1.32752e-08
-9.48387e-09
1.42529e-08
-3.12951e-09
3.43655e-08
3.06682e-11
4.59207e-08
9.1086e-10
4.77531e-08
5.28323e-10
3.86754e-08
1.74195e-08
-4.85051e-09
2.17916e-08
-1.8349e-08
6.75607e-08
-3.95064e-08
1.13587e-07
-6.74143e-08
1.58566e-07
-1.01254e-07
2.0165e-07
-1.40303e-07
2.42296e-07
-1.8393e-07
2.80202e-07
-2.31593e-07
3.15256e-07
-2.82828e-07
3.47481e-07
-3.37242e-07
3.76988e-07
-3.94497e-07
4.03931e-07
-4.54302e-07
4.28483e-07
-5.16397e-07
4.508e-07
-5.80544e-07
4.71011e-07
-6.46516e-07
4.89202e-07
-7.14085e-07
5.05407e-07
-7.8302e-07
5.19611e-07
-8.53076e-07
5.31748e-07
-9.23991e-07
5.41708e-07
-9.95484e-07
5.49344e-07
-1.06725e-06
5.54479e-07
-1.13897e-06
5.56919e-07
-1.2103e-06
5.56457e-07
-1.28088e-06
5.52889e-07
-1.35032e-06
5.46016e-07
-1.41825e-06
5.35659e-07
-1.48425e-06
5.21659e-07
-1.54793e-06
5.03888e-07
-1.60887e-06
4.82253e-07
-1.66666e-06
4.567e-07
-1.72091e-06
4.27218e-07
-1.77122e-06
3.93839e-07
-1.81719e-06
3.56646e-07
-1.85847e-06
3.15768e-07
-1.89469e-06
2.71383e-07
-1.92552e-06
2.23722e-07
-1.95064e-06
1.73062e-07
-1.96977e-06
1.1973e-07
-1.98265e-06
6.41017e-08
-1.98905e-06
6.59714e-09
-1.98877e-06
-5.23211e-08
-1.98166e-06
-1.12145e-07
-1.9676e-06
-1.72332e-07
-1.94654e-06
-2.32304e-07
-1.91845e-06
-2.91456e-07
-1.88339e-06
-3.49158e-07
-1.84145e-06
-4.04766e-07
-1.79279e-06
-4.57627e-07
-1.73766e-06
-5.07087e-07
-1.67636e-06
-5.52506e-07
-1.60928e-06
-5.93266e-07
-1.53686e-06
-6.28783e-07
-1.45964e-06
-6.58521e-07
-1.37823e-06
-6.82006e-07
-1.2933e-06
-6.98839e-07
-1.20559e-06
-7.0871e-07
-1.11589e-06
-7.11409e-07
-1.02504e-06
-7.06838e-07
-9.33912e-07
-6.95022e-07
-8.43386e-07
-6.76111e-07
-7.54353e-07
-6.50389e-07
-6.67682e-07
-6.18271e-07
-5.84209e-07
-5.80304e-07
-5.04714e-07
-5.37154e-07
-4.29906e-07
-4.89606e-07
-3.60406e-07
-4.38544e-07
-2.9673e-07
-3.84941e-07
-2.3928e-07
-3.29846e-07
-1.88331e-07
-2.74364e-07
-1.44024e-07
-2.19646e-07
-1.06365e-07
-1.66876e-07
-7.52177e-08
-1.17256e-07
-5.03078e-08
-7.20077e-08
-3.12239e-08
-3.23591e-08
-1.74217e-08
4.50774e-10
-8.22885e-09
2.51727e-08
-2.85064e-09
4.05425e-08
-3.78556e-10
4.5281e-08
2.02277e-10
3.80946e-08
1.76218e-08
-5.40625e-09
2.71979e-08
-2.03683e-08
8.25227e-08
-4.37175e-08
1.36936e-07
-7.43909e-08
1.89239e-07
-1.1144e-07
2.38699e-07
-1.54034e-07
2.8489e-07
-2.01458e-07
3.27625e-07
-2.53101e-07
3.669e-07
-3.08451e-07
4.02831e-07
-3.67076e-07
4.35612e-07
-4.28611e-07
4.65467e-07
-4.92745e-07
4.92617e-07
-5.59206e-07
5.17261e-07
-6.27745e-07
5.3955e-07
-6.98126e-07
5.59583e-07
-7.70116e-07
5.77398e-07
-8.43477e-07
5.92973e-07
-9.17958e-07
6.06229e-07
-9.93291e-07
6.17041e-07
-1.06919e-06
6.25241e-07
-1.14534e-06
6.30632e-07
-1.22142e-06
6.32997e-07
-1.29707e-06
6.32111e-07
-1.37194e-06
6.27752e-07
-1.44563e-06
6.19706e-07
-1.51775e-06
6.07781e-07
-1.5879e-06
5.91809e-07
-1.65567e-06
5.71657e-07
-1.72064e-06
5.47229e-07
-1.78241e-06
5.18472e-07
-1.84057e-06
4.85377e-07
-1.89472e-06
4.47985e-07
-1.94446e-06
4.06385e-07
-1.98941e-06
3.6072e-07
-2.02921e-06
3.11183e-07
-2.06351e-06
2.58018e-07
-2.09197e-06
2.01523e-07
-2.11428e-06
1.42047e-07
-2.13017e-06
7.99889e-08
-2.13937e-06
1.57981e-08
-2.14166e-06
-5.00303e-08
-2.13685e-06
-1.16955e-07
-2.12479e-06
-1.84392e-07
-2.10538e-06
-2.51719e-07
-2.07855e-06
-3.18282e-07
-2.04431e-06
-3.83396e-07
-2.00272e-06
-4.46356e-07
-1.95391e-06
-5.06443e-07
-1.89806e-06
-5.62933e-07
-1.83546e-06
-6.15111e-07
-1.76644e-06
-6.62279e-07
-1.69146e-06
-7.0377e-07
-1.61101e-06
-7.38966e-07
-1.52571e-06
-7.6731e-07
-1.43622e-06
-7.88322e-07
-1.34332e-06
-8.01617e-07
-1.24781e-06
-8.06916e-07