/*--------------------------------*- C++ -*----------------------------------*\
  =========                 |
  \\      /  F ield         | OpenFOAM: The Open Source CFD Toolbox
   \\    /   O peration     | Website:  https://openfoam.org
    \\  /    A nd           | Version:  7
     \\/     M anipulation  |
\*---------------------------------------------------------------------------*/
FoamFile
{
    version     2.0;
    format      ascii;
    class       volVectorField;
    location    "0.4";
    object      U;
}
// * * * * * * * * * * * * * * * * * * * * * * * * * * * * * * * * * * * * * //

dimensions      [0 1 -1 0 0 0 0];

internalField   nonuniform List<vector> 
6400
(
(8.14457e-06 -8.19491e-06 0)
(1.76163e-05 -5.46981e-06 0)
(8.9373e-06 2.63216e-06 0)
(-2.26351e-05 1.0862e-05 0)
(-7.60347e-05 1.7957e-05 0)
(-0.000147939 2.36106e-05 0)
(-0.000234909 2.79323e-05 0)
(-0.000333746 3.11483e-05 0)
(-0.000441688 3.34821e-05 0)
(-0.000556446 3.51258e-05 0)
(-0.000676157 3.62374e-05 0)
(-0.000799328 3.69412e-05 0)
(-0.000924769 3.73354e-05 0)
(-0.00105155 3.74981e-05 0)
(-0.00117893 3.7487e-05 0)
(-0.00130634 3.7344e-05 0)
(-0.00143333 3.71012e-05 0)
(-0.00155952 3.67813e-05 0)
(-0.00168462 3.6398e-05 0)
(-0.00180837 3.59574e-05 0)
(-0.00193052 3.54613e-05 0)
(-0.00205084 3.49084e-05 0)
(-0.0021691 3.42943e-05 0)
(-0.00228504 3.36122e-05 0)
(-0.00239839 3.28529e-05 0)
(-0.00250885 3.20061e-05 0)
(-0.00261611 3.10614e-05 0)
(-0.00271981 3.00078e-05 0)
(-0.00281956 2.88345e-05 0)
(-0.00291494 2.7531e-05 0)
(-0.00300551 2.60869e-05 0)
(-0.00309078 2.44928e-05 0)
(-0.00317027 2.27404e-05 0)
(-0.00324344 2.08225e-05 0)
(-0.00330976 1.87336e-05 0)
(-0.00336867 1.64702e-05 0)
(-0.00341962 1.40307e-05 0)
(-0.00346205 1.14163e-05 0)
(-0.00349542 8.63049e-06 0)
(-0.0035192 5.68006e-06 0)
(-0.00353289 2.5752e-06 0)
(-0.00353604 -6.70416e-07 0)
(-0.00352824 -4.04174e-06 0)
(-0.00350914 -7.51666e-06 0)
(-0.00347846 -1.10708e-05 0)
(-0.00343601 -1.46765e-05 0)
(-0.00338168 -1.83023e-05 0)
(-0.00331549 -2.19141e-05 0)
(-0.00323754 -2.54751e-05 0)
(-0.00314806 -2.89461e-05 0)
(-0.0030474 -3.22868e-05 0)
(-0.00293606 -3.54559e-05 0)
(-0.00281462 -3.84123e-05 0)
(-0.00268384 -4.11157e-05 0)
(-0.00254456 -4.35275e-05 0)
(-0.00239776 -4.56113e-05 0)
(-0.00224452 -4.73341e-05 0)
(-0.00208603 -4.86668e-05 0)
(-0.00192355 -4.95845e-05 0)
(-0.00175844 -5.00668e-05 0)
(-0.00159208 -5.00984e-05 0)
(-0.00142595 -4.96689e-05 0)
(-0.00126151 -4.8773e-05 0)
(-0.00110028 -4.74096e-05 0)
(-0.00094375 -4.55811e-05 0)
(-0.000793435 -4.32932e-05 0)
(-0.000650814 -4.05539e-05 0)
(-0.000517344 -3.73735e-05 0)
(-0.000394446 -3.37632e-05 0)
(-0.000283499 -2.97345e-05 0)
(-0.000185824 -2.52988e-05 0)
(-0.000102665 -2.04706e-05 0)
(-3.51567e-05 -1.52733e-05 0)
(1.57283e-05 -9.75815e-06 0)
(4.93183e-05 -4.0149e-06 0)
(6.53985e-05 1.79254e-06 0)
(6.46225e-05 7.14127e-06 0)
(4.92854e-05 1.11566e-05 0)
(2.55273e-05 1.19033e-05 0)
(6.3261e-06 6.37506e-06 0)
(5.50086e-06 -1.76862e-05 0)
(-3.99726e-06 3.9905e-06 0)
(-5.91827e-05 4.39582e-05 0)
(-0.00016504 8.56129e-05 0)
(-0.000319952 0.000123373 0)
(-0.000518761 0.000155298 0)
(-0.000754898 0.000181177 0)
(-0.00102165 0.000201542 0)
(-0.00131281 0.000217159 0)
(-0.00162292 0.000228812 0)
(-0.00194732 0.000237224 0)
(-0.00228211 0.000243021 0)
(-0.00262409 0.000246733 0)
(-0.00297066 0.000248794 0)
(-0.00331969 0.000249549 0)
(-0.00366946 0.000249269 0)
(-0.00401861 0.000248159 0)
(-0.00436596 0.000246371 0)
(-0.00471055 0.000244006 0)
(-0.00505152 0.000241128 0)
(-0.00538811 0.000237767 0)
(-0.00571957 0.00023393 0)
(-0.00604516 0.000229605 0)
(-0.00636414 0.00022476 0)
(-0.00667571 0.000219354 0)
(-0.00697901 0.000213336 0)
(-0.00727314 0.00020665 0)
(-0.00755712 0.000199239 0)
(-0.00782989 0.000191043 0)
(-0.00809032 0.000182003 0)
(-0.0083372 0.000172064 0)
(-0.00856929 0.000161175 0)
(-0.00878524 0.000149292 0)
(-0.00898369 0.000136379 0)
(-0.00916322 0.000122408 0)
(-0.00932241 0.000107364 0)
(-0.00945981 9.1246e-05 0)
(-0.009574 7.40661e-05 0)
(-0.00966358 5.58535e-05 0)
(-0.00972722 3.66551e-05 0)
(-0.00976365 1.65371e-05 0)
(-0.00977172 -4.41405e-06 0)
(-0.00975042 -2.6092e-05 0)
(-0.00969888 -4.8368e-05 0)
(-0.00961643 -7.10928e-05 0)
(-0.0095026 -9.40969e-05 0)
(-0.00935719 -0.000117192 0)
(-0.00918022 -0.000140172 0)
(-0.00897203 -0.000162817 0)
(-0.00873322 -0.000184895 0)
(-0.00846474 -0.000206165 0)
(-0.00816784 -0.000226384 0)
(-0.00784409 -0.000245307 0)
(-0.00749539 -0.000262693 0)
(-0.00712393 -0.000278312 0)
(-0.00673223 -0.000291945 0)
(-0.00632306 -0.000303391 0)
(-0.00589946 -0.000312469 0)
(-0.0054647 -0.000319022 0)
(-0.00502223 -0.000322917 0)
(-0.00457569 -0.000324049 0)
(-0.00412884 -0.000322339 0)
(-0.00368553 -0.000317736 0)
(-0.00324969 -0.000310215 0)
(-0.00282525 -0.000299773 0)
(-0.00241618 -0.000286431 0)
(-0.00202638 -0.000270227 0)
(-0.00165971 -0.000251223 0)
(-0.00131991 -0.000229498 0)
(-0.00101059 -0.000205159 0)
(-0.000735165 -0.000178344 0)
(-0.000496775 -0.000149251 0)
(-0.000298149 -0.000118179 0)
(-0.000141417 -8.56088e-05 0)
(-2.77138e-05 -5.23246e-05 0)
(4.30554e-05 -1.96889e-05 0)
(7.32623e-05 9.95043e-06 0)
(6.86388e-05 3.25458e-05 0)
(4.09493e-05 4.12046e-05 0)
(1.16605e-05 2.53965e-05 0)
(-2.59054e-06 -9.09954e-06 0)
(-4.45229e-05 5.92932e-05 0)
(-0.000159745 0.000158161 0)
(-0.000346544 0.000260575 0)
(-0.000601111 0.00035521 0)
(-0.000917287 0.000437329 0)
(-0.0012869 0.000505691 0)
(-0.00170125 0.000560865 0)
(-0.00215202 0.00060421 0)
(-0.00263167 0.000637347 0)
(-0.00313357 0.00066189 0)
(-0.00365203 0.000679321 0)
(-0.00418225 0.00069094 0)
(-0.00472024 0.000697846 0)
(-0.00526269 0.000700945 0)
(-0.00580686 0.000700959 0)
(-0.00635048 0.000698449 0)
(-0.00689164 0.000693836 0)
(-0.0074287 0.000687418 0)
(-0.00796022 0.000679389 0)
(-0.00848489 0.000669856 0)
(-0.00900144 0.000658859 0)
(-0.00950865 0.00064638 0)
(-0.0100053 0.000632357 0)
(-0.01049 0.000616692 0)
(-0.0109615 0.000599265 0)
(-0.0114184 0.00057994 0)
(-0.011859 0.000558571 0)
(-0.0122817 0.000535009 0)
(-0.0126848 0.000509107 0)
(-0.0130665 0.000480726 0)
(-0.0134248 0.000449741 0)
(-0.0137577 0.00041604 0)
(-0.0140632 0.000379536 0)
(-0.014339 0.000340169 0)
(-0.0145832 0.000297907 0)
(-0.0147935 0.000252756 0)
(-0.0149678 0.00020476 0)
(-0.015104 0.000154007 0)
(-0.0152002 0.000100634 0)
(-0.0152546 4.48266e-05 0)
(-0.0152654 -1.31764e-05 0)
(-0.0152313 -7.30788e-05 0)
(-0.0151508 -0.000134533 0)
(-0.0150232 -0.000197136 0)
(-0.0148478 -0.00026043 0)
(-0.0146242 -0.000323913 0)
(-0.0143527 -0.000387033 0)
(-0.0140337 -0.000449205 0)
(-0.0136682 -0.000509814 0)
(-0.0132576 -0.000568221 0)
(-0.0128039 -0.000623779 0)
(-0.0123094 -0.000675841 0)
(-0.011777 -0.000723769 0)
(-0.0112099 -0.00076695 0)
(-0.0106119 -0.000804801 0)
(-0.00998709 -0.000836785 0)
(-0.00934005 -0.000862412 0)
(-0.00867561 -0.000881256 0)
(-0.00799893 -0.000892952 0)
(-0.00731542 -0.000897205 0)
(-0.00663067 -0.000893786 0)
(-0.00595046 -0.000882538 0)
(-0.00528062 -0.000863371 0)
(-0.00462708 -0.000836263 0)
(-0.00399575 -0.000801253 0)
(-0.00339248 -0.000758442 0)
(-0.00282303 -0.000707997 0)
(-0.00229301 -0.000650158 0)
(-0.00180774 -0.00058526 0)
(-0.00137225 -0.000513774 0)
(-0.000991043 -0.000436364 0)
(-0.00066795 -0.000354014 0)
(-0.000405805 -0.000268209 0)
(-0.000205997 -0.000181246 0)
(-6.79317e-05 -9.67887e-05 0)
(1.18777e-05 -2.03672e-05 0)
(4.08534e-05 3.92206e-05 0)
(3.27546e-05 6.88473e-05 0)
(1.08311e-05 4.87097e-05 0)
(-1.11383e-05 2.30062e-05 0)
(-8.82769e-05 0.00016697 0)
(-0.000267678 0.000346057 0)
(-0.000537199 0.000527281 0)
(-0.00088904 0.000695038 0)
(-0.00131561 0.000842099 0)
(-0.00180743 0.000966153 0)
(-0.00235443 0.0010677 0)
(-0.00294695 0.00114862 0)
(-0.00357606 0.0012114 0)
(-0.00423378 0.00125861 0)
(-0.00491313 0.00129273 0)
(-0.00560813 0.00131597 0)
(-0.00631368 0.00133025 0)
(-0.00702551 0.00133718 0)
(-0.00773999 0.00133807 0)
(-0.0084541 0.00133394 0)
(-0.00916523 0.00132559 0)
(-0.00987112 0.00131358 0)
(-0.0105698 0.00129829 0)
(-0.0112594 0.00127995 0)
(-0.0119381 0.00125866 0)
(-0.0126044 0.00123439 0)
(-0.0132564 0.00120707 0)
(-0.0138924 0.00117653 0)
(-0.0145106 0.00114257 0)
(-0.015109 0.00110495 0)
(-0.0156857 0.00106342 0)
(-0.0162383 0.00101772 0)
(-0.0167648 0.000967586 0)
(-0.0172627 0.000912785 0)
(-0.0177294 0.000853094 0)
(-0.0181625 0.000788323 0)
(-0.0185592 0.000718325 0)
(-0.0189169 0.000643002 0)
(-0.0192328 0.000562311 0)
(-0.0195043 0.000476277 0)
(-0.0197285 0.000384998 0)
(-0.0199031 0.000288651 0)
(-0.0200253 0.000187502 0)
(-0.0200931 8.19074e-05 0)
(-0.0201043 -2.76782e-05 0)
(-0.0200571 -0.000140701 0)
(-0.0199499 -0.000256507 0)
(-0.0197818 -0.000374346 0)
(-0.0195518 -0.000493371 0)
(-0.0192598 -0.000612649 0)
(-0.0189059 -0.000731168 0)
(-0.0184909 -0.00084785 0)
(-0.0180161 -0.000961561 0)
(-0.0174834 -0.00107113 0)
(-0.0168952 -0.00117538 0)
(-0.0162546 -0.00127312 0)
(-0.0155652 -0.00136318 0)
(-0.0148313 -0.00144444 0)
(-0.0140575 -0.00151582 0)
(-0.0132492 -0.00157635 0)
(-0.0124121 -0.00162512 0)
(-0.0115523 -0.00166134 0)
(-0.0106765 -0.00168433 0)
(-0.00979136 -0.00169354 0)
(-0.00890407 -0.00168853 0)
(-0.0080219 -0.00166901 0)
(-0.00715227 -0.00163478 0)
(-0.00630265 -0.00158581 0)
(-0.00548052 -0.00152215 0)
(-0.00469325 -0.001444 0)
(-0.00394811 -0.0013517 0)
(-0.0032521 -0.00124572 0)
(-0.00261187 -0.00112677 0)
(-0.00203361 -0.000995808 0)
(-0.00152281 -0.00085422 0)
(-0.00108404 -0.000703981 0)
(-0.000720603 -0.000547972 0)
(-0.000434036 -0.00039045 0)
(-0.000223534 -0.00023774 0)
(-8.51473e-05 -9.91377e-05 0)
(-1.08385e-05 1.17624e-05 0)
(1.29325e-05 7.5648e-05 0)
(7.13654e-06 6.42082e-05 0)
(-1.89144e-05 7.84546e-05 0)
(-0.000129989 0.000327537 0)
(-0.000372455 0.00060694 0)
(-0.000722686 0.000881995 0)
(-0.0011678 0.00113508 0)
(-0.00169816 0.00135757 0)
(-0.00230278 0.00154656 0)
(-0.00297042 0.00170263 0)
(-0.00369036 0.00182822 0)
(-0.00445272 0.00192664 0)
(-0.00524856 0.00200149 0)
(-0.00606998 0.00205623 0)
(-0.00691013 0.00209407 0)
(-0.00776308 0.00211781 0)
(-0.00862378 0.00212984 0)
(-0.0094879 0.00213212 0)
(-0.0103518 0.00212624 0)
(-0.0112122 0.00211339 0)
(-0.0120663 0.00209448 0)
(-0.0129117 0.0020701 0)
(-0.0137459 0.00204064 0)
(-0.0145669 0.00200627 0)
(-0.0153725 0.001967 0)
(-0.0161605 0.0019227 0)
(-0.0169287 0.00187317 0)
(-0.0176749 0.00181811 0)
(-0.0183967 0.00175717 0)
(-0.0190917 0.00168999 0)
(-0.0197571 0.00161617 0)
(-0.0203904 0.00153535 0)
(-0.0209885 0.00144715 0)
(-0.0215486 0.00135127 0)
(-0.0220676 0.00124742 0)
(-0.0225423 0.00113541 0)
(-0.0229696 0.00101508 0)
(-0.0233461 0.000886406 0)
(-0.0236688 0.000749439 0)
(-0.0239345 0.000604351 0)
(-0.0241401 0.000451439 0)
(-0.0242829 0.000291134 0)
(-0.0243602 0.000124007 0)
(-0.0243695 -4.92185e-05 0)
(-0.0243088 -0.00022767 0)
(-0.0241764 -0.00041032 0)
(-0.023971 -0.000595993 0)
(-0.0236918 -0.000783371 0)
(-0.0233387 -0.000971 0)
(-0.0229119 -0.00115731 0)
(-0.0224124 -0.00134063 0)
(-0.0218417 -0.00151922 0)
(-0.0212023 -0.00169125 0)
(-0.0204969 -0.00185492 0)
(-0.0197294 -0.00200838 0)
(-0.018904 -0.00214984 0)
(-0.0180258 -0.00227758 0)
(-0.0171003 -0.00238993 0)
(-0.0161339 -0.00248539 0)
(-0.0151332 -0.00256256 0)
(-0.0141056 -0.00262022 0)
(-0.0130588 -0.00265733 0)
(-0.0120007 -0.00267302 0)
(-0.0109397 -0.00266662 0)
(-0.0098844 -0.00263766 0)
(-0.00884342 -0.00258587 0)
(-0.00782548 -0.00251116 0)
(-0.0068393 -0.00241365 0)
(-0.00589347 -0.00229367 0)
(-0.00499636 -0.00215177 0)
(-0.00415605 -0.00198879 0)
(-0.00338016 -0.00180588 0)
(-0.00267571 -0.00160468 0)
(-0.00204886 -0.00138747 0)
(-0.0015047 -0.00115742 0)
(-0.00104683 -0.000919061 0)
(-0.00067696 -0.000678801 0)
(-0.000394327 -0.000445775 0)
(-0.000195019 -0.000232916 0)
(-7.11955e-05 -5.82707e-05 0)
(-1.07518e-05 5.343e-05 0)
(2.70175e-06 6.7238e-05 0)
(-2.56076e-05 0.000154984 0)
(-0.000167757 0.000538195 0)
(-0.00046946 0.000937979 0)
(-0.000895965 0.00132127 0)
(-0.00142895 0.00167059 0)
(-0.00205625 0.00197726 0)
(-0.00276513 0.00223851 0)
(-0.00354309 0.00245536 0)
(-0.00437846 0.00263099 0)
(-0.00526059 0.00276964 0)
(-0.00617982 0.0028759 0)
(-0.00712759 0.00295431 0)
(-0.00809637 0.00300906 0)
(-0.00907964 0.00304387 0)
(-0.0100717 0.00306197 0)
(-0.0110678 0.00306601 0)
(-0.0120635 0.00305816 0)
(-0.0130554 0.00304008 0)
(-0.0140399 0.00301304 0)
(-0.0150143 0.00297788 0)
(-0.0159757 0.00293516 0)
(-0.0169216 0.00288515 0)
(-0.0178495 0.00282789 0)
(-0.0187567 0.00276325 0)
(-0.0196407 0.00269093 0)
(-0.0204989 0.00261056 0)
(-0.0213286 0.00252169 0)
(-0.0221267 0.00242381 0)
(-0.0228904 0.00231641 0)
(-0.0236164 0.00219899 0)
(-0.0243016 0.00207105 0)
(-0.0249424 0.00193218 0)
(-0.0255355 0.001782 0)
(-0.0260772 0.00162027 0)
(-0.0265639 0.00144679 0)
(-0.026992 0.00126156 0)
(-0.0273579 0.00106466 0)
(-0.0276581 0.000856363 0)
(-0.0278893 0.000637114 0)
(-0.0280481 0.00040754 0)
(-0.0281317 0.000168471 0)
(-0.0281374 -7.90566e-05 0)
(-0.0280629 -0.000333796 0)
(-0.0279064 -0.000594285 0)
(-0.0276665 -0.000858857 0)
(-0.0273425 -0.00112565 0)
(-0.026934 -0.0013926 0)
(-0.0264416 -0.00165751 0)
(-0.0258664 -0.00191802 0)
(-0.0252103 -0.00217167 0)
(-0.024476 -0.00241594 0)
(-0.023667 -0.00264826 0)
(-0.0227874 -0.00286606 0)
(-0.0218422 -0.00306685 0)
(-0.0208371 -0.00324818 0)
(-0.0197786 -0.00340778 0)
(-0.0186738 -0.00354351 0)
(-0.0175304 -0.00365343 0)
(-0.0163565 -0.00373586 0)
(-0.0151609 -0.00378932 0)
(-0.0139527 -0.00381262 0)
(-0.0127412 -0.00380484 0)
(-0.011536 -0.00376533 0)
(-0.0103469 -0.00369372 0)
(-0.00918357 -0.00358993 0)
(-0.0080557 -0.00345416 0)
(-0.00697281 -0.00328693 0)
(-0.00594416 -0.00308908 0)
(-0.00497862 -0.00286188 0)
(-0.00408447 -0.00260706 0)
(-0.00326933 -0.00232705 0)
(-0.00253982 -0.00202516 0)
(-0.00190136 -0.00170592 0)
(-0.00135781 -0.00137559 0)
(-0.00091105 -0.00104283 0)
(-0.000560554 -0.000719521 0)
(-0.000302779 -0.000421952 0)
(-0.000130528 -0.000172087 0)
(-3.37911e-05 9.41379e-07 0)
(-1.46786e-06 5.74218e-05 0)
(-3.12849e-05 0.000250132 0)
(-0.000201205 0.000794667 0)
(-0.000557112 0.00133424 0)
(-0.00105415 0.00183964 0)
(-0.00166869 0.0022953 0)
(-0.0023858 0.0026938 0)
(-0.0031908 0.00303334 0)
(-0.0040698 0.00331589 0)
(-0.00501018 0.00354564 0)
(-0.00600055 0.0037279 0)
(-0.00703067 0.00386837 0)
(-0.00809144 0.00397265 0)
(-0.00917486 0.00404597 0)
(-0.0102739 0.00409301 0)
(-0.0113825 0.00411781 0)
(-0.0124953 0.00412377 0)
(-0.0136077 0.00411364 0)
(-0.0147155 0.0040896 0)
(-0.0158152 0.00405325 0)
(-0.0169034 0.00400575 0)
(-0.0179769 0.00394782 0)
(-0.0190329 0.00387984 0)
(-0.0200684 0.00380189 0)
(-0.0210806 0.00371381 0)
(-0.0220665 0.00361528 0)
(-0.0230231 0.0035058 0)
(-0.0239474 0.00338482 0)
(-0.0248362 0.0032517 0)
(-0.0256859 0.00310578 0)
(-0.0264932 0.00294643 0)
(-0.0272544 0.00277305 0)
(-0.0279658 0.00258508 0)
(-0.0286234 0.00238209 0)
(-0.0292233 0.00216374 0)
(-0.0297615 0.00192985 0)
(-0.0302341 0.00168039 0)
(-0.0306371 0.00141554 0)
(-0.0309666 0.00113567 0)
(-0.031219 0.000841395 0)
(-0.0313907 0.000533571 0)
(-0.0314786 0.000213319 0)
(-0.0314797 -0.000117967 0)
(-0.0313916 -0.000458616 0)
(-0.0312122 -0.000806679 0)
(-0.0309402 -0.00115993 0)
(-0.0305747 -0.0015159 0)
(-0.0301156 -0.00187186 0)
(-0.0295634 -0.00222487 0)
(-0.0289195 -0.00257184 0)
(-0.0281861 -0.0029095 0)
(-0.0273662 -0.00323452 0)
(-0.0264637 -0.00354352 0)
(-0.0254833 -0.00383312 0)
(-0.0244307 -0.00410002 0)
(-0.0233121 -0.00434103 0)
(-0.0221348 -0.00455315 0)
(-0.0209067 -0.00473358 0)
(-0.0196363 -0.0048798 0)
(-0.0183328 -0.00498959 0)
(-0.0170057 -0.00506104 0)
(-0.015665 -0.00509263 0)
(-0.0143212 -0.00508317 0)
(-0.0129846 -0.00503184 0)
(-0.0116659 -0.00493822 0)
(-0.0103756 -0.00480225 0)
(-0.00912435 -0.00462428 0)
(-0.00792231 -0.00440506 0)
(-0.00677941 -0.00414582 0)
(-0.00570509 -0.00384833 0)
(-0.00470814 -0.00351502 0)
(-0.00379655 -0.00314918 0)
(-0.00297726 -0.00275527 0)
(-0.00225591 -0.00233926 0)
(-0.00163655 -0.00190919 0)
(-0.00112126 -0.00147589 0)
(-0.000709853 -0.00105385 0)
(-0.000399301 -0.000662375 0)
(-0.000183247 -0.000326766 0)
(-5.38447e-05 -7.96631e-05 0)
(-4.92511e-06 3.60625e-05 0)
(-3.61109e-05 0.000361545 0)
(-0.00023059 0.00109228 0)
(-0.000635356 0.00178998 0)
(-0.0011967 0.00243069 0)
(-0.00188606 0.00300223 0)
(-0.00268573 0.0034995 0)
(-0.00357898 0.00392253 0)
(-0.00455044 0.00427477 0)
(-0.00558649 0.00456179 0)
(-0.00667501 0.00479017 0)
(-0.0078052 0.00496683 0)
(-0.00896753 0.00509852 0)
(-0.0101536 0.00519154 0)
(-0.011356 0.00525153 0)
(-0.0125683 0.00528337 0)
(-0.0137849 0.00529121 0)
(-0.0150009 0.00527841 0)
(-0.0162116 0.00524763 0)
(-0.0174133 0.00520088 0)
(-0.0186023 0.00513959 0)
(-0.0197751 0.00506468 0)
(-0.0209285 0.00497663 0)
(-0.0220593 0.00487558 0)
(-0.0231644 0.00476134 0)
(-0.0242405 0.00463352 0)
(-0.0252843 0.00449155 0)
(-0.0262925 0.00433474 0)
(-0.0272614 0.00416233 0)
(-0.0281874 0.00397351 0)
(-0.0290667 0.00376752 0)
(-0.0298952 0.0035436 0)
(-0.030669 0.00330112 0)
(-0.0313837 0.00303953 0)
(-0.0320351 0.00275845 0)
(-0.032619 0.00245766 0)
(-0.0331308 0.00213717 0)
(-0.0335665 0.00179722 0)
(-0.0339218 0.00143831 0)
(-0.0341927 0.00106125 0)
(-0.0343754 0.000667146 0)
(-0.0344665 0.000257442 0)
(-0.0344628 -0.000166074 0)
(-0.0343617 -0.000601264 0)
(-0.034161 -0.00104564 0)
(-0.0338592 -0.00149637 0)
(-0.0334555 -0.00195029 0)
(-0.0329497 -0.00240395 0)
(-0.0323426 -0.00285362 0)
(-0.0316356 -0.00329536 0)
(-0.0308311 -0.00372504 0)
(-0.0299327 -0.00413843 0)
(-0.0289445 -0.00453125 0)
(-0.0278718 -0.00489923 0)
(-0.0267208 -0.00523821 0)
(-0.0254985 -0.00554417 0)
(-0.0242129 -0.00581332 0)
(-0.0228726 -0.00604215 0)
(-0.021487 -0.00622752 0)
(-0.0200661 -0.00636665 0)
(-0.0186203 -0.0064572 0)
(-0.0171606 -0.00649727 0)
(-0.0156981 -0.00648543 0)
(-0.0142443 -0.00642076 0)
(-0.0128104 -0.00630277 0)
(-0.0114079 -0.00613152 0)
(-0.0100479 -0.00590755 0)
(-0.00874129 -0.00563193 0)
(-0.00749853 -0.00530634 0)
(-0.00632946 -0.00493316 0)
(-0.00524324 -0.00451559 0)
(-0.00424809 -0.0040579 0)
(-0.00335116 -0.00356573 0)
(-0.00255821 -0.00304653 0)
(-0.00187343 -0.00251011 0)
(-0.0012991 -0.00196939 0)
(-0.000835336 -0.00144128 0)
(-0.000479657 -0.000947754 0)
(-0.000226495 -0.000516935 0)
(-6.98573e-05 -0.000184274 0)
(-7.52633e-06 5.224e-06 0)
(-4.02405e-05 0.000487138 0)
(-0.000256353 0.00142654 0)
(-0.000704801 0.00229935 0)
(-0.00132424 0.00308788 0)
(-0.00208166 0.00378432 0)
(-0.00295673 0.00438685 0)
(-0.00393065 0.00489804 0)
(-0.00498656 0.0053234 0)
(-0.00610977 0.00567023 0)
(-0.00728743 0.00594663 0)
(-0.00850821 0.00616091 0)
(-0.00976215 0.00632105 0)
(-0.0110405 0.00643447 0)
(-0.0123356 0.00650778 0)
(-0.0136408 0.00654677 0)
(-0.0149501 0.00655629 0)
(-0.0162584 0.00654034 0)
(-0.0175609 0.00650208 0)
(-0.0188535 0.0064439 0)
(-0.0201323 0.00636752 0)
(-0.0213935 0.00627406 0)
(-0.0226338 0.00616409 0)
(-0.0238496 0.0060378 0)
(-0.0250376 0.005895 0)
(-0.0261942 0.00573522 0)
(-0.027316 0.00555779 0)
(-0.0283992 0.0053619 0)
(-0.02944 0.00514665 0)
(-0.0304345 0.00491109 0)
(-0.0313785 0.00465429 0)
(-0.0322678 0.00437538 0)
(-0.0330979 0.00407359 0)
(-0.0338644 0.0037483 0)
(-0.0345626 0.00339904 0)
(-0.0351879 0.0030256 0)
(-0.0357357 0.00262799 0)
(-0.0362014 0.00220654 0)
(-0.0365804 0.00176189 0)
(-0.0368685 0.00129505 0)
(-0.0370616 0.000807394 0)
(-0.037156 0.000300721 0)
(-0.0371482 -0.000222755 0)
(-0.0370354 -0.00076039 0)
(-0.0368154 -0.00130911 0)
(-0.0364864 -0.00186541 0)
(-0.0360475 -0.00242541 0)
(-0.0354986 -0.00298483 0)
(-0.0348405 -0.00353909 0)
(-0.0340749 -0.00408332 0)
(-0.0332043 -0.00461245 0)
(-0.0322326 -0.00512126 0)
(-0.0311645 -0.0056045 0)
(-0.0300056 -0.00605692 0)
(-0.0287628 -0.00647342 0)
(-0.0274437 -0.00684906 0)
(-0.0260571 -0.00717922 0)
(-0.0246123 -0.00745965 0)
(-0.0231196 -0.0076865 0)
(-0.0215899 -0.00785644 0)
(-0.0200346 -0.00796667 0)
(-0.0184653 -0.00801495 0)
(-0.0168942 -0.00799964 0)
(-0.0153335 -0.00791971 0)
(-0.0137953 -0.00777471 0)
(-0.0122916 -0.00756485 0)
(-0.0108343 -0.00729094 0)
(-0.00943483 -0.00695448 0)
(-0.00810395 -0.00655769 0)
(-0.00685191 -0.00610363 0)
(-0.00568809 -0.00559638 0)
(-0.00462088 -0.00504123 0)
(-0.00365752 -0.00444508 0)
(-0.00280385 -0.00381688 0)
(-0.00206409 -0.00316816 0)
(-0.00144065 -0.00251385 0)
(-0.000933888 -0.00187309 0)
(-0.000541718 -0.00127024 0)
(-0.000259159 -0.000735894 0)
(-8.15177e-05 -0.000307859 0)
(-9.27431e-06 -3.27562e-05 0)
(-4.38005e-05 0.000625118 0)
(-0.000278958 0.00179328 0)
(-0.000766293 0.0028568 0)
(-0.0014379 0.00380483 0)
(-0.00225688 0.0046347 0)
(-0.00320045 0.00534862 0)
(-0.00424784 0.00595231 0)
(-0.0053807 0.00645385 0)
(-0.00658329 0.00686265 0)
(-0.00784199 0.0071886 0)
(-0.00914494 0.00744153 0)
(-0.0104818 0.00763081 0)
(-0.0118435 0.00776502 0)
(-0.0132221 0.00785182 0)
(-0.0146108 0.00789787 0)
(-0.0160034 0.00790879 0)
(-0.0173945 0.00788919 0)
(-0.0187794 0.00784273 0)
(-0.0201535 0.0077722 0)
(-0.0215128 0.00767958 0)
(-0.0228534 0.00756619 0)
(-0.0241718 0.00743273 0)
(-0.0254641 0.00727939 0)
(-0.0267269 0.00710597 0)
(-0.0279563 0.00691194 0)
(-0.0291486 0.00669652 0)
(-0.0303 0.00645877 0)
(-0.0314063 0.00619763 0)
(-0.0324634 0.005912 0)
(-0.0334668 0.00560081 0)
(-0.034412 0.00526303 0)
(-0.0352944 0.00489776 0)
(-0.036109 0.00450427 0)
(-0.0368511 0.00408205 0)
(-0.0375157 0.00363084 0)
(-0.0380977 0.00315068 0)
(-0.0385922 0.00264198 0)
(-0.0389946 0.00210551 0)
(-0.0393 0.00154251 0)
(-0.0395041 0.000954628 0)
(-0.0396029 0.000344042 0)
(-0.0395926 -0.000286583 0)
(-0.0394703 -0.000934061 0)
(-0.0392333 -0.00159469 0)
(-0.0388798 -0.00226424 0)
(-0.0384088 -0.00293804 0)
(-0.0378202 -0.00361094 0)
(-0.0371147 -0.0042774 0)
(-0.0362941 -0.00493156 0)
(-0.0353613 -0.0055673 0)
(-0.0343203 -0.00617835 0)
(-0.0331762 -0.00675836 0)
(-0.0319353 -0.00730103 0)
(-0.0306049 -0.00780021 0)
(-0.0291935 -0.00825 0)
(-0.0277104 -0.00864487 0)
(-0.026166 -0.00897973 0)
(-0.0245714 -0.00925004 0)
(-0.0229383 -0.00945187 0)
(-0.0212791 -0.00958195 0)
(-0.0196065 -0.00963773 0)
(-0.0179334 -0.00961739 0)
(-0.0162729 -0.00951983 0)
(-0.0146379 -0.00934473 0)
(-0.0130412 -0.00909252 0)
(-0.0114952 -0.0087644 0)
(-0.0100117 -0.00836236 0)
(-0.00860206 -0.00788928 0)
(-0.00727673 -0.00734902 0)
(-0.00604524 -0.00674659 0)
(-0.00491609 -0.00608841 0)
(-0.00389651 -0.00538268 0)
(-0.00299232 -0.00463984 0)
(-0.0022077 -0.00387316 0)
(-0.00154506 -0.00309947 0)
(-0.00100484 -0.00234002 0)
(-0.000585115 -0.00162139 0)
(-0.00028116 -0.000976441 0)
(-8.89151e-05 -0.000445116 0)
(-1.02329e-05 -7.55451e-05 0)
(-4.68917e-05 0.000773948 0)
(-0.000298831 0.00218879 0)
(-0.000820722 0.00345719 0)
(-0.00153904 0.00457553 0)
(-0.00241348 0.00554684 0)
(-0.00341904 0.00637794 0)
(-0.00453315 0.00707823 0)
(-0.005736 0.00765879 0)
(-0.00701083 0.00813148 0)
(-0.00834325 0.00850825 0)
(-0.00972087 0.00880067 0)
(-0.0111329 0.00901956 0)
(-0.0125702 0.00917479 0)
(-0.0140244 0.00927509 0)
(-0.0154886 0.00932804 0)
(-0.0169564 0.00934002 0)
(-0.0184224 0.00931628 0)
(-0.0198816 0.00926098 0)
(-0.0213293 0.0091773 0)
(-0.0227616 0.00906749 0)
(-0.0241742 0.00893304 0)
(-0.0255635 0.00877477 0)
(-0.0269255 0.00859289 0)
(-0.0282565 0.00838718 0)
(-0.0295527 0.00815703 0)
(-0.03081 0.00790153 0)
(-0.0320243 0.00761961 0)
(-0.0331915 0.00731005 0)
(-0.034307 0.00697158 0)
(-0.0353662 0.00660295 0)
(-0.0363644 0.00620299 0)
(-0.0372965 0.00577065 0)
(-0.0381575 0.00530508 0)
(-0.0389422 0.0048057 0)
(-0.0396452 0.0042722 0)
(-0.0402613 0.00370464 0)
(-0.0407852 0.00310349 0)
(-0.0412117 0.00246968 0)
(-0.0415358 0.00180464 0)
(-0.0417528 0.00111033 0)
(-0.0418582 0.000389305 0)
(-0.0418481 -0.000355289 0)
(-0.041719 -0.00111969 0)
(-0.0414681 -0.00189953 0)
(-0.0410933 -0.00268982 0)
(-0.0405935 -0.003485 0)
(-0.0399683 -0.00427899 0)
(-0.0392186 -0.00506521 0)
(-0.0383461 -0.00583673 0)
(-0.037354 -0.00658626 0)
(-0.0362465 -0.00730638 0)
(-0.0350292 -0.00798955 0)
(-0.0337088 -0.00862829 0)
(-0.0322932 -0.00921533 0)
(-0.0307917 -0.00974369 0)
(-0.0292144 -0.0102068 0)
(-0.0275726 -0.0105988 0)
(-0.0258784 -0.0109144 0)
(-0.0241445 -0.0111489 0)
(-0.0223843 -0.0112986 0)
(-0.0206115 -0.0113608 0)
(-0.0188401 -0.0113334 0)
(-0.017084 -0.0112153 0)
(-0.015357 -0.0110065 0)
(-0.0136725 -0.0107076 0)
(-0.0120437 -0.0103205 0)
(-0.0104829 -0.00984761 0)
(-0.00900169 -0.00929268 0)
(-0.00761082 -0.00866045 0)
(-0.00631995 -0.00795698 0)
(-0.0051376 -0.0071899 0)
(-0.00407092 -0.00636877 0)
(-0.0031256 -0.00550556 0)
(-0.00230568 -0.00461526 0)
(-0.00161338 -0.00371659 0)
(-0.00104901 -0.00283285 0)
(-0.000610498 -0.00199277 0)
(-0.000292987 -0.0012314 0)
(-9.23346e-05 -0.00059086 0)
(-1.04879e-05 -0.000120955 0)
(-4.95922e-05 0.000932315 0)
(-0.000316346 0.00260977 0)
(-0.000868937 0.00409587 0)
(-0.001629 0.00539446 0)
(-0.00255329 0.00651469 0)
(-0.00361484 0.00746842 0)
(-0.0047894 0.0082692 0)
(-0.00605585 0.00893146 0)
(-0.00739639 0.00946984 0)
(-0.00879592 0.00989859 0)
(-0.0102415 0.0102312 0)
(-0.0117221 0.0104801 0)
(-0.013228 0.0106564 0)
(-0.0147509 0.0107702 0)
(-0.0162837 0.0108299 0)
(-0.01782 0.0108426 0)
(-0.0193541 0.0108143 0)
(-0.020881 0.0107497 0)
(-0.022396 0.0106522 0)
(-0.0238949 0.0105244 0)
(-0.0253735 0.0103681 0)
(-0.026828 0.010184 0)
(-0.0282543 0.00997245 0)
(-0.0296486 0.00973316 0)
(-0.0310069 0.00946542 0)
(-0.0323251 0.00916823 0)
(-0.0335988 0.00884032 0)
(-0.0348237 0.00848032 0)
(-0.0359951 0.00808677 0)
(-0.0371081 0.00765823 0)
(-0.0381577 0.00719335 0)
(-0.0391387 0.00669092 0)
(-0.0400457 0.00614997 0)
(-0.0408732 0.0055698 0)
(-0.0416156 0.00495004 0)
(-0.0422671 0.00429076 0)
(-0.0428221 0.00359247 0)
(-0.0432751 0.00285624 0)
(-0.0436207 0.0020837 0)
(-0.0438535 0.00127711 0)
(-0.0439689 0.000439412 0)
(-0.0439624 -0.00042575 0)
(-0.0438301 -0.00131401 0)
(-0.043569 -0.00222029 0)
(-0.0431765 -0.00313879 0)
(-0.0426513 -0.00406301 0)
(-0.0419929 -0.00498583 0)
(-0.0412019 -0.00589959 0)
(-0.0402803 -0.00679611 0)
(-0.0392312 -0.0076669 0)
(-0.0380591 -0.00850321 0)
(-0.03677 -0.0092962 0)
(-0.0353711 -0.0100371 0)
(-0.033871 -0.0107174 0)
(-0.0322798 -0.0113289 0)
(-0.0306085 -0.0118641 0)
(-0.0288693 -0.0123159 0)
(-0.0270754 -0.0126783 0)
(-0.0252408 -0.0129461 0)
(-0.0233799 -0.013115 0)
(-0.0215075 -0.013182 0)
(-0.0196387 -0.013145 0)
(-0.0177885 -0.0130031 0)
(-0.0159716 -0.0127563 0)
(-0.0142023 -0.0124058 0)
(-0.0124943 -0.0119541 0)
(-0.0108605 -0.0114044 0)
(-0.00931293 -0.0107614 0)
(-0.0078625 -0.0100307 0)
(-0.00651898 -0.00921976 0)
(-0.00529083 -0.00833737 0)
(-0.00418505 -0.00739458 0)
(-0.0032071 -0.00640494 0)
(-0.0023607 -0.00538521 0)
(-0.0016477 -0.00435602 0)
(-0.00106799 -0.00334273 0)
(-0.000619033 -0.00237625 0)
(-0.000295386 -0.00149392 0)
(-9.21323e-05 -0.000740217 0)
(-1.01246e-05 -0.000166997 0)
(-5.1964e-05 0.00109909 0)
(-0.000331827 0.00305335 0)
(-0.000911715 0.00476867 0)
(-0.00170908 0.00625659 0)
(-0.00267814 0.00753268 0)
(-0.00379019 0.00861419 0)
(-0.00501948 0.00951915 0)
(-0.00634366 0.0102657 0)
(-0.00774401 0.0108715 0)
(-0.00920471 0.0113533 0)
(-0.0107123 0.0117268 0)
(-0.0122554 0.012006 0)
(-0.013824 0.0122036 0)
(-0.0154098 0.0123308 0)
(-0.0170054 0.0123971 0)
(-0.0186044 0.0124104 0)
(-0.0202009 0.0123772 0)
(-0.02179 0.0123029 0)
(-0.023367 0.0121912 0)
(-0.0249275 0.012045 0)
(-0.0264674 0.0118661 0)
(-0.0279826 0.0116556 0)
(-0.0294692 0.0114136 0)
(-0.0309232 0.0111398 0)
(-0.0323404 0.0108335 0)
(-0.0337167 0.0104935 0)
(-0.0350475 0.0101183 0)
(-0.0363284 0.00970633 0)
(-0.0375545 0.009256 0)
(-0.0387207 0.00876564 0)
(-0.0398217 0.00823367 0)
(-0.0408522 0.00765873 0)
(-0.0418063 0.00703964 0)
(-0.0426783 0.0063756 0)
(-0.0434621 0.00566614 0)
(-0.0441517 0.00491131 0)
(-0.0447411 0.00411164 0)
(-0.0452242 0.00326831 0)
(-0.045595 0.00238313 0)
(-0.0458479 0.00145867 0)
(-0.0459776 0.000498256 0)
(-0.0459791 -0.000493972 0)
(-0.0458482 -0.00151302 0)
(-0.0455811 -0.00255306 0)
(-0.0451751 -0.00360741 0)
(-0.0446284 -0.00466858 0)
(-0.0439401 -0.00572834 0)
(-0.0431109 -0.0067778 0)
(-0.0421425 -0.00780747 0)
(-0.0410382 -0.00880747 0)
(-0.0398026 -0.00976762 0)
(-0.0384422 -0.0106776 0)
(-0.0369648 -0.0115273 0)
(-0.0353795 -0.0123067 0)
(-0.0336973 -0.0130063 0)
(-0.0319303 -0.0136174 0)
(-0.0300918 -0.014132 0)
(-0.0281961 -0.014543 0)
(-0.0262584 -0.0148446 0)
(-0.0242946 -0.0150321 0)
(-0.0223207 -0.015102 0)
(-0.0203531 -0.0150525 0)
(-0.0184078 -0.0148825 0)
(-0.0165008 -0.0145928 0)
(-0.0146472 -0.014185 0)
(-0.0128615 -0.0136623 0)
(-0.0111571 -0.013029 0)
(-0.00954646 -0.0122907 0)
(-0.00804077 -0.0114544 0)
(-0.00664984 -0.0105286 0)
(-0.00538199 -0.00952374 0)
(-0.00424401 -0.00845238 0)
(-0.00324094 -0.00732977 0)
(-0.00237605 -0.0061745 0)
(-0.00165058 -0.00500919 0)
(-0.00106371 -0.00386135 0)
(-0.000612071 -0.00276422 0)
(-0.000289174 -0.00175764 0)
(-8.86629e-05 -0.000888711 0)
(-9.21781e-06 -0.000211886 0)
(-5.4058e-05 0.0012733 0)
(-0.000345553 0.00351699 0)
(-0.000949751 0.00547191 0)
(-0.00178048 0.00715744 0)
(-0.00278975 0.0085958 0)
(-0.00394735 0.00980992 0)
(-0.00522619 0.0108226 0)
(-0.00660282 0.0116559 0)
(-0.00805763 0.0123308 0)
(-0.00957416 0.0128668 0)
(-0.0111385 0.0132818 0)
(-0.0127388 0.0135917 0)
(-0.0143651 0.0138109 0)
(-0.0160086 0.0139516 0)
(-0.017662 0.0140243 0)
(-0.0193188 0.0140381 0)
(-0.0209732 0.014 0)
(-0.02262 0.0139157 0)
(-0.0242547 0.0137897 0)
(-0.0258729 0.0136248 0)
(-0.0274703 0.0134232 0)
(-0.0290431 0.0131858 0)
(-0.030587 0.012913 0)
(-0.0320981 0.0126044 0)
(-0.0335723 0.0122589 0)
(-0.0350051 0.0118754 0)
(-0.036392 0.0114521 0)
(-0.0377284 0.0109873 0)
(-0.0390093 0.0104791 0)
(-0.0402293 0.00992553 0)
(-0.041383 0.0093249 0)
(-0.0424647 0.00867556 0)
(-0.0434684 0.00797616 0)
(-0.0443878 0.0072257 0)
(-0.0452166 0.00642362 0)
(-0.0459483 0.00556986 0)
(-0.0465764 0.00466499 0)
(-0.0470943 0.00371023 0)
(-0.0474955 0.00270757 0)
(-0.0477738 0.00165984 0)
(-0.0479232 0.000570744 0)
(-0.0479382 -0.000555057 0)
(-0.0478139 -0.00171193 0)