/*--------------------------------*- C++ -*----------------------------------*\
  =========                 |
  \\      /  F ield         | OpenFOAM: The Open Source CFD Toolbox
   \\    /   O peration     | Website:  https://openfoam.org
    \\  /    A nd           | Version:  7
     \\/     M anipulation  |
\*---------------------------------------------------------------------------*/
FoamFile
{
    version     2.0;
    format      ascii;
    class       volScalarField;
    location    "1.15";
    object      p;
}
// * * * * * * * * * * * * * * * * * * * * * * * * * * * * * * * * * * * * * //

dimensions      [0 2 -2 0 0 0 0];

internalField   nonuniform List<scalar> 
6400
(
1.06645e-06
-1.48879e-06
-6.52673e-05
-0.000186983
-0.000351676
-0.000546037
-0.000758482
-0.000979188
-0.00120013
-0.00141491
-0.0016185
-0.00180698
-0.00197738
-0.00212742
-0.00225544
-0.00236022
-0.00244089
-0.00249684
-0.00252765
-0.00253305
-0.00251286
-0.00246696
-0.0023953
-0.00229788
-0.00217472
-0.00202591
-0.00185159
-0.00165199
-0.00142743
-0.00117833
-0.000905273
-0.000608986
-0.000290379
4.9436e-05
0.000409127
0.00078713
0.00118163
0.00159058
0.00201166
0.00244231
0.00287973
0.00332088
0.00376254
0.00420129
0.0046336
0.00505579
0.00546418
0.00585504
0.0062247
0.00656962
0.00688638
0.00717182
0.00742306
0.00763757
0.00781322
0.00794833
0.00804173
0.00809281
0.00810149
0.00806833
0.00799448
0.00788172
0.00773243
0.00754962
0.00733687
0.00709833
0.00683869
0.00656315
0.00627738
0.00598751
0.00570008
0.00542205
0.00516071
0.00492367
0.00471875
0.00455365
0.00443526
0.00436873
0.00435607
0.00438462
5.09505e-06
1.93883e-06
-5.44238e-05
-0.000157559
-0.000295425
-0.00045856
-0.000638115
-0.000826215
-0.00101605
-0.00120197
-0.00137936
-0.00154451
-0.00169449
-0.00182702
-0.00194034
-0.0020331
-0.00210432
-0.00215325
-0.00217933
-0.00218218
-0.00216153
-0.00211718
-0.00204901
-0.00195697
-0.00184105
-0.00170132
-0.00153791
-0.00135104
-0.00114101
-0.000908268
-0.00065336
-0.000376999
-8.00649e-05
0.000236376
0.000571055
0.000922489
0.00128898
0.00166858
0.00205916
0.0024583
0.00286343
0.00327173
0.00368023
0.00408578
0.00448513
0.00487493
0.00525179
0.00561233
0.00595322
0.00627121
0.00656324
0.00682644
0.00705825
0.00725638
0.00741896
0.00754452
0.00763206
0.00768108
0.00769161
0.00766422
0.00760005
0.0075008
0.00736872
0.00720662
0.00701784
0.00680622
0.0065761
0.00633222
0.00607977
0.00582427
0.0055716
0.00532787
0.00509942
0.00489267
0.00471399
0.00456937
0.00446371
0.00440052
0.00438435
0.00441309
6.94754e-05
5.83141e-05
1.5004e-06
-9.3874e-05
-0.000217855
-0.00036296
-0.000522182
-0.000689014
-0.000857705
-0.00102333
-0.00118179
-0.00132968
-0.00146428
-0.00158339
-0.0016853
-0.00176865
-0.00183242
-0.0018758
-0.00189818
-0.00189913
-0.00187831
-0.00183547
-0.00177045
-0.00168315
-0.00157355
-0.00144167
-0.00128764
-0.00111163
-0.000913949
-0.000694993
-0.000455294
-0.000195525
8.3478e-05
0.000380705
0.000694956
0.00102483
0.00136872
0.00172482
0.00209108
0.00246528
0.00284497
0.00322754
0.00361018
0.00398998
0.00436388
0.00472878
0.0050815
0.0054189
0.00573789
0.00603545
0.00630875
0.00655515
0.00677225
0.00695799
0.00711064
0.00722888
0.00731182
0.00735903
0.00737061
0.00734713
0.0072897
0.00719996
0.00708007
0.00693267
0.00676093
0.00656843
0.00635921
0.00613769
0.00590863
0.00567711
0.00544844
0.00522812
0.00502174
0.0048349
0.00467306
0.00454128
0.00444363
0.00438339
0.00436778
0.00440094
0.000192615
0.000161985
9.59396e-05
-4.12712e-07
-0.000120013
-0.000256656
-0.000404533
-0.000558257
-0.000713001
-0.000864569
-0.00100939
-0.00114447
-0.00126736
-0.00137606
-0.00146898
-0.00154484
-0.00160265
-0.00164162
-0.00166115
-0.00166077
-0.00164011
-0.00159891
-0.00153698
-0.00145418
-0.00135046
-0.00122581
-0.00108032
-0.000914146
-0.000727541
-0.00052087
-0.000294617
-4.94074e-05
0.000213983
0.000494609
0.000791345
0.00110288
0.0014277
0.00176409
0.00211014
0.00246374
0.00282259
0.0031842
0.00354595
0.00390505
0.00425864
0.00460376
0.00493742
0.00525663
0.00555848
0.00584012
0.00609886
0.0063322
0.00653791
0.00671402
0.00685891
0.00697136
0.00705054
0.00709609
0.0071081
0.00708716
0.00703434
0.00695124
0.0068399
0.00670287
0.00654313
0.0063641
0.00616957
0.00596367
0.00575084
0.00553577
0.00532335
0.00511855
0.00492645
0.00475202
0.00460013
0.00447536
0.00438143
0.00432175
0.00430459
0.00433615
0.000360878
0.00030162
0.000219526
0.000116348
-4.64477e-06
-0.00013838
-0.000280044
-0.000425292
-0.000570175
-0.000711209
-0.000845391
-0.000970174
-0.00108344
-0.00118344
-0.00126877
-0.00133827
-0.00139104
-0.00142634
-0.0014436
-0.00144235
-0.00142224
-0.00138298
-0.00132435
-0.0012462
-0.00114844
-0.00103103
-0.00089402
-0.000737519
-0.000561734
-0.000366978
-0.000153679
7.76023e-05
0.000326157
0.000591116
0.000871438
0.0011659
0.00147309
0.0017914
0.00211904
0.002454
0.0027941
0.00313701
0.00348022
0.00382109
0.00415687
0.00448477
0.00480191
0.00510546
0.00539261
0.00566064
0.00590699
0.00612926
0.00632529
0.00649323
0.00663152
0.00673899
0.00681486
0.00685879
0.00687088
0.0068517
0.00680231
0.00672422
0.00661941
0.00649031
0.00633977
0.00617102
0.00598765
0.00579355
0.00559287
0.00538997
0.00518933
0.00499553
0.00481315
0.0046467
0.00450055
0.00437885
0.00428509
0.00422265
0.00419928
0.00422097
0.000561894
0.00046831
0.000365161
0.000250498
0.000123423
-1.19844e-05
-0.000151769
-0.000292539
-0.000431177
-0.000564886
-0.00069123
-0.000808124
-0.000913816
-0.00100685
-0.00108603
-0.00115038
-0.00119911
-0.00123156
-0.00124723
-0.00124567
-0.00122655
-0.00118958
-0.00113452
-0.00106121
-0.00096951
-0.000859357
-0.000730745
-0.000583741
-0.000418493
-0.000235252
-3.43777e-05
0.00018364
0.000418172
0.000668434
0.000933474
0.00121217
0.0015032
0.00180506
0.00211607
0.00243434
0.0027578
0.00308423
0.00341122
0.00373627
0.00405673
0.00436991
0.00467304
0.00496339
0.00523824
0.00549496
0.00573105
0.00594419
0.00613229
0.00629353
0.0064264
0.00652975
0.00660283
0.00664528
0.00665722
0.00663917
0.00659217
0.00651766
0.00641754
0.00629416
0.00615023
0.00598884
0.0058134
0.00562758
0.00543528
0.00524057
0.00504761
0.00486063
0.00468381
0.00452125
0.0043769
0.00425453
0.0041574
0.00408873
0.00405477
0.00406003
0.000784703
0.000653518
0.000525929
0.000396205
0.000259286
0.000118422
-2.316e-05
-0.000162929
-0.000298538
-0.000427841
-0.000548955
-0.000660259
-0.000760383
-0.000848182
-0.0009227
-0.00098316
-0.00102892
-0.00105943
-0.00107426
-0.00107303
-0.00105541
-0.00102113
-0.000969958
-0.00090169
-0.000816172
-0.000713295
-0.000593005
-0.00045531
-0.000300296
-0.00012814
6.08694e-05
0.000266327
0.000487688
0.000724261
0.00097519
0.00123945
0.00151581
0.0018029
0.0020991
0.00240265
0.00271158
0.00302375
0.00333687
0.00364851
0.00395613
0.00425709
0.00454873
0.00482835
0.0050933
0.00534101
0.00556901
0.00577502
0.00595696
0.00611303
0.00624173
0.00634192
0.00641282
0.00645408
0.00646575
0.00644837
0.00640288
0.00633069
0.00623364
0.00611396
0.00597428
0.00581754
0.00564701
0.00546617
0.00527874
0.00508852
0.00489943
0.00471537
0.0045402
0.0043777
0.00423146
0.00410488
0.00400105
0.00392293
0.00387473
0.00385897
0.00101968
0.000849267
0.000695053
0.000547706
0.000398131
0.000248884
0.000102584
-3.90185e-05
-0.000174281
-0.000301668
-0.000419827
-0.000527591
-0.000623976
-0.000708155
-0.000779434
-0.000837243
-0.000881106
-0.000910608
-0.000925395
-0.000925155
-0.000909607
-0.000878489
-0.000831562
-0.000768613
-0.000689454
-0.000593933
-0.000481943
-0.000353428
-0.000208404
-4.69709e-05
0.000130667
0.000324192
0.000533155
0.00075696
0.00099485
0.0012459
0.00150899
0.00178282
0.00206591
0.00235656
0.00265291
0.00295291
0.00325434
0.00355484
0.00385192
0.00414303
0.00442553
0.00469677
0.00495412
0.00519502
0.00541701
0.00561781
0.00579534
0.00594778
0.00607362
0.00617166
0.0062411
0.00628156
0.00629305
0.00627604
0.00623144
0.00616058
0.00606524
0.00594757
0.0058101
0.00565567
0.00548742
0.00530869
0.00512301
0.00493401
0.00474537
0.00456076
0.00438379
0.00421792
0.00406647
0.00393253
0.00381899
0.00372863
0.00366336
0.00362348
0.00125844
0.00104824
0.000866137
0.000699436
0.000535176
0.000375346
0.000222056
7.63537e-05
-6.07629e-05
-0.000188327
-0.000305487
-0.000411518
-0.000505814
-0.000587864
-0.000657243
-0.000713598
-0.000756627
-0.000786052
-0.000801619
-0.000803089
-0.000790222
-0.000762778
-0.000720522
-0.000663222
-0.000590659
-0.000502636
-0.000398986
-0.000279586
-0.000144376
6.62799e-06
0.000173312
0.000355453
0.000552701
0.000764564
0.000990386
0.00122934
0.00148042
0.00174242
0.00201394
0.0022934
0.00257899
0.00286874
0.00316051
0.00345199
0.00374073
0.00402421
0.00429982
0.0045649
0.00481685
0.00505307
0.00527109
0.0054686
0.00564348
0.00579386
0.00591817
0.00601517
0.00608401
0.00612423
0.00613578
0.00611908
0.00607497
0.00600472
0.00591003
0.00579299
0.00565603
0.00550191
0.00533366
0.00515452
0.00496787
0.0047772
0.00458601
0.00439777
0.0042159
0.00404363
0.00388402
0.00373992
0.00361408
0.0035091
0.00342459
0.0033586
0.00149375
0.00124383
0.00103324
0.000846082
0.000665729
0.000493702
0.000331684
0.000180093
3.93348e-05
-9.01514e-05
-0.000207989
-0.00031387
-0.000407553
-0.000488844
-0.00055758
-0.000613629
-0.000656866
-0.000687153
-0.00070434
-0.000708263
-0.000698731
-0.000675527
-0.000638417
-0.000587153
-0.000521483
-0.000441159
-0.000345952
-0.000235668
-0.000110165
3.06311e-05
0.000186702
0.000357926
0.000544061
0.000744716
0.000959345
0.00118723
0.00142745
0.00167892
0.00194032
0.00221014
0.00248667
0.002768
0.00305203
0.00333649
0.00361897
0.00389695
0.00416782
0.00442893
0.00467762
0.00491126
0.00512735
0.00532349
0.00549751
0.00564746
0.00577169
0.00586889
0.00593811
0.00597881
0.00599088
0.00597465
0.00593088
0.00586077
0.00576596
0.00564844
0.00551061
0.00535512
0.00518494
0.0050032
0.0048132
0.0046183
0.00442188
0.00422728
0.00403774
0.00385634
0.00368597
0.00352923
0.00338884
0.00326728
0.00316187
0.00306856
0.00171919
0.00143006
0.00119084
0.000982603
0.000785235
0.000599871
0.000427833
0.000268967
0.000123134
-9.71472e-06
-0.000129647
-0.000236753
-0.000331141
-0.00041292
-0.000482187
-0.000539024
-0.000583482
-0.000615563
-0.000635221
-0.000642368
-0.000636861
-0.000618506
-0.00058707
-0.000542287
-0.000483866
-0.000411507
-0.000324916
-0.000223821
-0.000107992
2.27377e-05
0.000168454
0.000329142
0.000504669
0.000694755
0.000898965
0.00111668
0.00134711
0.00158923
0.00184183
0.00210348
0.00237254
0.00264714
0.00292524
0.00320459
0.0034828
0.00375733
0.00402557
0.00428482
0.00453236
0.00476553
0.00498172
0.00517847
0.00535348
0.00550473
0.00563044
0.00572921
0.00579997
0.00584209
0.00585534
0.00583997
0.00579664
0.00572648
0.00563104
0.00551226
0.00537245
0.00521423
0.00504048
0.00485428
0.00465885
0.00445747
0.00425345
0.00405004
0.00385037
0.00365742
0.00347393
0.00330238
0.00314549
0.00300569
0.00287813
0.00275674
0.00192905
0.00160147
0.00133379
0.00110421
0.000889288
0.000689828
0.000506843
0.000339652
0.000187617
5.02323e-05
-7.29856e-05
-0.000182503
-0.000278763
-0.000362164
-0.00043305
-0.000491714
-0.000538376
-0.000573171
-0.000596159
-0.000607321
-0.000606563
-0.00059371
-0.000568527
-0.000530726
-0.000479975
-0.000415917
-0.000338188
-0.000246433
-0.00014033
-1.96103e-05
0.000115918
0.000266354
0.000431678
0.000611729
0.000806183
0.00101454
0.00123609
0.00146994
0.00171495
0.00196977
0.00223283
0.0025023
0.00277618
0.00305224
0.00332809
0.00360117
0.00386882
0.0041283
0.00437683
0.00461163
0.00483001
0.00502938
0.00520735
0.00536173
0.00549064
0.00559251
0.00566617
0.00571083
0.00572616
0.00571228
0.00566976
0.00559962
0.00550335
0.0053828
0.00524022
0.00507819
0.00489953
0.00470728
0.00450463
0.00429482
0.00408111
0.00386671
0.0036547
0.00344802
0.00324932
0.00306102
0.00288589
0.00272644
0.00257572
0.00242574
0.00211813
0.00175301
0.00145727
0.00120637
0.00097364
0.000759626
0.000565058
0.000388774
0.000229665
8.68007e-05
-4.0696e-05
-0.000153647
-0.000252809
-0.000338858
-0.000412374
-0.000473849
-0.000523665
-0.000562084
-0.000589264
-0.000605255
-0.000610001
-0.000603347
-0.000585049
-0.000554792
-0.000512198
-0.000456851
-0.000388309
-0.00030613
-0.000209895
-9.92284e-05
2.61773e-05
0.000166538
0.000321955
0.000492388
0.000677632
0.000877298
0.0010908
0.00131732
0.00155583
0.00180505
0.00206346
0.0023293
0.00260058
0.00287508
0.00315041
0.00342397
0.00369306
0.00395486
0.00420648
0.00444507
0.00466778
0.0048719
0.00505488
0.00521438
0.00534834
0.00545506
0.00553316
0.00558174
0.00560029
0.0055888
0.00554772
0.00547798
0.00538094
0.00525841
0.00511256
0.00494593
0.00476131
0.00456172
0.00435034
0.0041304
0.00390516
0.00367783
0.0034515
0.00322911
0.00301331
0.00280649
0.00261159
0.00243122
0.00225646
0.00207749
0.00228163
0.00187999
0.00155677
0.00128474
0.00103419
0.000805401
0.000598856
0.000412937
0.000246096
9.69987e-05
-3.56005e-05
-0.000152861
-0.000255838
-0.000345467
-0.000422553
-0.000487773
-0.000541663
-0.000584605
-0.000616846
-0.000638497
-0.000649538
-0.000649823
-0.000639096
-0.000617008
-0.000583132
-0.000536984
-0.000478042
-0.000405772
-0.000319647
-0.00021918
-0.000103943
2.64035e-05
0.000172088
0.000333195
0.000509645
0.000701172
0.000907296
0.00112731
0.00136028
0.001605
0.00186001
0.0021236
0.0023938
0.00266841
0.00294499
0.00322094
0.00349346
0.00375965
0.00401653
0.00426109
0.00449036
0.00470146
0.00489165
0.0050584
0.00519949
0.00531297
0.00539732
0.00545142
0.00547461
0.00546669
0.00542799
0.00535929
0.00526187
0.00513744
0.00498811
0.00481638
0.00462503
0.00441708
0.0041957
0.00396417
0.00372579
0.00348381
0.00324138
0.00300149
0.00276684
0.0025399
0.00232378
0.00212131
0.00192168
0.00171328
0.00241509
0.00197802
0.00162799
0.0013352
0.00106698
0.000823385
0.000604656
0.000408747
0.000233689
7.77666e-05
-6.06176e-05
-0.000182941
-0.000290542
-0.000384602
-0.000466134
-0.000535992
-0.000594852
-0.000643209
-0.000681387
-0.000709554
-0.000727714
-0.000735725
-0.000733312
-0.000720087
-0.000695566
-0.000659193
-0.000610359
-0.00054843
-0.000472768
-0.000382764
-0.000277866
-0.000157602
-2.16114e-05
0.000130325
0.00029826
0.000482051
0.00068134
0.000895533
0.00112378
0.00136497
0.0016177
0.00188031
0.00215086
0.00242715
0.00270671
0.00298688
0.00326481
0.00353749
0.00380181
0.00405462
0.00429277
0.00451319
0.00471294
0.00488928
0.00503974
0.00516218
0.00525482
0.00531634
0.00534585
0.005343
0.00530791
0.00524124
0.00514411
0.00501817
0.00486547
0.00468844
0.00448987
0.00427279
0.00404041
0.00379607
0.00354315
0.00328498
0.00302483
0.00276579
0.00251069
0.00226209
0.00202338
0.00179766
0.00157228
0.00133391
0.00251429
0.00204293
0.00166686
0.00135379
0.0010682
0.000809913
0.000578945
0.000372837
0.000189217
2.60071e-05
-0.000118728
-0.000246767
-0.000359716
-0.000458987
-0.000545791
-0.000621144
-0.000685852
-0.000740512
-0.000785518
-0.00082108
-0.000847223
-0.000863798
-0.000870505
-0.000866911
-0.000852468
-0.00082654
-0.000788426
-0.000737383
-0.000672656
-0.000593509
-0.000499255
-0.000389285
-0.000263096
-0.000120327
3.92124e-05
0.000215516
0.000408353
0.000617244
0.000841446
0.00107993
0.00133138
0.00159417
0.00186639
0.00214583
0.00243003
0.00271624
0.00300154
0.00328282
0.00355681
0.0038202
0.00406966
0.0043019
0.00451373
0.00470218
0.00486452
0.00499833
0.00510159
0.00517272
0.00521059
0.0052146
0.0051847
0.00512135
0.00502555
0.00489883
0.00474315
0.00456093
0.00435494
0.00412823
0.00388408
0.00362593
0.00335726
0.00308155
0.00280221
0.0025225
0.00224541
0.00197368
0.00171104
0.00146091
0.00120882
0.000939761
0.00257522
0.00207078
0.00166951
0.00133674
0.00103418
0.000761423
0.000518279
0.000301881
0.000109468
-6.13891e-05
-0.000212946
-0.000347271
-0.000466222
-0.000571431
-0.000664292
-0.000745972
-0.000817397
-0.000879251
-0.000931992
-0.000975861
-0.00101089
-0.00103693
-0.00105363
-0.00106052
-0.00105696
-0.00104226
-0.00101559
-0.000976099
-0.000922912
-0.000855156
-0.000772002
-0.000672692
-0.000556576
-0.00042314
-0.000272045
-0.000103154
8.34401e-05
0.000287385
0.00050805
0.000744507
0.000995513
0.00125951
0.0015346
0.0018186
0.002109
0.00240302
0.00269764
0.00298963
0.00327557
0.00355197
0.00381528
0.00406197
0.0042886
0.0044919
0.00466886
0.00481676
0.00493328
0.00501653
0.00506511
0.00507816
0.00505537
0.00499702
0.00490393
0.00477749
0.00461959
0.0044326
0.00421927
0.00398271
0.0037263
0.00345355
0.00316813
0.00287367
0.0025738
0.00227199
0.00197144
0.00167514
0.0013872
0.00111142
0.000831549
0.00053085
0.00259406
0.00205778
0.00163223
0.00128041
0.00096136
0.000674462
0.000419298
0.00019261
-8.74009e-06
-0.00018752
-0.000346296
-0.000487412
-0.000612967
-0.000724798
-0.000824473
-0.000913297
-0.000992303
-0.00106226
-0.00112366
-0.00117678
-0.00122166
-0.00125811
-0.00128576
-0.00130406
-0.00131232
-0.00130972
-0.00129534
-0.00126821
-0.00122731
-0.00117163
-0.0011002
-0.00101209
-0.000906496
-0.000782744
-0.000640333
-0.00047897
-0.0002986
-9.94353e-05
0.000118019
0.000352945
0.000604188
0.000870254
0.0011493
0.00143913
0.00173724
0.00204078
0.00234664
0.00265146
0.00295168
0.00324359
0.00352341
0.00378735
0.00403168
0.00425282
0.00444742
0.00461243
0.00474516
0.0048434
0.00490542
0.00493006
0.00491671
0.00486542
0.00477681
0.0046521
0.00449309
0.00430208
0.00408183
0.0038355
0.00356655
0.00327866
0.00297565
0.00266141
0.00233978
0.00201452
0.0016891
0.00136678
0.00105212
0.000749379
0.000440484
0.000106944
0.00256715
0.00200034
0.00155149
0.00118132
0.000846342
0.000545693
0.000278737
4.18309e-05
-0.000168531
-0.000355449
-0.000521784
-0.000670148
-0.000802869
-0.000921979
-0.00102921
-0.00112598
-0.00121344
-0.00129241
-0.00136344
-0.00142681
-0.00148255
-0.00153045
-0.00157007
-0.00160082
-0.00162191
-0.00163241
-0.00163131
-0.00161748
-0.00158978
-0.00154705
-0.00148813
-0.00141195
-0.00131752
-0.001204
-0.00107072
-0.000917216
-0.000743262
-0.000548921
-0.000334556
-0.000100862
0.000151113
0.000419957
0.000703874
0.0010007
0.0013079
0.00162259
0.00194158
0.00226136
0.00257821
0.00288821
0.00318732
0.00347148
0.00373663
0.00397884
0.00419438
0.00437982
0.0045321
0.00464858
0.00472718
0.00476636
0.00476522
0.00472348
0.00464153
0.00452042
0.00436179
0.00416789
0.00394147
0.00368574
0.00340428
0.00310092
0.00277971
0.00244479
0.00210029
0.00175029
0.0013986
0.0010488
0.000705955
0.000374821
3.54709e-05
-0.000332394
0.00249099
0.00189502
0.00142389
0.00103615
0.000685853
0.000371904
9.34419e-05
-0.000153556
-0.000372955
-0.000568176
-0.000742371
-0.000898406
-0.00103883
-0.00116586
-0.00128137
-0.00138692
-0.00148371
-0.00157265
-0.0016543
-0.00172895
-0.00179662
-0.00185707
-0.0019098
-0.00195413
-0.00198918
-0.00201393
-0.00202722
-0.00202781
-0.00201439
-0.00198562
-0.00194021
-0.00187689
-0.00179449
-0.00169199
-0.00156851
-0.00142342
-0.00125631
-0.00106707
-0.000855902
-0.00062336
-0.000370374
-9.82403e-05
0.000191297
0.000496115
0.000813679
0.00114107
0.001475
0.00181184
0.0021477
0.00247844
0.00279975
0.00310725
0.00339654
0.0036633
0.0039034
0.00411296
0.00428847
0.00442687
0.00452561
0.00458277
0.00459703
0.00456781
0.00449518
0.00437997
0.00422367
0.00402841
0.00379695
0.00353253
0.00323885
0.00291996
0.00258013
0.00222379
0.00185542
0.00147948
0.00110012
0.00072134
0.000348758
-1.23237e-05
-0.000383761
-0.000787736
0.00236224
0.00173855
0.00124621
0.000841725
0.000476769
0.000150017
-0.000139623
-0.000396544
-0.000624967
-0.000828625
-0.00101095
-0.00117506
-0.00132371
-0.00145929
-0.00158382
-0.00169896
-0.00180599
-0.00190587
-0.00199918
-0.00208622
-0.00216697
-0.00224114
-0.0023082
-0.00236735
-0.00241764
-0.00245791
-0.00248687
-0.00250314
-0.00250525
-0.0024917
-0.00246099
-0.00241168
-0.00234241
-0.00225193
-0.00213919
-0.00200332
-0.00184374
-0.00166013
-0.00145252
-0.0012213
-0.000967234
-0.000691549
-0.000395853
-8.22259e-05
0.000246816
0.000588323
0.000938934
0.00129491
0.00165217
0.00200634
0.00235285
0.00268698
0.00300394
0.003299
0.00356756
0.00380527
0.00400812
0.00417253
0.00429547
0.00437451
0.00440791
0.00439467
0.00433453
0.00422803
0.00407646
0.00388183
0.00364685
0.00337483
0.00306958
0.00273535
0.0023767
0.00199838
0.00160526
0.00120221
0.000793829
0.000384525
-1.94434e-05
-0.000412173
-0.000817543
-0.00125972
0.00217771
0.0015278
0.00101539
0.000595027
0.000216116
-0.000122905
-0.000423357
-0.000690004
-0.00092741
-0.00113962
-0.00133033
-0.00150291
-0.0016603
-0.00180507
-0.00193936
-0.00206493
-0.00218313
-0.00229496
-0.00240102
-0.0025016
-0.00259665
-0.00268583
-0.00276852
-0.00284386
-0.00291077
-0.00296798
-0.00301405
-0.00304745
-0.00306654
-0.00306964
-0.00305507
-0.00302116
-0.00296635
-0.00288917
-0.00278835
-0.00266281
-0.00251172
-0.00233456
-0.00213116
-0.00190171
-0.00164681
-0.00136752
-0.00106536
-0.000742323
-0.000400879
-4.39877e-05
0.000324932
0.000702024
0.00108304
0.00146338
0.00183817
0.00220234
0.0025507
0.00287807
0.00317933
0.0034496
0.0036843
0.0038793
0.00403097
0.00413634
0.00419316
0.00419993
0.004156
0.00406157
0.00391766
0.00372614
0.00348965
0.00321151
0.00289568
0.00254663
0.0021692
0.00176853
0.00134991
0.000918669
0.000479894
3.84843e-05
-0.000398617
-0.000824841
-0.00126622
-0.00174902
0.00193437
0.00125982
0.000728552
0.00029321
-9.89152e-05
-0.000449637
-0.000760512
-0.00103666
-0.001283
-0.00150386
-0.00170321
-0.00188464
-0.00205129
-0.00220589
-0.00235069
-0.00248756
-0.0026179
-0.00274273
-0.00286269
-0.00297803
-0.00308867
-0.00319422
-0.00329397
-0.00338698
-0.00347203
-0.00354775
-0.00361254
-0.0036647
-0.00370243
-0.00372384
-0.00372704
-0.00371017
-0.00367143
-0.00360911
-0.00352169
-0.00340786
-0.00326654
-0.00309696
-0.00289873
-0.0026718
-0.00241659
-0.00213398
-0.00182533
-0.00149253
-0.00113798
-0.000764633
-0.000375938
2.41515e-05
0.000431221
0.000840446
0.00124666
0.00164441
0.00202809
0.00239201
0.00273051
0.00303812
0.00330964
0.00354027
0.00372575
0.00386247
0.00394757
0.003979
0.00395562
0.00387721
0.00374449
0.00355911
0.0033236
0.00304131
0.00271631
0.00235328
0.00195741
0.00153422
0.00108949
0.000629059
0.000158548
-0.000316596
-0.000788674
-0.00125039
-0.00173008
-0.00225625
0.00162938
0.000931854
0.000382972
-6.63925e-05
-0.000470958
-0.000832786
-0.00115367
-0.0014391
-0.00169429
-0.00192389
-0.00213213
-0.0023228
-0.00249924
-0.00266432
-0.00282042
-0.00296947
-0.00311294
-0.00325189
-0.00338694
-0.00351832
-0.00364593
-0.0037693
-0.00388764
-0.00399991
-0.00410478
-0.00420072
-0.004286
-0.00435875
-0.00441697
-0.00445857
-0.00448146
-0.00448353
-0.00446273
-0.00441712
-0.0043449
-0.00424448
-0.00411453
-0.003954
-0.00376223
-0.00353893
-0.00328428
-0.00299893
-0.00268408
-0.00234147
-0.0019734
-0.00158276
-0.00117302
-0.000748207
-0.000312887
0.000127899
0.00056868
0.00100364
0.0014267
0.00183165
0.00221225
0.00256235
0.00287607
0.00314789
0.00337281
0.0035465
0.00366539
0.00372678
0.00372895
0.00367119
0.00355383
0.00337824
0.00314679
0.00286282
0.0025305
0.00215475
0.00174109
0.00129548
0.000824195
0.00033367
-0.000169891
-0.000680432
-0.00118943
-0.0016888
-0.00220932
-0.00278194
0.00126009
0.000541329
-2.38585e-05
-0.000486256
-0.000902457
-0.00127478
-0.00160525
-0.0018997
-0.00216368
-0.00240212
-0.00261949
-0.0028198
-0.00300656
-0.00318279
-0.00335098
-0.00351313
-0.00367078
-0.00382498
-0.00397637
-0.00412515
-0.00427118
-0.0044139
-0.00455247
-0.00468571
-0.0048122
-0.00493025
-0.00503798
-0.00513332
-0.0052141
-0.00527801
-0.00532273
-0.0053459
-0.00534522
-0.00531846
-0.00526355
-0.0051786
-0.00506197
-0.00491232
-0.00472868
-0.00451048
-0.00425762
-0.00397051
-0.00365011
-0.00329797
-0.00291627
-0.00250779
-0.00207599
-0.00162495
-0.00115934
-0.000684411
-0.000205937
0.000269887
0.000736516
0.00118717
0.00161498
0.00201309
0.00237484
0.00269392
0.00296449
0.0031814
0.00334026
0.00343763
0.00347109
0.00343933
0.00334221
0.00318073
0.00295707
0.00267449
0.00233724
0.00195046
0.00152002
0.00105235
0.00055429
3.28933e-05
-0.00050498
-0.00105261
-0.00160056
-0.00213989
-0.00270401
-0.00332648
0.000824048
8.58824e-05
-0.000494245
-0.000968648
-0.00139565
-0.00177783
-0.00211745
-0.00242067
-0.00269337
-0.00294073
-0.00316748
-0.00337783
-0.00357547
-0.00376353
-0.00394463
-0.00412083
-0.00429371
-0.00446436
-0.00463339
-0.00480099
-0.00496695
-0.00513066
-0.00529119
-0.00544725
-0.00559728
-0.00573946
-0.00587175
-0.00599189
-0.0060975
-0.00618607
-0.00625501
-0.00630173
-0.00632362
-0.00631819
-0.00628303
-0.00621595
-0.00611496
-0.00597841
-0.00580497
-0.00559375
-0.00534433
-0.00505682
-0.00473192
-0.00437094
-0.00397586
-0.00354935
-0.00309479
-0.00261626
-0.00211853
-0.00160705
-0.00108785
-0.00056751
-5.30648e-05
0.00044813
0.000928513
0.00138047
0.00179652
0.00216942
0.00249244
0.00275947
0.00296521
0.00310532
0.00317658
0.00317697
0.00310575
0.00296348
0.00275205
0.00247457
0.00213536
0.00173976
0.00129399
0.000804969
0.00028015
-0.000272739
-0.000846117
-0.00143253
-0.00202155
-0.00260328
-0.003214
-0.00389006
0.000319046
-0.00043662
-0.00103027
-0.00151562
-0.00195257
-0.00234395
-0.00269226
-0.003004
-0.00328534
-0.00354172
-0.0037781
-0.0039989
-0.00420797
-0.00440857
-0.00460341
-0.00479463
-0.00498384
-0.00517215
-0.00536017
-0.00554805
-0.00573553
-0.00592195
-0.00610625
-0.00628707
-0.00646271
-0.0066312
-0.00679032
-0.00693764
-0.00707057
-0.00718636
-0.00728218
-0.00735514
-0.00740237
-0.00742104
-0.00740842
-0.00736196
-0.00727933
-0.00715848
-0.00699772
-0.00679579
-0.0065519
-0.00626582
-0.00593791
-0.0055692
-0.00516144
-0.00471709
-0.00423944
-0.00373251
-0.00320113
-0.00265089
-0.00208808
-0.00151967
-0.000953149
-0.000396494
0.000142025
0.000653978
0.00113096
0.00156476
0.00194761
0.00227233
0.00253258
0.002723
0.00283941
0.00287895
0.00284016
0.00272303
0.00252905
0.00226115
0.00192362
0.00152198
0.00106281
0.00055355
2.27934e-06
-0.000582524
-0.0011925
-0.00181937
-0.00245163
-0.00307835
-0.00373888
-0.0044726
-0.000256887
-0.00102807
-0.00163378
-0.00212897
-0.002575
-0.00297491
-0.00333146
-0.00365145
-0.00394134
-0.00420683
-0.00445311
-0.00468477
-0.00490583
-0.00511967
-0.0053291
-0.00553632
-0.00574298
-0.0059502
-0.00615858
-0.00636826
-0.00657891
-0.0067898
-0.00699979
-0.0072074
-0.00741081
-0.00760791
-0.00779629
-0.00797335
-0.00813627
-0.00828206
-0.00840764
-0.00850983
-0.00858544
-0.00863131
-0.00864435
-0.00862165
-0.00856045
-0.00845833
-0.00831317
-0.00812329
-0.00788749
-0.00760512
-0.00727618
-0.00690135
-0.00648206
-0.00602055
-0.0055199
-0.00498406
-0.00441785
-0.00382696
-0.00321791
-0.00259801
-0.00197524
-0.00135817
-0.000755832
-0.000177511
0.0003674
0.000869633
0.00132026
0.00171092
0.00203407
0.00228319
0.00245299
0.0025396
0.00254067
0.00245552
0.00228512
0.00203208
0.00170063
0.00129641
0.000826347
0.000298401
-0.000278659
-0.000895559
-0.00154308
-0.00221206
-0.00288978
-0.00356419
-0.00427796
-0.00507372
-0.000905452
-0.0016901
-0.00230635
-0.00281028
-0.00326447
-0.00367223
-0.00403656
-0.00436452
-0.00466288
-0.00493758
-0.005194
-0.00543694
-0.00567055
-0.00589834
-0.00612321
-0.00634741
-0.00657265
-0.00680004
-0.00703019
-0.00726319
-0.00749869
-0.00773587
-0.00797352
-0.00821004
-0.00844349
-0.0086716
-0.00889181
-0.00910131
-0.00929706
-0.00947584
-0.00963428
-0.00976891
-0.00987622
-0.00995269
-0.00999486
-0.00999939
-0.00996313
-0.00988317
-0.00975697
-0.00958237
-0.00935769
-0.00908184
-0.00875436
-0.00837553
-0.00794641
-0.00746892
-0.00694589
-0.0063811
-0.00577932
-0.00514627
-0.00448867
-0.00381412
-0.00313108
-0.00244872
-0.00177682
-0.00112559
-0.000505459
7.31401e-05
0.000600023
0.00106552
0.00146072
0.00177778
0.00201012
0.00215267
0.00220207
0.00215673
0.00201698
0.00178502
0.00146488
0.00106229
0.000584488
3.99558e-05
-0.000561817
-0.00121069
-0.00189653
-0.00260917
-0.0033346
-0.0040595
-0.00483016
-0.00569267
-0.00162807
-0.00242408
-0.00304932
-0.00356083
-0.00402228
-0.00443719
-0.00480881
-0.00514448
-0.00545121
-0.00573519
-0.006002
-0.00625662
-0.00650333
-0.00674576
-0.0069869
-0.00722907
-0.00747399
-0.00772282
-0.00797614
-0.00823402
-0.00849606
-0.00876139
-0.00902871
-0.00929631
-0.00956213
-0.00982375
-0.0100785
-0.0103232
-0.0105548
-0.0107697
-0.0109643
-0.0111349
-0.0112774
-0.0113882
-0.0114632
-0.0114988
-0.0114914
-0.0114374
-0.011334
-0.0111784
-0.0109684
-0.0107024
-0.0103794
-0.00999925
-0.00956256
-0.00907084
-0.0085266
-0.00793338
-0.0072958
-0.00661959
-0.00591154
-0.00517954
-0.00443246
-0.00368008
-0.00293295
-0.0022022
-0.00149936
-0.000836114
-0.000224011
0.000325818
0.000802963
0.00119805
0.00150302
0.00171143
0.00181864
0.00182202
0.00172107
0.0015174
0.00121476
0.000818854
0.000337194
-0.000221209
-0.000846127
-0.00152651
-0.00225118
-0.00300894
-0.0037843
-0.00456259
-0.00539396
-0.00632825
-0.00242585
-0.00323106
-0.00386371
-0.00438164
-0.00484941
-0.00527078
-0.00564919
-0.00599228
-0.00630728
-0.00660061
-0.00687804
-0.00714471
-0.00740504
-0.00766279
-0.00792101
-0.00818208
-0.00844779
-0.00871928
-0.00899715
-0.00928145
-0.00957173
-0.00986706
-0.0101661
-0.0104669
-0.0107675
-0.0110652
-0.0113571
-0.0116401
-0.0119106
-0.012165
-0.0123992
-0.0126093
-0.0127909
-0.0129399
-0.0130519
-0.0131228
-0.0131483
-0.0131246
-0.0130482
-0.0129157
-0.0127244
-0.0124721
-0.0121572
-0.0117791
-0.0113377
-0.0108341
-0.0102705
-0.00964996
-0.00897697
-0.00825713
-0.00749726
-0.00670547
-0.00589098
-0.00506415
-0.00423626
-0.00341942
-0.0026263
-0.00186988
-0.00116319
-0.000518974
5.06975e-05
0.000534729
0.000923376
0.00120857
0.0013842
0.00144635
0.00139347
0.00122642
0.000948492
0.000565288
8.45054e-05
-0.000484343
-0.00113027
-0.00184124
-0.002605
-0.00340915
-0.00423663
-0.00507126
-0.00596734
-0.00697875
-0.00329959
-0.0041118
-0.00475026
-0.00527344
-0.0057466
-0.00617371
-0.00655842
-0.00690862
-0.00723177
-0.00753448
-0.00782272
-0.00810178
-0.00837623
-0.00864991
-0.00892596
-0.00920685
-0.00949437
-0.00978972
-0.0100935
-0.0104057
-0.0107259
-0.011053
-0.0113857
-0.0117221
-0.0120598
-0.0123961
-0.012728
-0.0130522
-0.0133648
-0.013662
-0.0139395
-0.0141929
-0.0144176
-0.014609
-0.0147623
-0.0148727
-0.0149358
-0.0149471
-0.0149022
-0.0147975
-0.0146294
-0.0143952
-0.0140927
-0.0137204
-0.0132778
-0.0127654
-0.0121849
-0.0115389