/*--------------------------------*- C++ -*----------------------------------*\
  =========                 |
  \\      /  F ield         | OpenFOAM: The Open Source CFD Toolbox
   \\    /   O peration     | Website:  https://openfoam.org
    \\  /    A nd           | Version:  7
     \\/     M anipulation  |
\*---------------------------------------------------------------------------*/
FoamFile
{
    version     2.0;
    format      ascii;
    class       volVectorField;
    location    "0.625";
    object      U;
}
// * * * * * * * * * * * * * * * * * * * * * * * * * * * * * * * * * * * * * //

dimensions      [0 1 -1 0 0 0 0];

internalField   nonuniform List<vector> 
6400
(
(9.42367e-06 -9.66435e-06 0)
(3.10877e-05 -1.33633e-05 0)
(4.79464e-05 -8.58438e-06 0)
(4.65364e-05 -9.06732e-07 0)
(2.18431e-05 7.27733e-06 0)
(-2.60682e-05 1.48886e-05 0)
(-9.5459e-05 2.16113e-05 0)
(-0.000183812 2.73063e-05 0)
(-0.000288512 3.2008e-05 0)
(-0.000406954 3.58168e-05 0)
(-0.00053672 3.88483e-05 0)
(-0.000675651 4.12167e-05 0)
(-0.000821853 4.30286e-05 0)
(-0.000973695 4.43803e-05 0)
(-0.00112979 4.53566e-05 0)
(-0.00128896 4.60275e-05 0)
(-0.00145022 4.64467e-05 0)
(-0.0016127 4.66561e-05 0)
(-0.00177567 4.66867e-05 0)
(-0.00193845 4.6558e-05 0)
(-0.00210044 4.6279e-05 0)
(-0.00226102 4.58503e-05 0)
(-0.00241959 4.52662e-05 0)
(-0.00257552 4.45145e-05 0)
(-0.00272816 4.35788e-05 0)
(-0.00287679 4.24389e-05 0)
(-0.00302063 4.10729e-05 0)
(-0.00315884 3.94577e-05 0)
(-0.00329054 3.75705e-05 0)
(-0.00341475 3.53897e-05 0)
(-0.00353046 3.28957e-05 0)
(-0.0036366 3.00715e-05 0)
(-0.00373208 2.69044e-05 0)
(-0.00381577 2.33867e-05 0)
(-0.00388656 1.95166e-05 0)
(-0.00394333 1.52992e-05 0)
(-0.00398501 1.07462e-05 0)
(-0.0040106 5.87795e-06 0)
(-0.00401918 7.23288e-07 0)
(-0.00400994 -4.68081e-06 0)
(-0.00398222 -1.02881e-05 0)
(-0.00393553 -1.60437e-05 0)
(-0.00386956 -2.18844e-05 0)
(-0.00378423 -2.77395e-05 0)
(-0.00367968 -3.35309e-05 0)
(-0.00355632 -3.91754e-05 0)
(-0.00341483 -4.45862e-05 0)
(-0.00325615 -4.96743e-05 0)
(-0.00308151 -5.43505e-05 0)
(-0.0028924 -5.85278e-05 0)
(-0.00269058 -6.21238e-05 0)
(-0.00247807 -6.50631e-05 0)
(-0.00225706 -6.72794e-05 0)
(-0.00202998 -6.87177e-05 0)
(-0.00179938 -6.93364e-05 0)
(-0.00156791 -6.91085e-05 0)
(-0.0013383 -6.80228e-05 0)
(-0.00111326 -6.60847e-05 0)
(-0.000895495 -6.33168e-05 0)
(-0.000687588 -5.97578e-05 0)
(-0.000491989 -5.54616e-05 0)
(-0.000310957 -5.0497e-05 0)
(-0.000146516 -4.49454e-05 0)
(-4.1718e-07 -3.88996e-05 0)
(0.000125893 -3.2461e-05 0)
(0.00023131 -2.57378e-05 0)
(0.000315088 -1.8846e-05 0)
(0.000376869 -1.19061e-05 0)
(0.0004167 -5.04501e-06 0)
(0.000435062 1.60237e-06 0)
(0.000432902 7.8878e-06 0)
(0.000411676 1.36433e-05 0)
(0.000373423 1.86648e-05 0)
(0.000320866 2.26894e-05 0)
(0.000257578 2.53572e-05 0)
(0.000188228 2.6163e-05 0)
(0.000118844 2.44078e-05 0)
(5.70882e-05 1.91391e-05 0)
(1.28688e-05 9.49941e-06 0)
(-1.72426e-06 -1.683e-06 0)
(1.31882e-05 -3.11298e-05 0)
(3.52274e-05 -3.53149e-05 0)
(3.39468e-05 -8.26068e-06 0)
(-1.21376e-05 3.17431e-05 0)
(-0.000112229 7.54381e-05 0)
(-0.000267722 0.000117875 0)
(-0.000476093 0.000156739 0)
(-0.000732686 0.000190952 0)
(-0.00103189 0.000220254 0)
(-0.00136779 0.000244812 0)
(-0.00173463 0.000264996 0)
(-0.00212703 0.000281265 0)
(-0.00254012 0.000294109 0)
(-0.00296956 0.000303996 0)
(-0.00341156 0.000311356 0)
(-0.00386281 0.000316562 0)
(-0.0043204 0.000319919 0)
(-0.00478181 0.000321672 0)
(-0.00524476 0.000322001 0)
(-0.00570719 0.000321027 0)
(-0.00616715 0.000318816 0)
(-0.00662276 0.000315387 0)
(-0.00707216 0.000310719 0)
(-0.00751341 0.000304754 0)
(-0.00794452 0.000297409 0)
(-0.00836338 0.000288583 0)
(-0.00876774 0.000278161 0)
(-0.00915521 0.000266023 0)
(-0.00952326 0.000252052 0)
(-0.00986922 0.000236136 0)
(-0.0101903 0.00021818 0)
(-0.0104836 0.000198107 0)
(-0.0107462 0.000175866 0)
(-0.010975 0.000151438 0)
(-0.0111672 0.00012484 0)
(-0.0113198 9.61291e-05 0)
(-0.0114301 6.54086e-05 0)
(-0.0114954 3.2828e-05 0)
(-0.0115136 -1.4121e-06 0)
(-0.0114825 -3.70596e-05 0)
(-0.0114007 -7.38126e-05 0)
(-0.0112668 -0.000111318 0)
(-0.0110804 -0.000149177 0)
(-0.0108414 -0.000186948 0)
(-0.0105502 -0.00022415 0)
(-0.0102082 -0.000260278 0)
(-0.00981735 -0.000294804 0)
(-0.00938019 -0.000327195 0)
(-0.0089001 -0.000356917 0)
(-0.00838115 -0.000383455 0)
(-0.00782804 -0.000406322 0)
(-0.00724609 -0.000425072 0)
(-0.0066412 -0.000439316 0)
(-0.00601971 -0.000448731 0)
(-0.00538835 -0.000453073 0)
(-0.00475413 -0.000452181 0)
(-0.00412419 -0.000445991 0)
(-0.0035057 -0.000434535 0)
(-0.00290573 -0.000417943 0)
(-0.00233111 -0.000396444 0)
(-0.00178831 -0.00037036 0)
(-0.00128332 -0.000340103 0)
(-0.000821517 -0.000306164 0)
(-0.000407569 -0.000269108 0)
(-4.53483e-05 -0.000229563 0)
(0.000262165 -0.000188211 0)
(0.000512957 -0.000145782 0)
(0.00070605 -0.000103055 0)
(0.000841573 -6.08545e-05 0)
(0.000920829 -2.00645e-05 0)
(0.000946393 1.83557e-05 0)
(0.000922211 5.33382e-05 0)
(0.000853748 8.36571e-05 0)
(0.000748174 0.000107856 0)
(0.000614608 0.000124153 0)
(0.000464399 0.000130357 0)
(0.000311173 0.000123863 0)
(0.000170614 0.000101807 0)
(6.20831e-05 6.23741e-05 0)
(9.29205e-06 1.27646e-05 0)
(8.8885e-06 -4.84562e-05 0)
(8.65643e-06 -3.40159e-05 0)
(-4.04296e-05 4.01309e-05 0)
(-0.000157962 0.000141925 0)
(-0.000353334 0.000253093 0)
(-0.000628385 0.000362758 0)
(-0.000980153 0.000464845 0)
(-0.00140277 0.000556294 0)
(-0.00188881 0.000635936 0)
(-0.00243022 0.000703722 0)
(-0.00301892 0.000760249 0)
(-0.00364719 0.00080645 0)
(-0.00430785 0.000843404 0)
(-0.00499442 0.00087221 0)
(-0.00570108 0.000893904 0)
(-0.00642264 0.000909406 0)
(-0.00715451 0.000919498 0)
(-0.00789258 0.000924807 0)
(-0.00863313 0.000925808 0)
(-0.0093727 0.000922827 0)
(-0.010108 0.000916052 0)
(-0.010836 0.000905549 0)
(-0.0115534 0.000891274 0)
(-0.0122571 0.000873099 0)
(-0.0129438 0.000850824 0)
(-0.0136099 0.000824199 0)
(-0.014252 0.000792944 0)
(-0.0148661 0.000756766 0)
(-0.0154483 0.000715377 0)
(-0.0159944 0.000668512 0)
(-0.0164999 0.000615947 0)
(-0.0169605 0.000557512 0)
(-0.0173715 0.000493109 0)
(-0.0177286 0.000422727 0)
(-0.018027 0.000346453 0)
(-0.0182627 0.000264484 0)
(-0.0184313 0.000177139 0)
(-0.0185291 8.48615e-05 0)
(-0.0185528 -1.17696e-05 0)
(-0.0184994 -0.00011204 0)
(-0.0183666 -0.000215103 0)
(-0.018153 -0.000319983 0)
(-0.0178577 -0.00042558 0)
(-0.0174808 -0.000530689 0)
(-0.0170234 -0.000634012 0)
(-0.0164875 -0.00073418 0)
(-0.0158761 -0.000829779 0)
(-0.0151934 -0.000919376 0)
(-0.0144447 -0.00100155 0)
(-0.013636 -0.00107493 0)
(-0.0127746 -0.00113823 0)
(-0.0118685 -0.00119025 0)
(-0.0109268 -0.00122997 0)
(-0.00995898 -0.00125653 0)
(-0.00897525 -0.00126928 0)
(-0.00798618 -0.0012678 0)
(-0.00700255 -0.00125191 0)
(-0.00603521 -0.00122169 0)
(-0.00509484 -0.00117749 0)
(-0.00419181 -0.0011199 0)
(-0.00333593 -0.00104979 0)
(-0.0025363 -0.000968258 0)
(-0.00180115 -0.000876615 0)
(-0.00113763 -0.000776387 0)
(-0.0005517 -0.000669277 0)
(-4.79862e-05 -0.00055715 0)
(0.000370359 -0.000442015 0)
(0.000701757 -0.000326021 0)
(0.000946316 -0.000211458 0)
(0.00110594 -0.000100772 0)
(0.00118445 3.39291e-06 0)
(0.00118772 9.81408e-05 0)
(0.00112384 0.000180241 0)
(0.00100328 0.000246021 0)
(0.000839112 0.000291267 0)
(0.000647168 0.000311193 0)
(0.00044581 0.000300635 0)
(0.000255396 0.000254688 0)
(0.000101571 0.000170769 0)
(1.87807e-05 5.65133e-05 0)
(1.2533e-06 -4.73354e-05 0)
(-3.25006e-05 1.29492e-05 0)
(-0.000146433 0.000158446 0)
(-0.000352626 0.000345116 0)
(-0.000657516 0.00054635 0)
(-0.00106207 0.000745257 0)
(-0.00156239 0.000931691 0)
(-0.00215144 0.00110016 0)
(-0.00282047 0.00124824 0)
(-0.00355987 0.00137543 0)
(-0.00435989 0.00148244 0)
(-0.00521107 0.00157065 0)
(-0.00610449 0.00164178 0)
(-0.00703194 0.00169764 0)
(-0.00798596 0.00173999 0)
(-0.00895978 0.00177041 0)
(-0.00994734 0.00179027 0)
(-0.0109431 0.00180068 0)
(-0.011942 0.00180251 0)
(-0.0129393 0.00179633 0)
(-0.0139305 0.0017825 0)
(-0.0149112 0.00176115 0)
(-0.015877 0.00173222 0)
(-0.0168236 0.0016955 0)
(-0.0177464 0.00165064 0)
(-0.0186406 0.00159721 0)
(-0.0195014 0.00153474 0)
(-0.0203237 0.00146271 0)
(-0.0211019 0.00138063 0)
(-0.0218307 0.00128806 0)
(-0.0225043 0.00118463 0)
(-0.0231168 0.00107007 0)
(-0.0236624 0.000944267 0)
(-0.0241351 0.000807243 0)
(-0.0245293 0.000659219 0)
(-0.0248393 0.000500619 0)
(-0.02506 0.000332087 0)
(-0.0251865 0.000154505 0)
(-0.0252147 -3.10046e-05 0)
(-0.025141 -0.000223072 0)
(-0.0249626 -0.000420083 0)
(-0.0246777 -0.000620193 0)
(-0.0242854 -0.000821338 0)
(-0.0237861 -0.00102126 0)
(-0.0231812 -0.00121754 0)
(-0.0224735 -0.00140765 0)
(-0.0216671 -0.00158895 0)
(-0.0207673 -0.00175882 0)
(-0.019781 -0.00191462 0)
(-0.0187162 -0.00205383 0)
(-0.017582 -0.00217406 0)
(-0.0163891 -0.00227316 0)
(-0.0151487 -0.00234922 0)
(-0.0138732 -0.00240066 0)
(-0.0125757 -0.00242628 0)
(-0.0112696 -0.0024253 0)
(-0.00996892 -0.00239738 0)
(-0.00868747 -0.00234266 0)
(-0.00743901 -0.00226176 0)
(-0.00623688 -0.00215577 0)
(-0.00509375 -0.00202626 0)
(-0.00402141 -0.00187525 0)
(-0.00303054 -0.00170518 0)
(-0.0021305 -0.00151886 0)
(-0.00132909 -0.00131948 0)
(-0.000632437 -0.00111051 0)
(-4.47885e-05 -0.000895725 0)
(0.000431633 -0.000679169 0)
(0.000796766 -0.00046515 0)
(0.00105285 -0.000258263 0)
(0.00120455 -6.34348e-05 0)
(0.00125911 0.000114004 0)
(0.00122648 0.000268227 0)
(0.00111946 0.000392809 0)
(0.000953838 0.000480654 0)
(0.000748474 0.000524046 0)
(0.000524928 0.000514999 0)
(0.000306953 0.000446114 0)
(0.000125403 0.000312621 0)
(2.41751e-05 0.00011805 0)
(-7.34549e-06 -2.2091e-05 0)
(-7.97531e-05 0.000117408 0)
(-0.000268106 0.000359991 0)
(-0.000573547 0.000653114 0)
(-0.000997479 0.000963493 0)
(-0.00153878 0.00126909 0)
(-0.00219191 0.00155607 0)
(-0.00294844 0.00181659 0)
(-0.0037983 0.00204686 0)
(-0.00473061 0.00224588 0)
(-0.00573431 0.00241437 0)
(-0.00679859 0.00255411 0)
(-0.00791315 0.00266745 0)
(-0.00906845 0.00275693 0)
(-0.0102557 0.00282506 0)
(-0.0114667 0.00287415 0)
(-0.0126943 0.0029062 0)
(-0.0139317 0.00292285 0)
(-0.0151725 0.00292539 0)
(-0.0164109 0.00291469 0)
(-0.0176413 0.00289131 0)
(-0.018858 0.00285543 0)
(-0.0200556 0.00280699 0)
(-0.0212286 0.00274568 0)
(-0.0223713 0.00267101 0)
(-0.0234777 0.00258233 0)
(-0.0245418 0.00247896 0)
(-0.0255572 0.00236015 0)
(-0.0265174 0.00222519 0)
(-0.0274156 0.00207345 0)
(-0.0282448 0.00190443 0)
(-0.028998 0.00171777 0)
(-0.0296682 0.00151337 0)
(-0.0302483 0.00129133 0)
(-0.0307314 0.00105208 0)
(-0.0311111 0.000796351 0)
(-0.0313812 0.000525211 0)
(-0.0315361 0.0002401 0)
(-0.0315708 -5.7168e-05 0)
(-0.0314812 -0.000364406 0)
(-0.0312643 -0.000679055 0)
(-0.0309179 -0.000998202 0)
(-0.0304412 -0.00131861 0)
(-0.0298347 -0.00163674 0)
(-0.0291002 -0.00194882 0)
(-0.0282411 -0.00225091 0)
(-0.0272624 -0.00253893 0)
(-0.0261704 -0.00280879 0)
(-0.0249734 -0.00305642 0)
(-0.0236807 -0.00327792 0)
(-0.0223034 -0.0034696 0)
(-0.0208539 -0.0036281 0)
(-0.0193457 -0.00375047 0)
(-0.0177935 -0.00383428 0)
(-0.0162126 -0.00387764 0)
(-0.0146191 -0.00387933 0)
(-0.0130296 -0.00383879 0)
(-0.0114604 -0.00375622 0)
(-0.00992807 -0.00363252 0)
(-0.00844847 -0.00346937 0)
(-0.00703678 -0.00326918 0)
(-0.0057072 -0.00303506 0)
(-0.0044726 -0.00277075 0)
(-0.00334432 -0.00248066 0)
(-0.00233193 -0.00216972 0)
(-0.00144298 -0.00184339 0)
(-0.000682808 -0.00150756 0)
(-5.43752e-05 -0.00116858 0)
(0.000441912 -0.000833214 0)
(0.000808356 -0.000508645 0)
(0.0010501 -0.000202529 0)
(0.00117526 7.69449e-05 0)
(0.00119504 0.000320966 0)
(0.00112384 0.000520025 0)
(0.00097931 0.000663879 0)
(0.000782461 0.000741653 0)
(0.000557241 0.000742224 0)
(0.000330185 0.000655018 0)
(0.000136378 0.000471564 0)
(2.65398e-05 0.000188635 0)
(-1.59397e-05 2.88713e-05 0)
(-0.000128796 0.00028437 0)
(-0.000396138 0.000651932 0)
(-0.000806573 0.00107372 0)
(-0.00135518 0.00151171 0)
(-0.00203781 0.0019399 0)
(-0.00284662 0.00234153 0)
(-0.00377136 0.00270674 0)
(-0.00480054 0.00303059 0)
(-0.00592203 0.00331161 0)
(-0.0071236 0.00355055 0)
(-0.00839332 0.00374961 0)
(-0.00971981 0.00391174 0)
(-0.0110924 0.00404023 0)
(-0.0125012 0.00413835 0)
(-0.0139371 0.00420913 0)
(-0.0153916 0.00425525 0)
(-0.016857 0.0042789 0)
(-0.0183259 0.00428179 0)
(-0.0197915 0.00426513 0)
(-0.0212469 0.00422963 0)
(-0.0226857 0.00417559 0)
(-0.0241014 0.00410292 0)
(-0.0254873 0.0040112 0)
(-0.0268366 0.00389977 0)
(-0.0281425 0.00376779 0)
(-0.0293978 0.00361432 0)
(-0.030595 0.0034384 0)
(-0.0317264 0.00323908 0)
(-0.0327844 0.00301556 0)
(-0.0337607 0.00276719 0)
(-0.0346473 0.00249359 0)
(-0.0354361 0.00219465 0)
(-0.036119 0.00187064 0)
(-0.0366884 0.00152224 0)
(-0.0371368 0.00115055 0)
(-0.0374571 0.000757183 0)
(-0.0376431 0.000344233 0)
(-0.0376892 -8.56744e-05 0)
(-0.0375909 -0.000529396 0)
(-0.0373446 -0.000983274 0)
(-0.036948 -0.00144316 0)
(-0.0364003 -0.00190447 0)
(-0.0357019 -0.0023622 0)
(-0.0348552 -0.00281103 0)
(-0.0338639 -0.00324539 0)
(-0.0327335 -0.00365956 0)
(-0.0314715 -0.00404778 0)
(-0.0300868 -0.00440435 0)
(-0.0285904 -0.00472377 0)
(-0.0269946 -0.00500086 0)
(-0.0253133 -0.0052309 0)
(-0.023562 -0.00540973 0)
(-0.0217572 -0.00553389 0)
(-0.0199163 -0.00560072 0)
(-0.0180577 -0.00560843 0)
(-0.0162 -0.00555621 0)
(-0.0143622 -0.00544426 0)
(-0.012563 -0.00527381 0)
(-0.0108206 -0.00504715 0)
(-0.00915253 -0.00476761 0)
(-0.00757518 -0.0044395 0)
(-0.0061035 -0.0040681 0)
(-0.00475074 -0.00365955 0)
(-0.00352815 -0.00322083 0)
(-0.00244473 -0.00275962 0)
(-0.00150699 -0.00228429 0)
(-0.000718738 -0.00180383 0)
(-8.09229e-05 -0.0013278 0)
(0.000408567 -0.000866351 0)
(0.000755021 -0.000430218 0)
(0.000967034 -3.07987e-05 0)
(0.0010566 0.000319801 0)
(0.00103916 0.00060871 0)
(0.000933734 0.000822283 0)
(0.000762901 0.000946213 0)
(0.000552513 0.000965845 0)
(0.000331455 0.000866782 0)
(0.000137988 0.000635847 0)
(2.69565e-05 0.00026223 0)
(-2.42331e-05 0.000105496 0)
(-0.000177604 0.000515487 0)
(-0.00052531 0.00103742 0)
(-0.00104308 0.00161081 0)
(-0.00171899 0.00219474 0)
(-0.00254519 0.00276064 0)
(-0.00351101 0.00328965 0)
(-0.00460399 0.00377051 0)
(-0.00581098 0.00419752 0)
(-0.00711852 0.0045689 0)
(-0.00851326 0.00488559 0)
(-0.00998225 0.00515022 0)
(-0.0115132 0.00536641 0)
(-0.0130944 0.00553819 0)
(-0.0147153 0.00566959 0)
(-0.0163656 0.0057644 0)
(-0.0180363 0.00582595 0)
(-0.0197184 0.00585699 0)
(-0.0214039 0.00585967 0)
(-0.023085 0.0058355 0)
(-0.024754 0.0057854 0)
(-0.0264035 0.00570972 0)
(-0.028026 0.00560835 0)
(-0.029614 0.00548076 0)
(-0.0311598 0.00532611 0)
(-0.0326555 0.00514335 0)
(-0.034093 0.00493129 0)
(-0.0354639 0.00468872 0)
(-0.0367595 0.00441449 0)
(-0.037971 0.0041076 0)
(-0.0390895 0.0037673 0)
(-0.0401059 0.00339316 0)
(-0.0410111 0.00298516 0)
(-0.0417963 0.00254372 0)
(-0.0424527 0.00206985 0)
(-0.0429722 0.00156509 0)
(-0.043347 0.00103164 0)
(-0.0435702 0.000472364 0)
(-0.0436356 -0.000109211 0)
(-0.043538 -0.000708871 0)
(-0.0432736 -0.00132174 0)
(-0.0428398 -0.00194229 0)
(-0.0422356 -0.00256445 0)
(-0.0414615 -0.00318158 0)
(-0.0405198 -0.00378667 0)
(-0.0394145 -0.00437235 0)
(-0.0381519 -0.00493106 0)
(-0.0367397 -0.0054552 0)
(-0.0351879 -0.00593725 0)
(-0.0335082 -0.00636993 0)
(-0.0317142 -0.00674641 0)
(-0.0298213 -0.0070604 0)
(-0.0278463 -0.00730639 0)
(-0.0258074 -0.00747975 0)
(-0.0237239 -0.00757689 0)
(-0.021616 -0.00759539 0)
(-0.0195046 -0.00753406 0)
(-0.0174106 -0.00739308 0)
(-0.0153549 -0.00717397 0)
(-0.0133581 -0.00687965 0)
(-0.0114399 -0.00651442 0)
(-0.00961868 -0.00608391 0)
(-0.00791153 -0.00559502 0)
(-0.00633358 -0.00505585 0)
(-0.00489781 -0.00447559 0)
(-0.00361475 -0.00386441 0)
(-0.0024922 -0.00323342 0)
(-0.00153497 -0.00259452 0)
(-0.000744756 -0.00196041 0)
(-0.000119871 -0.00134449 0)
(0.000344835 -0.000760909 0)
(0.00065811 -0.000224556 0)
(0.000832379 0.000248888 0)
(0.000883799 0.000642926 0)
(0.000832325 0.000940249 0)
(0.000701786 0.00112282 0)
(0.000519579 0.00117209 0)
(0.00031653 0.00106936 0)
(0.000133121 0.000796283 0)
(2.61857e-05 0.000334675 0)
(-3.21034e-05 0.000207084 0)
(-0.000225193 0.000810536 0)
(-0.000652812 0.00151704 0)
(-0.00127801 0.00226554 0)
(-0.00208166 0.00301385 0)
(-0.00305183 0.00373212 0)
(-0.00417458 0.00440043 0)
(-0.00543496 0.00500681 0)
(-0.00681792 0.00554523 0)
(-0.00830855 0.006014 0)
(-0.00989233 0.00641438 0)
(-0.0115553 0.00674961 0)
(-0.0132844 0.00702401 0)
(-0.0150672 0.0072424 0)
(-0.0168921 0.00740961 0)
(-0.0187484 0.00753018 0)
(-0.0206261 0.00760809 0)
(-0.0225158 0.00764664 0)
(-0.0244085 0.00764841 0)
(-0.0262956 0.00761522 0)
(-0.0281688 0.00754815 0)
(-0.0300199 0.00744762 0)
(-0.0318406 0.00731348 0)
(-0.0336226 0.00714507 0)
(-0.0353574 0.00694136 0)
(-0.0370362 0.00670108 0)
(-0.03865 0.00642277 0)
(-0.0401896 0.006105 0)
(-0.0416455 0.00574636 0)
(-0.043008 0.00534571 0)
(-0.0442673 0.00490218 0)
(-0.0454134 0.00441531 0)
(-0.0464364 0.00388516 0)
(-0.0473266 0.0033124 0)
(-0.0480745 0.00269833 0)
(-0.0486712 0.00204502 0)
(-0.0491081 0.00135532 0)
(-0.0493776 0.000632901 0)
(-0.0494729 -0.000117722 0)
(-0.0493883 -0.000891181 0)
(-0.0491194 -0.00168128 0)
(-0.0486632 -0.00248102 0)
(-0.0480184 -0.0032827 0)
(-0.0471854 -0.00407795 0)
(-0.0461663 -0.00485788 0)
(-0.0449653 -0.0056132 0)
(-0.0435887 -0.00633437 0)
(-0.0420449 -0.00701175 0)
(-0.0403442 -0.00763583 0)
(-0.0384991 -0.0081974 0)
(-0.0365242 -0.00868774 0)
(-0.0344358 -0.00909889 0)
(-0.0322521 -0.00942375 0)
(-0.0299927 -0.0096564 0)
(-0.0276787 -0.00979216 0)
(-0.0253321 -0.00982783 0)
(-0.0229754 -0.00976177 0)
(-0.0206319 -0.00959401 0)
(-0.0183246 -0.00932634 0)
(-0.0160761 -0.00896229 0)
(-0.0139083 -0.00850715 0)
(-0.0118419 -0.00796793 0)
(-0.00989598 -0.00735325 0)
(-0.00808774 -0.0066733 0)
(-0.00643199 -0.00593966 0)
(-0.0049409 -0.00516523 0)
(-0.00362373 -0.00436404 0)
(-0.00248652 -0.00355122 0)
(-0.00153187 -0.00274284 0)
(-0.000758792 -0.00195586 0)
(-0.000162507 -0.0012081 0)
(0.000265617 -0.000518243 0)
(0.000538172 9.42054e-05 0)
(0.000671749 0.000608855 0)
(0.000687004 0.00100446 0)
(0.000608732 0.00125898 0)
(0.000465605 0.00134966 0)
(0.00029003 0.00125322 0)
(0.00012395 0.000946053 0)
(2.47385e-05 0.00040324 0)
(-3.95561e-05 0.000332781 0)
(-0.000271181 0.00116832 0)
(-0.000777217 0.00208987 0)
(-0.00150853 0.00303729 0)
(-0.00243882 0.00396858 0)
(-0.0035519 0.00485376 0)
(-0.00483034 0.00567285 0)
(-0.00625643 0.00641392 0)
(-0.00781305 0.00707119 0)
(-0.00948371 0.0076434 0)
(-0.0112527 0.00813248 0)
(-0.013105 0.00854239 0)
(-0.0150268 0.00887831 0)
(-0.017005 0.00914593 0)
(-0.0190273 0.00935089 0)
(-0.0210825 0.00949849 0)
(-0.0231599 0.00959337 0)
(-0.0252495 0.0096394 0)
(-0.0273417 0.00963955 0)
(-0.0294275 0.00959594 0)
(-0.0314978 0.0095098 0)
(-0.0335437 0.0093816 0)
(-0.0355563 0.00921113 0)
(-0.0375266 0.00899758 0)
(-0.0394454 0.00873973 0)
(-0.0413032 0.00843605 0)
(-0.0430904 0.00808483 0)
(-0.0447968 0.00768436 0)
(-0.0464122 0.00723303 0)
(-0.0479263 0.00672949 0)
(-0.0493282 0.00617277 0)
(-0.0506073 0.0055624 0)
(-0.051753 0.00489854 0)
(-0.0527546 0.00418205 0)
(-0.0536019 0.00341462 0)
(-0.0542851 0.00259884 0)
(-0.054795 0.00173822 0)
(-0.0551232 0.000837302 0)
(-0.055262 -9.83645e-05 0)
(-0.0552052 -0.0010622 0)
(-0.0549478 -0.00204662 0)
(-0.0544861 -0.00304308 0)
(-0.0538183 -0.00404216 0)
(-0.0529444 -0.00503363 0)
(-0.0518662 -0.00600663 0)
(-0.0505878 -0.00694979 0)
(-0.0491155 -0.00785142 0)
(-0.0474576 -0.00869973 0)
(-0.0456248 -0.00948301 0)
(-0.0436302 -0.0101899 0)
(-0.0414888 -0.0108097 0)
(-0.0392181 -0.0113325 0)
(-0.0368372 -0.0117495 0)
(-0.0343671 -0.0120532 0)
(-0.0318303 -0.0122377 0)
(-0.0292505 -0.0122988 0)
(-0.0266523 -0.0122343 0)
(-0.0240608 -0.0120441 0)
(-0.0215012 -0.0117299 0)
(-0.0189984 -0.0112961 0)
(-0.0165765 -0.0107487 0)
(-0.0142586 -0.0100963 0)
(-0.012066 -0.00934921 0)
(-0.0100181 -0.00851988 0)
(-0.00813156 -0.00762244 0)
(-0.00642062 -0.00667266 0)
(-0.00489613 -0.00568777 0)
(-0.00356557 -0.00468634 0)
(-0.00243272 -0.00368807 0)
(-0.0014975 -0.00271378 0)
(-0.000755748 -0.00178523 0)
(-0.000199163 -0.000925142 0)
(0.000184792 -0.00015716 0)
(0.000412938 0.000494178 0)
(0.000506435 0.00100343 0)
(0.000490852 0.00134426 0)
(0.00039591 0.00148947 0)
(0.000255325 0.00141109 0)
(0.000111981 0.0010803 0)
(2.29364e-05 0.00046621 0)
(-4.66285e-05 0.000481647 0)
(-0.000315462 0.00158712 0)
(-0.000897864 0.00275403 0)
(-0.0017331 0.0039243 0)
(-0.00278791 0.00505722 0)
(-0.00404178 0.00612384 0)
(-0.00547371 0.00710499 0)
(-0.00706308 0.00798954 0)
(-0.00879056 0.00877255 0)
(-0.010638 0.00945367 0)
(-0.0125884 0.0100358 0)
(-0.0146258 0.0105238 0)
(-0.0167355 0.010924 0)
(-0.0189037 0.0112429 0)
(-0.0211178 0.0114871 0)
(-0.0233659 0.0116628 0)
(-0.0256369 0.0117751 0)
(-0.0279204 0.0118285 0)
(-0.0302062 0.0118265 0)
(-0.0324849 0.0117713 0)
(-0.0347469 0.0116644 0)
(-0.0369828 0.0115062 0)
(-0.0391832 0.0112965 0)
(-0.0413385 0.0110342 0)
(-0.0434389 0.0107181 0)
(-0.0454744 0.0103461 0)
(-0.0474345 0.00991641 0)
(-0.0493086 0.00942697 0)
(-0.0510859 0.00887594 0)
(-0.052755 0.00826177 0)
(-0.0543047 0.00758336 0)
(-0.0557235 0.00684022 0)
(-0.057 0.00603257 0)
(-0.0581227 0.00516151 0)
(-0.0590806 0.00422906 0)
(-0.0598631 0.00323833 0)
(-0.0604601 0.00219354 0)
(-0.0608623 0.00110007 0)
(-0.0610614 -3.54588e-05 0)
(-0.0610501 -0.00120523 0)
(-0.0608225 -0.00240023 0)
(-0.0603743 -0.0036103 0)
(-0.059703 -0.00482422 0)
(-0.0588078 -0.00602985 0)
(-0.05769 -0.00721423 0)
(-0.0563532 -0.00836378 0)
(-0.0548034 -0.00946453 0)
(-0.0530487 -0.0105023 0)
(-0.0510998 -0.0114631 0)
(-0.0489701 -0.0123333 0)
(-0.0466752 -0.0130997 0)
(-0.0442329 -0.0137505 0)
(-0.0416634 -0.0142747 0)
(-0.038989 -0.0146633 0)
(-0.0362334 -0.0149088 0)
(-0.0334221 -0.0150059 0)
(-0.0305816 -0.0149516 0)
(-0.027739 -0.0147452 0)
(-0.0249218 -0.0143888 0)
(-0.0221573 -0.013887 0)
(-0.019472 -0.013247 0)
(-0.0168916 -0.0124785 0)
(-0.0144397 -0.0115939 0)
(-0.0121381 -0.0106078 0)
(-0.0100061 -0.0095371 0)
(-0.0080598 -0.00840064 0)
(-0.00631204 -0.00721905 0)
(-0.00477202 -0.00601457 0)
(-0.00344495 -0.00481084 0)
(-0.0023319 -0.00363276 0)
(-0.00142955 -0.00250635 0)
(-0.000730155 -0.0014587 0)
(-0.000221417 -0.00051782 0)
(0.000113547 0.000287286 0)
(0.000296252 0.000926698 0)
(0.00035289 0.00136955 0)
(0.000314077 0.00158401 0)
(0.000214657 0.00153729 0)
(9.81768e-05 0.00119556 0)
(2.09687e-05 0.000522523 0)
(-5.33631e-05 0.000652754 0)
(-0.000358056 0.00206503 0)
(-0.0010145 0.00350716 0)
(-0.00195096 0.00492403 0)
(-0.00312747 0.00627726 0)
(-0.00451928 0.00753979 0)
(-0.00610178 0.00869416 0)
(-0.00785138 0.00973077 0)
(-0.00974648 0.0106461 0)
(-0.0117672 0.0114412 0)
(-0.0138951 0.0121203 0)
(-0.0161134 0.0126895 0)
(-0.0184066 0.0131563 0)
(-0.0207603 0.0135283 0)
(-0.0231613 0.0138131 0)
(-0.0255974 0.0140176 0)
(-0.0280571 0.0141478 0)
(-0.0305296 0.0142088 0)
(-0.0330046 0.0142042 0)
(-0.0354721 0.0141366 0)
(-0.0379222 0.0140078 0)
(-0.0403452 0.013818 0)
(-0.0427313 0.0135669 0)
(-0.0450703 0.0132533 0)
(-0.0473521 0.0128756 0)
(-0.0495661 0.0124317 0)
(-0.0517015 0.0119192 0)
(-0.0537469 0.0113358 0)
(-0.055691 0.0106795 0)
(-0.0575219 0.00994848 0)
(-0.0592275 0.00914141 0)
(-0.0607957 0.00825778 0)
(-0.0622142 0.00729785 0)
(-0.063471 0.00626289 0)
(-0.064554 0.00515526 0)
(-0.0654518 0.00397855 0)
(-0.0661532 0.00273764 0)
(-0.066648 0.00143876 0)
(-0.0669268 8.95662e-05 0)
(-0.0669813 -0.00130087 0)
(-0.0668047 -0.0027221 0)
(-0.0663916 -0.00416232 0)
(-0.0657383 -0.00560848 0)
(-0.0648431 -0.0070464 0)
(-0.0637066 -0.00846095 0)
(-0.0623314 -0.00983623 0)
(-0.060723 -0.0111558 0)
(-0.058889 -0.0124031 0)
(-0.0568399 -0.0135614 0)
(-0.0545889 -0.0146145 0)
(-0.0521518 -0.0155469 0)
(-0.049547 -0.0163442 0)
(-0.0467955 -0.0169934 0)
(-0.0439205 -0.0174832 0)
(-0.0409472 -0.0178045 0)
(-0.0379027 -0.0179506 0)
(-0.0348154 -0.0179175 0)
(-0.0317146 -0.0177039 0)
(-0.0286302 -0.0173117 0)
(-0.0255921 -0.0167459 0)
(-0.0226296 -0.0160145 0)
(-0.0197709 -0.0151286 0)
(-0.0170427 -0.0141026 0)
(-0.0144695 -0.0129534 0)
(-0.012073 -0.0117008 0)
(-0.00987188 -0.0103667 0)
(-0.00788137 -0.00897551 0)
(-0.00611261 -0.00755336 0)
(-0.00457256 -0.00612813 0)
(-0.0032637 -0.0047291 0)
(-0.00218381 -0.00338688 0)
(-0.0013259 -0.00213319 0)
(-0.000678092 -0.00100079 0)
(-0.000223583 -2.3416e-05 0)
(5.93707e-05 0.000764226 0)
(0.000197483 0.00132648 0)
(0.000222172 0.00162669 0)
(0.000169334 0.00162717 0)
(8.30853e-05 0.0012892 0)
(1.8936e-05 0.000571495 0)
(-5.98004e-05 0.000845223 0)
(-0.000399026 0.00260002 0)
(-0.00112707 0.0043466 0)
(-0.00216175 0.00603353 0)
(-0.00345672 0.00762555 0)
(-0.00498309 0.0090984 0)
(-0.00671269 0.0104371 0)
(-0.00861899 0.0116342 0)
(-0.0106781 0.0126884 0)
(-0.0128683 0.0136023 0)
(-0.0151699 0.0143821 0)
(-0.0175651 0.0150353 0)
(-0.0200376 0.0155708 0)
(-0.0225725 0.0159976 0)
(-0.0251562 0.0163243 0)
(-0.0277761 0.0165586 0)
(-0.0304206 0.0167073 0)
(-0.0330785 0.0167761 0)
(-0.0357394 0.016769 0)
(-0.038393 0.0166889 0)
(-0.0410292 0.0165375 0)
(-0.043638 0.0163153 0)
(-0.0462093 0.0160216 0)
(-0.0487328 0.0156551 0)
(-0.0511979 0.0152139 0)
(-0.0535937 0.0146955 0)
(-0.0559089 0.0140973 0)
(-0.0581318 0.0134166 0)
(-0.0602503 0.012651 0)
(-0.0622522 0.0117984 0)
(-0.0641247 0.0108573 0)
(-0.065855 0.00982713 0)
(-0.06743 0.00870805 0)
(-0.0688368 0.00750148 0)
(-0.0700624 0.00621003 0)
(-0.0710944 0.0048377 0)
(-0.0719206 0.00338999 0)
(-0.0725296 0.00187393 0)
(-0.0729107 0.000298178 0)
(-0.0730544 -0.001327 0)
(-0.0729525 -0.0029897 0)
(-0.0725983 -0.00467648 0)
(-0.0719868 -0.00637242 0)
(-0.0711151 -0.00806127 0)
(-0.0699824 -0.00972561 0)
(-0.0685904 -0.0113471 0)
(-0.0669433 -0.0129068 0)
(-0.0650482 -0.0143852 0)
(-0.0629149 -0.015763 0)
(-0.0605562 -0.0170212 0)
(-0.057988 -0.0181415 0)
(-0.0552289 -0.0191066 0)
(-0.0523004 -0.0199012 0)
(-0.0492267 -0.0205115 0)
(-0.0460344 -0.0209265 0)
(-0.0427521 -0.0211377 0)
(-0.0394104 -0.0211397 0)
(-0.0360409 -0.0209304 0)
(-0.032676 -0.0205113 0)
(-0.0293484 -0.0198877 0)
(-0.0260905 -0.0190682 0)
(-0.0229337 -0.0180654 0)
(-0.0199078 -0.0168953 0)
(-0.0170403 -0.0155775 0)
(-0.0143561 -0.0141347 0)
(-0.0118769 -0.0125922 0)
(-0.00962031 -0.0109783 0)
(-0.00760005 -0.00932331 0)
(-0.00582513 -0.00765968 0)
(-0.00429973 -0.00602143 0)
(-0.00302303 -0.00444406 0)
(-0.001989 -0.00296433 0)
(-0.00118637 -0.00162006 0)
(-0.000598544 -0.000450099 0)
(-0.000203659 0.000505767 0)
(2.54563e-05 0.00120681 0)
(0.000120989 0.00161131 0)
(0.000119907 0.0016766 0)
(6.6942e-05 0.00135905 0)
(1.68789e-05 0.000612636 0)
(-6.59709e-05 0.00105823 0)
(-0.000438443 0.00319008 0)
(-0.00123561 0.00526955 0)
(-0.00236536 0.00724952 0)
(-0.00377523 0.00909859 0)
(-0.00543242 0.010796 0)
(-0.00730525 0.01233 0)
(-0.00936432 0.0136961 0)
(-0.0115834 0.0148954 0)
(-0.0139391 0.0159331 0)
(-0.0164105 0.0168171 0)
(-0.0189785 0.0175572 0)
(-0.0216264 0.0181637 0)
(-0.0243386 0.0186469 0)
(-0.0271013 0.0190167 0)
(-0.0299016 0.019282 0)
(-0.0327276 0.0194502 0)
(-0.0355683 0.0195276 0)
(-0.0384128 0.0195186 0)
(-0.0412509 0.0194264 0)
(-0.0440725 0.0192528 0)
(-0.0468674 0.0189982 0)
(-0.0496253 0.0186617 0)
(-0.0523358 0.018242 0)
(-0.054988 0.0177366 0)
(-0.0575708 0.0171427 0)
(-0.0600725 0.0164573 0)
(-0.0624812 0.0156774 0)
(-0.0647843 0.0148001 0)
(-0.066969 0.013823 0)
(-0.069022 0.0127443 0)
(-0.0709297 0.0115632 0)
(-0.0726783 0.0102798 0)
(-0.0742539 0.00889554 0)
(-0.0756427 0.00741316 0)
(-0.0768309 0.005837 0)
(-0.0778052 0.00417307 0)
(-0.0785527 0.00242911 0)
(-0.0790615 0.000614711 0)
(-0.0793205 -0.00125871 0)
(-0.0793198 -0.00317787 0)
(-0.079051 -0.00512767 0)
(-0.0785076 -0.00709133 0)
(-0.0776849 -0.00905047 0)
(-0.0765806 -0.0109853 0)
(-0.0751949 -0.012875 0)
(-0.0735307 -0.0146977 0)
(-0.0715938 -0.0164312 0)
(-0.0693931 -0.0180531 0)
(-0.0669409 -0.0195412 0)
(-0.0642526 -0.0208741 0)
(-0.0613468 -0.0220317 0)
(-0.0582456 -0.0229954 0)
(-0.054974 -0.023749 0)
(-0.0515597 -0.0242789 0)
(-0.0480332 -0.0245745 0)
(-0.0444269 -0.0246287 0)
(-0.0407751 -0.0244383 0)
(-0.0371131 -0.0240042 0)
(-0.0334766 -0.0233313 0)
(-0.0299015 -0.0224291 0)
(-0.0264225 -0.0213114 0)
(-0.0230731 -0.0199961 0)
(-0.0198847 -0.0185051 0)
(-0.0168854 -0.0168641 0)
(-0.0141004 -0.0151024 0)
(-0.0115506 -0.0132523 0)
(-0.00925227 -0.0113485 0)
(-0.00721708 -0.00942837 0)
(-0.00545128 -0.00753111 0)
(-0.00395571 -0.00569752 0)
(-0.00272558 -0.00396976 0)
(-0.0017504 -0.00239116 0)
(-0.00101395 -0.00100604 0)
(-0.000494307 0.000140354 0)
(-0.00016389 0.0010019 0)
(1.02796e-05 0.00153156 0)
(6.63261e-05 0.00168148 0)
(4.97462e-05 0.00140305 0)
(1.47965e-05 0.000645504 0)
(-7.18964e-05 0.00129098 0)
(-0.000476365 0.00383323 0)
(-0.00134016 0.00627318 0)
(-0.00256172 0.00856859 0)
(-0.00408278 0.0106926 0)
(-0.00586675 0.0126287 0)
(-0.00787864 0.0143689 0)
(-0.0100862 0.0159123 0)
(-0.0124611 0.0172631 0)
(-0.0149782 0.0184294 0)
(-0.0176151 0.0194214 0)
(-0.020352 0.0202512 0)
(-0.0231714 0.0209309 0)
(-0.0260573 0.0214725 0)
(-0.0289956 0.0218872 0)
(-0.0319733 0.0221849 0)
(-0.0349784 0.022374 0)
(-0.0379997 0.0224612 0)
(-0.0410267 0.0224517 0)
(-0.0440489 0.0223487 0)
(-0.0470563 0.022154 0)
(-0.0500388 0.0218681 0)
(-0.052986 0.02149 0)
(-0.0558874 0.0210179 0)
(-0.0587322 0.020449 0)
(-0.0615089 0.0197801 0)
(-0.0642059 0.0190078 0)
(-0.0668108 0.0181286 0)
(-0.0693106 0.017139 0)
(-0.0716922 0.0160362 0)
(-0.0739416 0.0148182 0)
(-0.0760445 0.0134836 0)
(-0.0779864 0.0120325 0)
(-0.0797523 0.0104661 0)
(-0.0813273 0.00878727 0)
(-0.0826963 0.00700049 0)
(-0.0838447 0.00511217 0)
(-0.0847581 0.00313063 0)
(-0.0854227 0.00106628 0)
(-0.0858256 -0.0010684 0)
(-0.0859551 -0.00325881 0)
(-0.0858008 -0.00548827 0)
(-0.0853541 -0.00773811 0)
(-0.0846083 -0.00998781 0)
(-0.0835592 -0.0122152 0)
(-0.0822051 -0.0143966 0)
(-0.0805469 -0.0165075 0)
(-0.0785891 -0.0185224 0)
(-0.0763393 -0.0204156 0)
(-0.0738086 -0.0221615 0)
(-0.0710119 -0.0237353 0)
(-0.0679676 -0.0251133 0)
(-0.0646979 -0.0262738 0)