/*--------------------------------*- C++ -*----------------------------------*\
  =========                 |
  \\      /  F ield         | OpenFOAM: The Open Source CFD Toolbox
   \\    /   O peration     | Website:  https://openfoam.org
    \\  /    A nd           | Version:  7
     \\/     M anipulation  |
\*---------------------------------------------------------------------------*/
FoamFile
{
    version     2.0;
    format      ascii;
    class       volVectorField;
    location    "2.275";
    object      U;
}
// * * * * * * * * * * * * * * * * * * * * * * * * * * * * * * * * * * * * * //

dimensions      [0 1 -1 0 0 0 0];

internalField   nonuniform List<vector> 
6400
(
(1.08872e-05 -1.05795e-05 0)
(6.93155e-05 -3.6129e-05 0)
(0.0001747 -4.64101e-05 0)
(0.000284914 -4.46959e-05 0)
(0.000376537 -3.66578e-05 0)
(0.000438364 -2.58432e-05 0)
(0.000465227 -1.42247e-05 0)
(0.000455539 -2.82149e-06 0)
(0.000409721 7.92988e-06 0)
(0.000329076 1.79262e-05 0)
(0.000215094 2.72509e-05 0)
(6.90781e-05 3.60747e-05 0)
(-0.000108045 4.45968e-05 0)
(-0.000315786 5.3011e-05 0)
(-0.000554052 6.14811e-05 0)
(-0.00082307 7.01338e-05 0)
(-0.00112327 7.90532e-05 0)
(-0.00145516 8.82762e-05 0)
(-0.00181918 9.77949e-05 0)
(-0.0022156 0.000107561 0)
(-0.00264437 0.000117485 0)
(-0.00310503 0.000127444 0)
(-0.00359656 0.000137277 0)
(-0.00411735 0.000146793 0)
(-0.00466505 0.000155772 0)
(-0.00523657 0.000163967 0)
(-0.00582795 0.000171108 0)
(-0.00643439 0.000176908 0)
(-0.00705018 0.000181066 0)
(-0.00766876 0.000183278 0)
(-0.0082827 0.00018324 0)
(-0.00888378 0.000180663 0)
(-0.0094631 0.000175284 0)
(-0.0100112 0.000166871 0)
(-0.0105182 0.000155246 0)
(-0.0109739 0.000140289 0)
(-0.0113684 0.000121958 0)
(-0.0116916 0.000100293 0)
(-0.0119343 7.54308e-05 0)
(-0.0120879 4.7599e-05 0)
(-0.0121451 1.71499e-05 0)
(-0.0120997 -1.52731e-05 0)
(-0.0119472 -4.93122e-05 0)
(-0.0116852 -8.42667e-05 0)
(-0.0113134 -0.000119354 0)
(-0.0108337 -0.000153746 0)
(-0.0102506 -0.000186574 0)
(-0.00957073 -0.000216958 0)
(-0.00880351 -0.00024404 0)
(-0.00796045 -0.000267013 0)
(-0.00705515 -0.000285166 0)
(-0.00610302 -0.000297914 0)
(-0.00512079 -0.000304832 0)
(-0.00412612 -0.000305678 0)
(-0.00313706 -0.00030041 0)
(-0.00217151 -0.000289196 0)
(-0.00124664 -0.000272408 0)
(-0.000378241 -0.000250631 0)
(0.000419382 -0.000224692 0)
(0.0011341 -0.000195132 0)
(0.00175654 -0.000163211 0)
(0.0022799 -0.000129799 0)
(0.00270004 -9.58569e-05 0)
(0.0030156 -6.23005e-05 0)
(0.00322782 -2.99452e-05 0)
(0.00334025 5.22515e-07 0)
(0.00335844 2.85615e-05 0)
(0.00328957 5.378e-05 0)
(0.00314212 7.59229e-05 0)
(0.00292552 9.48362e-05 0)
(0.00264999 0.000110415 0)
(0.00232644 0.000122519 0)
(0.00196671 0.000130856 0)
(0.00158402 0.000134819 0)
(0.00119387 0.000133264 0)
(0.000815369 0.000124292 0)
(0.00047264 0.000105141 0)
(0.000195382 7.23246e-05 0)
(1.82403e-05 2.42758e-05 0)
(-2.03477e-05 -2.04665e-05 0)
(3.70236e-05 -6.93506e-05 0)
(0.000167134 -0.000165617 0)
(0.000364455 -0.000197535 0)
(0.000555423 -0.000180856 0)
(0.000696271 -0.00013479 0)
(0.000763083 -7.30799e-05 0)
(0.000742355 -4.54608e-06 0)
(0.000627829 6.55645e-05 0)
(0.000417919 0.000134514 0)
(0.000113536 0.000201181 0)
(-0.000283412 0.000265456 0)
(-0.000770953 0.000327786 0)
(-0.00134755 0.000388859 0)
(-0.00201231 0.000449403 0)
(-0.00276496 0.000510051 0)
(-0.00360567 0.000571258 0)
(-0.00453485 0.000633254 0)
(-0.00555282 0.000696022 0)
(-0.00665948 0.000759295 0)
(-0.00785405 0.000822564 0)
(-0.00913469 0.000885095 0)
(-0.0104983 0.000945939 0)
(-0.0119402 0.00100396 0)
(-0.0134539 0.00105784 0)
(-0.0150312 0.00110614 0)
(-0.0166613 0.0011473 0)
(-0.0183319 0.00117965 0)
(-0.0200279 0.00120152 0)
(-0.0217325 0.00121122 0)
(-0.0234265 0.0012071 0)
(-0.0250891 0.00118762 0)
(-0.0266977 0.0011514 0)
(-0.0282284 0.0010973 0)
(-0.0296564 0.00102443 0)
(-0.0309563 0.000932272 0)
(-0.0321029 0.000820692 0)
(-0.0330717 0.000690014 0)
(-0.0338391 0.000541057 0)
(-0.0343837 0.00037516 0)
(-0.0346865 0.000194182 0)
(-0.0347315 5.50717e-07 0)
(-0.0345066 -0.000202488 0)
(-0.0340038 -0.000411757 0)
(-0.0332202 -0.000623353 0)
(-0.0321577 -0.000833006 0)
(-0.030824 -0.00103622 0)
(-0.0292319 -0.00122838 0)
(-0.0274002 -0.0014049 0)
(-0.0253529 -0.00156135 0)
(-0.0231189 -0.00169366 0)
(-0.0207318 -0.00179823 0)
(-0.018229 -0.00187215 0)
(-0.0156507 -0.00191328 0)
(-0.0130394 -0.0019204 0)
(-0.0104382 -0.00189329 0)
(-0.00788994 -0.00183275 0)
(-0.00543623 -0.0017406 0)
(-0.0031158 -0.00161964 0)
(-0.000963677 -0.00147365 0)
(0.000989261 -0.00130672 0)
(0.00271801 -0.00112375 0)
(0.00420389 -0.000929952 0)
(0.00543396 -0.000730521 0)
(0.00640187 -0.000530492 0)
(0.00710747 -0.000334562 0)
(0.00755648 -0.000146914 0)
(0.00775986 2.88852e-05 0)
(0.00773319 0.000189926 0)
(0.00749599 0.000333909 0)
(0.00707106 0.000459005 0)
(0.00648413 0.000563618 0)
(0.00576368 0.000646037 0)
(0.0049412 0.000703972 0)
(0.00405193 0.000733989 0)
(0.00313605 0.000730914 0)
(0.00224017 0.000687463 0)
(0.00141778 0.000594665 0)
(0.000727329 0.000443785 0)
(0.000236174 0.000234921 0)
(2.48609e-05 1.84241e-05 0)
(4.82415e-05 -0.000176968 0)
(0.000200279 -0.000363891 0)
(0.000408471 -0.000408277 0)
(0.000583826 -0.000349453 0)
(0.000674125 -0.00022395 0)
(0.000649791 -5.97007e-05 0)
(0.00049279 0.000123972 0)
(0.000193602 0.000314696 0)
(-0.000251473 0.000505463 0)
(-0.000842796 0.000692947 0)
(-0.00157916 0.000876233 0)
(-0.00245896 0.00105582 0)
(-0.00348082 0.00123289 0)
(-0.00464389 0.00140879 0)
(-0.00594776 0.00158468 0)
(-0.00739229 0.00176128 0)
(-0.00897724 0.00193876 0)
(-0.0107019 0.00211669 0)
(-0.0125646 0.00229396 0)
(-0.0145621 0.00246887 0)
(-0.0166897 0.0026391 0)
(-0.0189401 0.0028018 0)
(-0.0213036 0.00295366 0)
(-0.0237679 0.00309095 0)
(-0.0263172 0.00320961 0)
(-0.0289329 0.00330538 0)
(-0.0315932 0.00337387 0)
(-0.0342731 0.00341068 0)
(-0.0369445 0.00341153 0)
(-0.0395769 0.00337242 0)
(-0.0421372 0.00328974 0)
(-0.0445906 0.00316043 0)
(-0.0469009 0.00298216 0)
(-0.0490313 0.00275343 0)
(-0.050945 0.00247371 0)
(-0.0526061 0.00214357 0)
(-0.0539802 0.00176478 0)
(-0.0550357 0.00134036 0)
(-0.055744 0.000874618 0)
(-0.0560809 0.000373155 0)
(-0.0560267 -0.000157181 0)
(-0.0555678 -0.000708207 0)
(-0.0546964 -0.00127084 0)
(-0.0534116 -0.00183508 0)
(-0.0517196 -0.0023902 0)
(-0.0496338 -0.00292504 0)
(-0.0471752 -0.00342828 0)
(-0.0443719 -0.00388879 0)
(-0.041259 -0.00429591 0)
(-0.0378782 -0.00463991 0)
(-0.0342769 -0.00491224 0)
(-0.0305075 -0.00510595 0)
(-0.0266263 -0.00521595 0)
(-0.0226921 -0.0052393 0)
(-0.0187651 -0.00517534 0)
(-0.0149054 -0.00502586 0)
(-0.0111714 -0.00479501 0)
(-0.0076183 -0.00448928 0)
(-0.00429685 -0.00411727 0)
(-0.001252 -0.00368942 0)
(0.0014783 -0.00321703 0)
(0.00386413 -0.00271281 0)
(0.00588383 -0.0021898 0)
(0.0075245 -0.00166073 0)
(0.00878194 -0.00113778 0)
(0.00966041 -0.000632149 0)
(0.0101721 -0.000153749 0)
(0.0103363 0.000288908 0)
(0.0101789 0.000688653 0)
(0.00973132 0.00103939 0)
(0.00903022 0.00133563 0)
(0.00811707 0.00157173 0)
(0.00703826 0.00174104 0)
(0.0058456 0.00183493 0)
(0.00459721 0.0018419 0)
(0.00335846 0.0017475 0)
(0.00220113 0.00153592 0)
(0.00120042 0.00119467 0)
(0.000448205 0.000727402 0)
(7.38344e-05 0.000197503 0)
(4.67402e-05 -0.00028969 0)
(0.000179468 -0.000552486 0)
(0.000333589 -0.000580963 0)
(0.00041703 -0.000445057 0)
(0.000375972 -0.000200947 0)
(0.000179568 0.000108318 0)
(-0.000191497 0.000452211 0)
(-0.000748037 0.000810747 0)
(-0.00149495 0.0011721 0)
(-0.00243375 0.0015303 0)
(-0.00356425 0.00188329 0)
(-0.00488561 0.00223136 0)
(-0.00639701 0.00257594 0)
(-0.00809785 0.00291875 0)
(-0.00998759 0.00326114 0)
(-0.0120655 0.00360375 0)
(-0.0143303 0.00394621 0)
(-0.0167794 0.00428702 0)
(-0.0194087 0.00462357 0)
(-0.0222117 0.00495213 0)
(-0.0251794 0.00526789 0)
(-0.0282994 0.00556514 0)
(-0.031556 0.00583737 0)
(-0.0349298 0.00607741 0)
(-0.0383971 0.00627761 0)
(-0.0419307 0.00643008 0)
(-0.0454993 0.00652686 0)
(-0.049068 0.00656015 0)
(-0.0525985 0.00652261 0)
(-0.0560498 0.00640753 0)
(-0.0593786 0.00620918 0)
(-0.06254 0.00592299 0)
(-0.0654883 0.00554585 0)
(-0.0681779 0.00507626 0)
(-0.0705644 0.00451461 0)
(-0.072605 0.00386323 0)
(-0.0742599 0.0031266 0)
(-0.075493 0.00231135 0)
(-0.0762731 0.00142627 0)
(-0.0765742 0.000482291 0)
(-0.0763765 -0.000507737 0)
(-0.0756672 -0.00152898 0)
(-0.0744409 -0.00256501 0)
(-0.0727 -0.00359815 0)
(-0.0704549 -0.00460975 0)
(-0.0677245 -0.00558058 0)
(-0.0645358 -0.00649135 0)
(-0.0609238 -0.00732317 0)
(-0.0569314 -0.00805811 0)
(-0.0526087 -0.00867975 0)
(-0.0480119 -0.00917372 0)
(-0.0432033 -0.00952828 0)
(-0.0382493 -0.00973475 0)
(-0.0332195 -0.00978795 0)
(-0.0281853 -0.00968649 0)
(-0.0232186 -0.00943297 0)
(-0.0183895 -0.00903399 0)
(-0.0137654 -0.00850006 0)
(-0.00940883 -0.00784526 0)
(-0.00537632 -0.00708679 0)
(-0.00171677 -0.00624425 0)
(0.00152955 -0.00533907 0)
(0.00433201 -0.00439369 0)
(0.00667019 -0.00343066 0)
(0.00853396 -0.00247184 0)
(0.00992358 -0.00153776 0)
(0.0108493 -0.000647112 0)
(0.0113308 0.000183562 0)
(0.0113964 0.000939822 0)
(0.0110824 0.00160903 0)
(0.0104323 0.00217963 0)
(0.00949635 0.00264015 0)
(0.00833145 0.00297795 0)
(0.00700117 0.00317795 0)
(0.00557619 0.00322163 0)
(0.0041349 0.00308711 0)
(0.00276196 0.00275149 0)
(0.00154575 0.00219656 0)
(0.000601409 0.00142175 0)
(0.000107381 0.000478673 0)
(3.72173e-05 -0.000380137 0)
(0.000119345 -0.000676962 0)
(0.000165616 -0.000646791 0)
(9.29882e-05 -0.000391527 0)
(-0.000148072 1.24052e-05 0)
(-0.000586437 0.000507219 0)
(-0.00123999 0.0010518 0)
(-0.00211895 0.00161912 0)
(-0.00322843 0.00219288 0)
(-0.00457056 0.00276463 0)
(-0.006146 0.00333112 0)
(-0.00795479 0.00389225 0)
(-0.00999673 0.00444942 0)
(-0.0122715 0.00500428 0)
(-0.0147782 0.00555791 0)
(-0.0175154 0.00611021 0)
(-0.0204801 0.00665958 0)
(-0.0236674 0.00720272 0)
(-0.0270698 0.00773465 0)
(-0.0306768 0.00824869 0)
(-0.0344741 0.00873668 0)
(-0.0384435 0.00918912 0)
(-0.0425624 0.00959539 0)
(-0.0468037 0.0099441 0)
(-0.0511356 0.0102233 0)
(-0.0555221 0.0104209 0)
(-0.0599227 0.0105249 0)
(-0.0642934 0.0105241 0)
(-0.0685869 0.0104078 0)
(-0.0727533 0.0101671 0)
(-0.0767411 0.00979451 0)
(-0.0804979 0.00928457 0)
(-0.0839714 0.00863426 0)
(-0.0871104 0.00784312 0)
(-0.0898659 0.00691354 0)
(-0.0921917 0.00585085 0)
(-0.0940459 0.00466344 0)
(-0.0953912 0.00336276 0)
(-0.0961961 0.00196329 0)
(-0.0964355 0.000482327 0)
(-0.0960912 -0.00106036 0)
(-0.0951521 -0.00264223 0)
(-0.0936159 -0.00423889 0)
(-0.0914879 -0.00582433 0)
(-0.088782 -0.00737142 0)
(-0.0855207 -0.00885243 0)
(-0.081735 -0.0102397 0)
(-0.077464 -0.0115061 0)
(-0.0727551 -0.0126262 0)
(-0.0676629 -0.0135764 0)
(-0.0622491 -0.0143361 0)
(-0.0565813 -0.0148883 0)
(-0.0507321 -0.0152202 0)
(-0.044778 -0.0153239 0)
(-0.0387979 -0.0151968 0)
(-0.0328715 -0.0148417 0)
(-0.0270778 -0.0142672 0)
(-0.0214935 -0.0134877 0)
(-0.0161907 -0.0125224 0)
(-0.0112361 -0.0113954 0)
(-0.00668832 -0.0101348 0)
(-0.00259751 -0.00877151 0)
(0.000996514 -0.0073381 0)
(0.00406493 -0.0058681 0)
(0.00659042 -0.00439451 0)
(0.0085674 -0.00294887 0)
(0.010002 -0.00156056 0)
(0.0109115 -0.000256162 0)
(0.011324 0.00094052 0)
(0.0112774 0.00200823 0)
(0.0108188 0.00292744 0)
(0.010004 0.00367914 0)
(0.00889662 0.00424337 0)
(0.00756842 0.00459769 0)
(0.00609893 0.00471603 0)
(0.00457609 0.00456866 0)
(0.00309476 0.00412437 0)
(0.00175521 0.00335559 0)
(0.000693241 0.00224864 0)
(0.000126364 0.000826066 0)
(2.25073e-05 -0.000430847 0)
(3.02022e-05 -0.00069804 0)
(-7.54917e-05 -0.000553759 0)
(-0.000358245 -0.000129546 0)
(-0.000857948 0.000479013 0)
(-0.00159857 0.0012007 0)
(-0.00259428 0.00198524 0)
(-0.00385303 0.00279968 0)
(-0.005379 0.00362419 0)
(-0.00717437 0.00444834 0)
(-0.00924028 0.00526796 0)
(-0.0115775 0.0060825 0)
(-0.0141862 0.00689301 0)
(-0.0170663 0.00770064 0)
(-0.0202165 0.00850551 0)
(-0.0236339 0.00930607 0)
(-0.0273136 0.0100986 0)
(-0.0312475 0.0108772 0)
(-0.0354243 0.0116335 0)
(-0.0398286 0.012357 0)
(-0.0444403 0.0130353 0)
(-0.0492347 0.0136542 0)
(-0.0541818 0.0141984 0)
(-0.0592469 0.0146515 0)
(-0.0643899 0.014997 0)
(-0.0695664 0.0152183 0)
(-0.0747279 0.0152994 0)
(-0.0798222 0.0152257 0)
(-0.0847946 0.014984 0)
(-0.0895884 0.0145634 0)
(-0.0941463 0.0139556 0)
(-0.0984108 0.0131554 0)
(-0.102326 0.0121607 0)
(-0.105838 0.0109733 0)
(-0.108895 0.00959868 0)
(-0.111451 0.00804625 0)
(-0.113464 0.00632929 0)
(-0.114898 0.00446494 0)
(-0.115722 0.0024741 0)
(-0.115914 0.000380989 0)
(-0.115456 -0.00178751 0)
(-0.114339 -0.00400061 0)
(-0.112564 -0.00622583 0)
(-0.110137 -0.00842882 0)
(-0.107075 -0.010574 0)
(-0.1034 -0.012625 0)
(-0.0991457 -0.0145459 0)
(-0.0943525 -0.0163014 0)
(-0.0890691 -0.017858 0)
(-0.0833519 -0.019185 0)
(-0.0772647 -0.020255 0)
(-0.0708778 -0.0210453 0)
(-0.064267 -0.0215384 0)
(-0.0575131 -0.0217228 0)
(-0.0506999 -0.0215938 0)
(-0.0439133 -0.0211538 0)
(-0.0372392 -0.0204128 0)
(-0.0307619 -0.0193878 0)
(-0.0245626 -0.0181032 0)
(-0.0187169 -0.0165895 0)
(-0.0132933 -0.0148829 0)
(-0.00835155 -0.0130239 0)
(-0.00394109 -0.011056 0)
(-9.98848e-05 -0.00902435 0)
(0.00314646 -0.00697405 0)
(0.00578516 -0.00494907 0)
(0.00781651 -0.00299104 0)
(0.00925366 -0.00113838 0)
(0.0101221 0.000573911 0)
(0.0104592 0.00211406 0)
(0.0103132 0.00345277 0)
(0.00974254 0.00456193 0)
(0.00881532 0.00541295 0)
(0.00760859 0.00597502 0)
(0.00620838 0.00621368 0)
(0.00471002 0.00609039 0)
(0.00321696 0.0055638 0)
(0.00184011 0.0045934 0)
(0.000731493 0.00314613 0)
(0.000133943 0.00120761 0)
(4.13893e-06 -0.000428827 0)
(-8.13198e-05 -0.000583806 0)
(-0.000375216 -0.000257827 0)
(-0.000913471 0.000392045 0)
(-0.0017217 0.0012535 0)
(-0.0028162 0.00224422 0)
(-0.00420539 0.0033069 0)
(-0.00589341 0.00440443 0)
(-0.00788254 0.00551476 0)
(-0.0101743 0.00662639 0)
(-0.0127699 0.00773463 0)
(-0.0156704 0.00883856 0)
(-0.0188764 0.00993861 0)
(-0.0223876 0.0110349 0)
(-0.0262017 0.0121258 0)
(-0.0303144 0.0132075 0)
(-0.0347179 0.0142734 0)
(-0.0394009 0.0153137 0)
(-0.0443473 0.0163159 0)
(-0.0495364 0.0172649 0)
(-0.0549419 0.018143 0)
(-0.0605323 0.0189309 0)
(-0.0662703 0.0196078 0)
(-0.0721135 0.0201524 0)
(-0.0780144 0.0205432 0)
(-0.083921 0.0207593 0)
(-0.0897779 0.0207812 0)
(-0.0955266 0.0205913 0)
(-0.101107 0.0201748 0)
(-0.106457 0.0195197 0)
(-0.111517 0.0186179 0)
(-0.116227 0.0174654 0)
(-0.120528 0.0160625 0)
(-0.124367 0.0144139 0)
(-0.127693 0.0125293 0)
(-0.130461 0.0104228 0)
(-0.132629 0.00811323 0)
(-0.134163 0.00562376 0)
(-0.135035 0.0029819 0)
(-0.135223 0.000218926 0)
(-0.134713 -0.00263142 0)
(-0.133494 -0.00553023 0)
(-0.131569 -0.00843728 0)
(-0.128944 -0.0113103 0)
(-0.125635 -0.0141054 0)
(-0.121664 -0.0167782 0)
(-0.117063 -0.0192842 0)
(-0.111871 -0.0215801 0)
(-0.106137 -0.0236245 0)
(-0.0999156 -0.0253788 0)
(-0.0932705 -0.0268087 0)
(-0.0862727 -0.0278847 0)
(-0.0789994 -0.0285839 0)
(-0.0715336 -0.0288902 0)
(-0.0639631 -0.028796 0)
(-0.0563784 -0.0283019 0)
(-0.0488717 -0.0274181 0)
(-0.0415348 -0.0261636 0)
(-0.034457 -0.0245668 0)
(-0.0277232 -0.0226641 0)
(-0.021412 -0.0204995 0)
(-0.0155933 -0.0181229 0)
(-0.0103267 -0.0155889 0)
(-0.00566026 -0.0129548 0)
(-0.00162883 -0.0102788 0)
(0.00174643 -0.00761831 0)
(0.00445868 -0.0050286 0)
(0.00651544 -0.00256153 0)
(0.00793816 -0.000265012 0)
(0.00876176 0.00181696 0)
(0.00903387 0.00364365 0)
(0.00881392 0.00517629 0)
(0.00817234 0.00637634 0)
(0.00718989 0.00720344 0)
(0.00595737 0.0076137 0)
(0.00457606 0.00755852 0)
(0.00315664 0.00698471 0)
(0.00181894 0.00583626 0)
(0.000726086 0.0040577 0)
(0.00013302 0.00159671 0)
(-1.71524e-05 -0.000363837 0)
(-0.000210989 -0.000307912 0)
(-0.000722961 0.000278325 0)
(-0.0015547 0.00121688 0)
(-0.00271354 0.00238255 0)
(-0.0042055 0.00368516 0)
(-0.00603138 0.00506315 0)
(-0.00819024 0.00647754 0)
(-0.0106815 0.00790574 0)
(-0.0135054 0.00933634 0)
(-0.0166628 0.0107648 0)
(-0.0201548 0.0121897 0)
(-0.0239818 0.0136109 0)
(-0.0281431 0.0150266 0)
(-0.0326351 0.016433 0)
(-0.0374513 0.017823 0)
(-0.0425809 0.0191858 0)
(-0.0480085 0.0205073 0)
(-0.0537133 0.0217697 0)
(-0.0596685 0.0229524 0)
(-0.0658418 0.024032 0)
(-0.0721948 0.0249834 0)
(-0.0786833 0.0257804 0)
(-0.0852578 0.0263964 0)
(-0.0918644 0.0268055 0)
(-0.098445 0.0269828 0)
(-0.104939 0.0269061 0)
(-0.111283 0.0265558 0)
(-0.117413 0.0259161 0)
(-0.123266 0.0249753 0)
(-0.12878 0.0237266 0)
(-0.133895 0.0221681 0)
(-0.138553 0.0203033 0)
(-0.142701 0.0181408 0)
(-0.146291 0.0156948 0)
(-0.149279 0.0129847 0)
(-0.151626 0.0100348 0)
(-0.1533 0.00687431 0)
(-0.154272 0.00353669 0)
(-0.154524 5.98278e-05 0)
(-0.154039 -0.00351392 0)
(-0.152808 -0.00714067 0)
(-0.15083 -0.0107727 0)
(-0.148113 -0.0143602 0)
(-0.144666 -0.0178515 0)
(-0.140512 -0.0211943 0)
(-0.135678 -0.0243361 0)
(-0.1302 -0.0272253 0)
(-0.124123 -0.0298122 0)
(-0.1175 -0.0320502 0)
(-0.110392 -0.033897 0)
(-0.102869 -0.0353159 0)
(-0.0950084 -0.0362771 0)
(-0.086894 -0.0367589 0)
(-0.0786164 -0.036749 0)
(-0.0702705 -0.0362452 0)
(-0.0619544 -0.0352564 0)
(-0.0537671 -0.0338025 0)
(-0.0458065 -0.0319146 0)
(-0.0381674 -0.0296341 0)
(-0.0309389 -0.0270123 0)
(-0.024202 -0.0241085 0)
(-0.0180277 -0.0209881 0)
(-0.0124749 -0.0177212 0)
(-0.00758901 -0.0143797 0)
(-0.00340069 -0.0110356 0)
(7.49179e-05 -0.00775913 0)
(0.0028384 -0.00461704 0)
(0.00490594 -0.00167178 0)
(0.00630883 0.00101877 0)
(0.00709273 0.00340081 0)
(0.00731674 0.0054234 0)
(0.00705242 0.00703662 0)
(0.00638301 0.00818937 0)
(0.005403 0.00882712 0)
(0.00421845 0.00889004 0)
(0.00294596 0.00831186 0)
(0.00171237 0.00701989 0)
(0.000686976 0.0049359 0)
(0.000126059 0.00197278 0)
(-4.08785e-05 -0.000227478 0)
(-0.000355708 0.000151474 0)
(-0.00111075 0.00108565 0)
(-0.00226768 0.00238134 0)
(-0.00381191 0.00390513 0)
(-0.00573717 0.00556295 0)
(-0.00803503 0.00729238 0)
(-0.0106983 0.00905529 0)
(-0.0137228 0.0108306 0)
(-0.0171069 0.0126084 0)
(-0.0208506 0.0143847 0)
(-0.0249548 0.0161584 0)
(-0.0294193 0.0179277 0)
(-0.0342424 0.0196889 0)
(-0.0394189 0.0214347 0)
(-0.0449397 0.0231541 0)
(-0.0507904 0.0248313 0)
(-0.0569514 0.0264467 0)
(-0.0633964 0.0279766 0)
(-0.0700932 0.0293942 0)
(-0.0770031 0.03067 0)
(-0.0840813 0.031773 0)
(-0.0912775 0.0326715 0)
(-0.0985363 0.0333342 0)
(-0.105798 0.033731 0)
(-0.113001 0.0338343 0)
(-0.12008 0.0336195 0)
(-0.12697 0.0330665 0)
(-0.133606 0.0321595 0)
(-0.139923 0.0308882 0)
(-0.145861 0.0292479 0)
(-0.15136 0.0272398 0)
(-0.156366 0.024871 0)
(-0.160827 0.0221548 0)
(-0.164697 0.0191098 0)
(-0.167934 0.0157604 0)
(-0.170502 0.0121364 0)
(-0.172369 0.00827238 0)
(-0.173508 0.00420721 0)
(-0.173898 -1.53834e-05 0)
(-0.173523 -0.00434547 0)
(-0.172373 -0.00873486 0)
(-0.170443 -0.0131291 0)
(-0.167736 -0.0174713 0)
(-0.164258 -0.0217029 0)
(-0.160027 -0.0257638 0)
(-0.155065 -0.0295938 0)
(-0.149403 -0.0331328 0)
(-0.14308 -0.0363228 0)
(-0.136146 -0.0391083 0)
(-0.128658 -0.0414383 0)
(-0.120683 -0.0432675 0)
(-0.112297 -0.0445582 0)
(-0.103584 -0.0452814 0)
(-0.0946363 -0.0454187 0)
(-0.0855532 -0.0449632 0)
(-0.0764378 -0.0439208 0)
(-0.0673966 -0.0423108 0)
(-0.0585366 -0.0401655 0)
(-0.0499631 -0.0375306 0)
(-0.0417767 -0.0344636 0)
(-0.0340707 -0.0310327 0)
(-0.0269288 -0.0273145 0)
(-0.0204222 -0.0233918 0)
(-0.0146082 -0.0193513 0)
(-0.00952831 -0.0152807 0)
(-0.00520739 -0.0112662 0)
(-0.00165292 -0.00739125 0)
(0.00114484 -0.00373437 0)
(0.00321251 -0.000369018 0)
(0.00459282 0.00263627 0)
(0.00534361 0.00521682 0)
(0.00553675 0.00730992 0)
(0.00525713 0.00885241 0)
(0.00460217 0.009778 0)
(0.00368176 0.0100147 0)
(0.0026172 0.00948236 0)
(0.00154052 0.00809179 0)
(0.000623232 0.00574342 0)
(0.000115063 0.0023207 0)
(-6.67442e-05 -1.2584e-05 0)
(-0.000513289 0.000812474 0)
(-0.00153206 0.00218959 0)
(-0.00304001 0.00391528 0)
(-0.00499769 0.00585292 0)
(-0.00738468 0.00790928 0)
(-0.010182 0.010025 0)
(-0.0133753 0.012166 0)
(-0.0169562 0.014315 0)
(-0.0209205 0.0164649 0)
(-0.0252673 0.0186134 0)
(-0.0299965 0.0207592 0)
(-0.0351073 0.0228992 0)
(-0.0405962 0.0250269 0)
(-0.0464562 0.027131 0)
(-0.052675 0.0291952 0)
(-0.0592346 0.0311982 0)
(-0.0661105 0.0331139 0)
(-0.0732714 0.0349121 0)
(-0.0806793 0.0365596 0)
(-0.08829 0.0380205 0)
(-0.0960528 0.0392582 0)
(-0.103912 0.0402357 0)
(-0.111808 0.0409175 0)
(-0.119678 0.0412705 0)
(-0.127456 0.0412649 0)
(-0.135075 0.0408754 0)
(-0.142471 0.0400819 0)
(-0.149578 0.0388699 0)
(-0.156333 0.0372314 0)
(-0.162678 0.0351645 0)
(-0.168555 0.0326741 0)
(-0.173912 0.0297713 0)
(-0.178701 0.0264736 0)
(-0.182878 0.0228041 0)
(-0.186403 0.0187921 0)
(-0.189241 0.0144718 0)
(-0.19136 0.00988258 0)
(-0.192734 0.00506842 0)
(-0.193338 7.78597e-05 0)
(-0.193156 -0.00503617 0)
(-0.192175 -0.0102179 0)
(-0.190386 -0.0154076 0)
(-0.187784 -0.0205425 0)
(-0.184374 -0.0255575 0)
(-0.180164 -0.0303854 0)
(-0.175171 -0.0349583 0)
(-0.16942 -0.0392078 0)
(-0.162943 -0.0430668 0)
(-0.155784 -0.0464707 0)
(-0.147995 -0.0493587 0)
(-0.139638 -0.0516759 0)
(-0.130787 -0.0533748 0)
(-0.121524 -0.0544177 0)
(-0.111943 -0.0547781 0)
(-0.102146 -0.0544424 0)
(-0.0922403 -0.0534116 0)
(-0.0823402 -0.0517021 0)
(-0.072562 -0.0493463 0)
(-0.0630221 -0.0463922 0)
(-0.0538337 -0.0429027 0)
(-0.045104 -0.0389543 0)
(-0.0369307 -0.0346345 0)
(-0.0293993 -0.0300395 0)
(-0.0225808 -0.0252713 0)
(-0.0165293 -0.0204342 0)
(-0.0112809 -0.0156325 0)
(-0.00685254 -0.0109675 0)
(-0.00324227 -0.0065357 0)
(-0.00042917 -0.00242802 0)
(0.00162567 0.00127056 0)
(0.00297811 0.00447995 0)
(0.0036997 0.00712317 0)
(0.00387648 0.00912367 0)
(0.00360818 0.0104024 0)
(0.00300783 0.0108743 0)
(0.00220042 0.0104456 0)
(0.00132174 0.00901104 0)
(0.000542762 0.0064525 0)
(0.000101649 0.00263001 0)
(-9.45282e-05 0.000287026 0)
(-0.000681752 0.0016902 0)
(-0.00198097 0.00361107 0)
(-0.0038603 0.00584252 0)
(-0.00625296 0.00825067 0)
(-0.00912289 0.0107483 0)
(-0.0124395 0.0132837 0)
(-0.0161805 0.0158301 0)
(-0.0203327 0.0183765 0)
(-0.0248895 0.0209203 0)
(-0.029848 0.0234615 0)
(-0.0352072 0.025999 0)
(-0.0409649 0.028528 0)
(-0.0471159 0.0310384 0)
(-0.0536506 0.0335142 0)
(-0.0605533 0.0359331 0)
(-0.0678021 0.0382673 0)
(-0.0753677 0.0404839 0)
(-0.0832139 0.0425458 0)
(-0.0912973 0.044413 0)
(-0.0995686 0.0460436 0)
(-0.107973 0.0473953 0)
(-0.11645 0.048427 0)
(-0.124937 0.0490998 0)
(-0.133368 0.0493782 0)
(-0.141677 0.0492317 0)
(-0.149798 0.048635 0)
(-0.157666 0.0475692 0)
(-0.165217 0.0460221 0)
(-0.172392 0.0439884 0)
(-0.179133 0.0414697 0)
(-0.185388 0.0384746 0)
(-0.191106 0.0350182 0)
(-0.196241 0.0311218 0)
(-0.200753 0.0268129 0)
(-0.204603 0.0221244 0)
(-0.207756 0.0170946 0)
(-0.21018 0.0117666 0)
(-0.211848 0.00618845 0)
(-0.212734 0.000412521 0)
(-0.212818 -0.00550559 0)
(-0.212083 -0.0115041 0)
(-0.210515 -0.0175188 0)
(-0.208106 -0.0234816 0)
(-0.204851 -0.0293216 0)
(-0.200753 -0.0349651 0)
(-0.195822 -0.0403364 0)
(-0.190074 -0.0453591 0)
(-0.183535 -0.0499569 0)
(-0.176239 -0.0540553 0)
(-0.168232 -0.0575831 0)
(-0.159571 -0.0604743 0)
(-0.150323 -0.0626705 0)
(-0.14057 -0.064123 0)
(-0.130403 -0.0647952 0)
(-0.119924 -0.0646645 0)
(-0.109247 -0.0637247 0)
(-0.0984923 -0.061987 0)
(-0.0877846 -0.0594814 0)
(-0.0772524 -0.0562565 0)
(-0.0670224 -0.0523791 0)
(-0.0572169 -0.047933 0)
(-0.0479497 -0.0430164 0)
(-0.0393227 -0.0377389 0)
(-0.0314226 -0.0322186 0)
(-0.0243186 -0.0265779 0)
(-0.0180599 -0.0209405 0)
(-0.0126751 -0.0154276 0)
(-0.00817147 -0.0101558 0)
(-0.00453502 -0.00523537 0)
(-0.00173169 -0.000769809 0)
(0.000291674 0.00314358 0)
(0.00160577 0.00641189 0)
(0.00229736 0.0089439 0)
(0.00246809 0.0106467 0)
(0.00223365 0.0114219 0)
(0.00172204 0.011162 0)
(0.00107194 0.00974729 0)
(0.000452226 0.00704381 0)
(8.71173e-05 0.00289416 0)
(-0.000123979 0.000676563 0)
(-0.0008591 0.00279686 0)
(-0.00245163 0.00536632 0)
(-0.00471738 0.00818103 0)
(-0.00756017 0.0111163 0)
(-0.0109271 0.0140969 0)
(-0.0147752 0.0170832 0)
(-0.0190738 0.0200598 0)
(-0.0238045 0.0230246 0)
(-0.0289576 0.0259808 0)
(-0.0345286 0.0289318 0)
(-0.0405148 0.0318767 0)
(-0.0469122 0.0348085 0)
(-0.0537137 0.0377132 0)
(-0.0609065 0.0405689 0)
(-0.0684717 0.0433472 0)
(-0.076383 0.0460129 0)
(-0.0846065 0.0485258 0)
(-0.0931014 0.0508418 0)
(-0.10182 0.0529143 0)
(-0.110708 0.0546957 0)
(-0.119707 0.0561389 0)
(-0.128755 0.0571992 0)
(-0.137786 0.0578353 0)
(-0.146735 0.0580108 0)
(-0.155535 0.0576949 0)
(-0.164121 0.0568638 0)
(-0.172429 0.0555005 0)
(-0.180401 0.0535956 0)
(-0.187978 0.0511469 0)
(-0.195106 0.0481598 0)
(-0.201736 0.0446462 0)
(-0.20782 0.0406251 0)
(-0.213316 0.0361214 0)
(-0.218182 0.0311658 0)
(-0.222383 0.0257945 0)
(-0.225883 0.0200487 0)
(-0.228652 0.0139747 0)
(-0.230658 0.00762338 0)
(-0.231877 0.0010499 0)
(-0.232283 -0.00568642 0)
(-0.231856 -0.0125209 0)
(-0.230578 -0.0193852 0)
(-0.228435 -0.0262069 0)
(-0.225415 -0.0329097 0)
(-0.221515 -0.039414 0)
(-0.216735 -0.0456372 0)
(-0.211083 -0.051495 0)
(-0.204576 -0.0569018 0)
(-0.197239 -0.0617731 0)
(-0.189109 -0.0660264 0)
(-0.180235 -0.0695839 0)
(-0.170677 -0.0723747 0)
(-0.16051 -0.0743371 0)
(-0.149823 -0.0754222 0)
(-0.138718 -0.0755958 0)
(-0.12731 -0.0748415 0)
(-0.115723 -0.0731626 0)
(-0.104092 -0.0705837 0)
(-0.0925565 -0.0671517 0)
(-0.0812574 -0.0629353 0)
(-0.0703336 -0.0580239 0)
(-0.0599166 -0.0525255 0)
(-0.0501272 -0.0465633 0)
(-0.0410707 -0.0402722 0)
(-0.0328339 -0.0337938 0)
(-0.0254822 -0.027273 0)
(-0.019058 -0.0208533 0)
(-0.0135801 -0.0146735 0)
(-0.00904318 -0.00886584 0)
(-0.00541932 -0.00355461 0)
(-0.002659 0.00114358 0)
(-0.000692978 0.00511809 0)
(0.000565849 0.00826157 0)
(0.00122077 0.0104663 0)
(0.00138987 0.0116201 0)
(0.0012039 0.011602 0)
(0.000804123 0.0102793 0)
(0.000356988 0.00750518 0)
(7.24838e-05 0.00310981 0)
(-0.000154777 0.00116021 0)
(-0.00104316 0.00414168 0)
(-0.00293796 0.00746697 0)
(-0.00559981 0.0109429 0)
(-0.00890152 0.0144611 0)
(-0.0127726 0.0179644 0)
(-0.017157 0.0214308 0)
(-0.0220153 0.0248598 0)
(-0.0273238 0.0282608 0)
(-0.0330695 0.0316449 0)
(-0.0392457 0.0350192 0)
(-0.0458479 0.0383831 0)
(-0.0528701 0.0417274 0)
(-0.0603026 0.0450332 0)
(-0.0681297 0.0482725 0)
(-0.0763286 0.0514097 0)
(-0.0848688 0.0544022 0)
(-0.0937124 0.0572023 0)
(-0.102814 0.0597589 0)
(-0.112122 0.0620192 0)
(-0.12158 0.0639304 0)
(-0.131126 0.0654415 0)
(-0.140695 0.0665052 0)
(-0.150224 0.0670788 0)
(-0.159644 0.0671257 0)
(-0.168893 0.0666164 0)
(-0.177906 0.0655287 0)
(-0.186624 0.0638484 0)
(-0.194989 0.0615693 0)
(-0.202946 0.0586924 0)
(-0.210446 0.0552266 0)
(-0.21744 0.0511874 0)
(-0.223885 0.0465969 0)
(-0.22974 0.0414829 0)
(-0.234966 0.035879 0)
(-0.239526 0.029824 0)
(-0.243388 0.0233615 0)
(-0.246519 0.0165398 0)
(-0.248889 0.00941194 0)
(-0.25047 0.00203541 0)
(-0.251236 -0.0055279 0)
(-0.251162 -0.0132111 0)
(-0.250227 -0.0209428 0)
(-0.24841 -0.0286471 0)
(-0.245696 -0.0362436 0)
(-0.242072 -0.0436474 0)
(-0.23753 -0.05077 0)
(-0.232071 -0.0575196 0)
(-0.225698 -0.0638021 0)
(-0.218428 -0.0695228 0)
(-0.210286 -0.074588 0)
(-0.201309 -0.078907 0)
(-0.19155 -0.0823951 0)
(-0.181073 -0.0849762 0)
(-0.169961 -0.0865864 0)
(-0.158313 -0.0871772 0)
(-0.14624 -0.0867186 0)
(-0.133873 -0.0852028 0)
(-0.121352 -0.0826455 0)
(-0.108826 -0.0790883 0)
(-0.0964511 -0.074599 0)
(-0.084383 -0.0692706 0)
(-0.0727734 -0.0632193 0)
(-0.0617641 -0.0565812 0)
(-0.0514822 -0.0495083 0)
(-0.0420354 -0.042163 0)
(-0.0335088 -0.0347131 0)
(-0.0259621 -0.0273267 0)
(-0.0194281 -0.020168 0)
(-0.0139129 -0.0133939 0)
(-0.00939635 -0.00715217 0)
(-0.00583401 -0.00158141 0)
(-0.00315888 0.00318791 0)
(-0.00128399 0.00703061 0)
(-0.000104613 0.00982305 0)
(0.00049972 0.0114387 0)
(0.000662594 0.0117437 0)
(0.000528141 0.0105933 0)
(0.000261064 0.00783011 0)
(5.84919e-05 0.00327608 0)
(-0.000186547 0.00174102 0)
(-0.00123155 0.00573078 0)
(-0.00343345 0.00991997 0)
(-0.00649562 0.0141344 0)
(-0.0102587 0.0182896 0)
(-0.0146339 0.0223533 0)
(-0.0195521 0.0263262 0)
(-0.0249649 0.0302268 0)
(-0.0308428 0.0340791 0)
(-0.0371696 0.0379031 0)
(-0.0439362 0.0417106 0)
(-0.0511359 0.0455015 0)
(-0.0587605 0.0492636 0)
(-0.0667974 0.052973 0)
(-0.0752275 0.056595 0)
(-0.0840244 0.0600862 0)
(-0.0931538 0.0633965 0)
(-0.102574 0.0664708 0)
(-0.112235 0.0692512 0)
(-0.122084 0.0716793 0)
(-0.13206 0.073698 0)
(-0.1421 0.0752532 0)
(-0.15214 0.0762958 0)
(-0.162115 0.0767829 0)
(-0.171961 0.0766787 0)
(-0.181613 0.0759553 0)
(-0.191012 0.0745931 0)
(-0.2001 0.0725809 0)
(-0.208823 0.0699156 0)
(-0.21713 0.0666018 0)
(-0.224972 0.0626516 0)
(-0.232306 0.0580834 0)
(-0.23909 0.0529224 0)
(-0.245284 0.047199 0)
(-0.250852 0.0409491 0)
(-0.255759 0.0342136 0)
(-0.259973 0.0270379 0)
(-0.263462 0.0194721 0)
(-0.266197 0.0115706 0)
(-0.268149 0.00339257 0)
(-0.269291 -0.00499862 0)
(-0.269597 -0.0135345 0)
(-0.269041 -0.0221418 0)
(-0.2676 -0.0307423 0)
(-0.265252 -0.0392525 0)
(-0.261977 -0.0475838 0)
(-0.257761 -0.0556428 0)
(-0.252591 -0.0633314 0)
(-0.246462 -0.070548 0)
(-0.239378 -0.0771885 0)
(-0.231351 -0.0831478 0)
(-0.222405 -0.0883224 0)
(-0.212578 -0.0926127 0)
(-0.201924 -0.0959267 0)
(-0.190515 -0.0981833 0)
(-0.17844 -0.0993167 0)
(-0.165809 -0.0992801 0)
(-0.152749 -0.0980499 0)
(-0.139405 -0.0956293 0)
(-0.125934 -0.0920502 0)
(-0.112505 -0.0873755 0)
(-0.0992919 -0.0816984 0)
(-0.086467 -0.0751409 0)
(-0.0741957 -0.067851 0)
(-0.06263 -0.0599972 0)
(-0.0519028 -0.0517635 0)
(-0.0421227 -0.0433428 0)
(-0.0333708 -0.0349307 0)
(-0.025698 -0.0267197 0)
(-0.0191249 -0.018895 0)
(-0.0136419 -0.0116314 0)
(-0.00921131 -0.00509232 0)
(-0.00576978 0.000569158 0)
(-0.00323112 0.00520795 0)
(-0.00148937 0.00868307 0)
(-0.000421575 0.0108529 0)
(0.000109128 0.0115707 0)
(0.000250558 0.0106805 0)
(0.000167111 0.00801614 0)
(4.56212e-05 0.00339389 0)
(-0.000218847 0.00242073 0)
(-0.00142161 0.00756693 0)
(-0.00393115 0.0127274 0)
(-0.00739229 0.0177558 0)
(-0.0116129 0.0225998 0)
(-0.0164856 0.0272586 0)
(-0.021928 0.0317616 0)
(-0.0278825 0.0361504 0)
(-0.0343144 0.0404657 0)
(-0.0412036 0.0447385 0)
(-0.0485384 0.0489856 0)
(-0.0563098 0.0532076 0)