/*--------------------------------*- C++ -*----------------------------------*\
  =========                 |
  \\      /  F ield         | OpenFOAM: The Open Source CFD Toolbox
   \\    /   O peration     | Website:  https://openfoam.org
    \\  /    A nd           | Version:  7
     \\/     M anipulation  |
\*---------------------------------------------------------------------------*/
FoamFile
{
    version     2.0;
    format      ascii;
    class       volVectorField;
    location    "1.175";
    object      U;
}
// * * * * * * * * * * * * * * * * * * * * * * * * * * * * * * * * * * * * * //

dimensions      [0 1 -1 0 0 0 0];

internalField   nonuniform List<vector> 
6400
(
(8.65001e-06 -8.70906e-06 0)
(3.39316e-05 -1.59763e-05 0)
(6.44865e-05 -1.464e-05 0)
(8.33589e-05 -8.88278e-06 0)
(8.21551e-05 -1.38154e-06 0)
(5.81493e-05 6.5215e-06 0)
(1.09618e-05 1.41609e-05 0)
(-5.85613e-05 2.12326e-05 0)
(-0.000148883 2.76071e-05 0)
(-0.000258117 3.32455e-05 0)
(-0.00038424 3.81588e-05 0)
(-0.000525207 4.23828e-05 0)
(-0.000679026 4.59651e-05 0)
(-0.000843801 4.89579e-05 0)
(-0.00101775 5.14134e-05 0)
(-0.0011992 5.33809e-05 0)
(-0.00138663 5.4906e-05 0)
(-0.00157861 5.60292e-05 0)
(-0.00177382 5.67852e-05 0)
(-0.00197102 5.72023e-05 0)
(-0.00216907 5.73033e-05 0)
(-0.00236685 5.71052e-05 0)
(-0.00256332 5.66195e-05 0)
(-0.00275746 5.58533e-05 0)
(-0.00294826 5.48096e-05 0)
(-0.00313472 5.34882e-05 0)
(-0.00331585 5.18863e-05 0)
(-0.00349066 4.99989e-05 0)
(-0.00365813 4.78207e-05 0)
(-0.00381726 4.5346e-05 0)
(-0.00396701 4.25695e-05 0)
(-0.00410635 3.94878e-05 0)
(-0.00423426 3.60991e-05 0)
(-0.00434972 3.24042e-05 0)
(-0.00445172 2.84074e-05 0)
(-0.0045393 2.41173e-05 0)
(-0.00461154 1.95467e-05 0)
(-0.00466756 1.47129e-05 0)
(-0.00470657 9.63845e-06 0)
(-0.00472786 4.35114e-06 0)
(-0.00473085 -1.11567e-06 0)
(-0.00471505 -6.72366e-06 0)
(-0.00468012 -1.24293e-05 0)
(-0.00462589 -1.81841e-05 0)
(-0.00455233 -2.39348e-05 0)
(-0.00445961 -2.96245e-05 0)
(-0.00434809 -3.51928e-05 0)
(-0.00421832 -4.05771e-05 0)
(-0.00407105 -4.57131e-05 0)
(-0.00390724 -5.05362e-05 0)
(-0.00372807 -5.49822e-05 0)
(-0.0035349 -5.89885e-05 0)
(-0.0033293 -6.24958e-05 0)
(-0.003113 -6.54487e-05 0)
(-0.00288792 -6.77972e-05 0)
(-0.00265609 -6.94975e-05 0)
(-0.00241971 -7.05138e-05 0)
(-0.00218104 -7.08184e-05 0)
(-0.00194244 -7.03924e-05 0)
(-0.00170628 -6.92268e-05 0)
(-0.00147496 -6.73227e-05 0)
(-0.00125085 -6.46916e-05 0)
(-0.00103626 -6.13548e-05 0)
(-0.000833419 -5.73443e-05 0)
(-0.00064442 -5.27016e-05 0)
(-0.000471202 -4.74778e-05 0)
(-0.000315514 -4.17334e-05 0)
(-0.00017888 -3.55384e-05 0)
(-6.25641e-05 -2.89726e-05 0)
(3.24641e-05 -2.21282e-05 0)
(0.000105579 -1.51097e-05 0)
(0.000156557 -8.045e-06 0)
(0.000185653 -1.09479e-06 0)
(0.000193719 5.52395e-06 0)
(0.000182395 1.14992e-05 0)
(0.000154397 1.63503e-05 0)
(0.000113896 1.93248e-05 0)
(6.72616e-05 1.91959e-05 0)
(2.5256e-05 1.41252e-05 0)
(3.5672e-06 3.58136e-06 0)
(1.60598e-05 -3.40937e-05 0)
(5.46609e-05 -5.44914e-05 0)
(8.90405e-05 -4.15959e-05 0)
(9.10229e-05 -1.00281e-05 0)
(4.47293e-05 3.05944e-05 0)
(-5.67663e-05 7.44959e-05 0)
(-0.000215658 0.000118284 0)
(-0.000431091 0.000160017 0)
(-0.000700254 0.00019863 0)
(-0.00101915 0.000233587 0)
(-0.00138314 0.00026468 0)
(-0.00178729 0.0002919 0)
(-0.00222662 0.000315359 0)
(-0.00269624 0.000335238 0)
(-0.00319145 0.00035175 0)
(-0.00370776 0.000365121 0)
(-0.00424096 0.000375569 0)
(-0.00478706 0.000383301 0)
(-0.00534232 0.0003885 0)
(-0.00590322 0.000391322 0)
(-0.00646639 0.000391896 0)
(-0.00702863 0.000390325 0)
(-0.00758686 0.000386681 0)
(-0.00813808 0.000381015 0)
(-0.00867935 0.000373357 0)
(-0.00920776 0.000363718 0)
(-0.00972042 0.000352097 0)
(-0.0102144 0.000338483 0)
(-0.0106869 0.000322861 0)
(-0.011135 0.000305219 0)
(-0.0115558 0.000285546 0)
(-0.0119464 0.000263843 0)
(-0.0123039 0.000240123 0)
(-0.0126256 0.000214418 0)
(-0.0129087 0.00018678 0)
(-0.0131507 0.000157286 0)
(-0.0133489 0.000126039 0)
(-0.0135011 9.31705e-05 0)
(-0.0136053 5.88442e-05 0)
(-0.0136596 2.32545e-05 0)
(-0.0136624 -1.33722e-05 0)
(-0.0136127 -5.07784e-05 0)
(-0.0135096 -8.86769e-05 0)
(-0.0133528 -0.000126752 0)
(-0.0131423 -0.000164662 0)
(-0.0128787 -0.000202043 0)
(-0.0125632 -0.000238515 0)
(-0.0121973 -0.000273685 0)
(-0.0117833 -0.00030715 0)
(-0.0113238 -0.000338511 0)
(-0.0108221 -0.00036737 0)
(-0.0102819 -0.000393345 0)
(-0.00970772 -0.000416073 0)
(-0.00910416 -0.000435216 0)
(-0.00847647 -0.000450472 0)
(-0.00783022 -0.000461578 0)
(-0.00717132 -0.000468319 0)
(-0.00650592 -0.000470531 0)
(-0.00584035 -0.000468108 0)
(-0.00518105 -0.000461001 0)
(-0.00453446 -0.000449228 0)
(-0.00390696 -0.00043287 0)
(-0.00330475 -0.000412075 0)
(-0.00273379 -0.000387056 0)
(-0.00219968 -0.000358092 0)
(-0.00170758 -0.000325528 0)
(-0.00126211 -0.000289776 0)
(-0.000867265 -0.000251316 0)
(-0.000526298 -0.000210702 0)
(-0.000241614 -0.000168572 0)
(-1.46343e-05 -0.000125667 0)
(0.000154359 -8.28652e-05 0)
(0.000266431 -4.12368e-05 0)
(0.000324267 -2.13337e-06 0)
(0.000332555 3.26733e-05 0)
(0.000298489 6.07799e-05 0)
(0.000232245 7.88829e-05 0)
(0.000147675 8.2415e-05 0)
(6.5409e-05 6.55403e-05 0)
(1.40087e-05 2.51711e-05 0)
(1.4939e-05 -6.49379e-05 0)
(4.22895e-05 -8.90716e-05 0)
(4.61896e-05 -4.55528e-05 0)
(-3.78217e-06 3.79302e-05 0)
(-0.000125747 0.000142914 0)
(-0.000328614 0.000257016 0)
(-0.000615677 0.000372189 0)
(-0.000986248 0.000483353 0)
(-0.00143686 0.000587434 0)
(-0.00196222 0.000682683 0)
(-0.00255594 0.000768219 0)
(-0.00321103 0.000843737 0)
(-0.00392025 0.000909308 0)
(-0.00467637 0.000965228 0)
(-0.00547231 0.00101193 0)
(-0.00630122 0.00104991 0)
(-0.00715658 0.00107967 0)
(-0.00803215 0.00110172 0)
(-0.00892203 0.0011165 0)
(-0.00982057 0.0011244 0)
(-0.0107224 0.00112576 0)
(-0.0116223 0.00112084 0)
(-0.0125154 0.00110986 0)
(-0.0133967 0.00109294 0)
(-0.0142614 0.00107019 0)
(-0.0151049 0.00104166 0)
(-0.0159224 0.00100736 0)
(-0.0167094 0.000967289 0)
(-0.0174612 0.00092144 0)
(-0.0181731 0.000869803 0)
(-0.0188406 0.000812386 0)
(-0.0194592 0.000749224 0)
(-0.0200243 0.00068039 0)
(-0.0205316 0.000606005 0)
(-0.0209768 0.00052625 0)
(-0.0213559 0.00044137 0)
(-0.0216651 0.000351682 0)
(-0.021901 0.000257583 0)
(-0.0220603 0.000159552 0)
(-0.0221404 5.81524e-05 0)
(-0.022139 -4.59676e-05 0)
(-0.0220544 -0.000152078 0)
(-0.0218856 -0.000259368 0)
(-0.0216322 -0.000366954 0)
(-0.0212944 -0.000473887 0)
(-0.0208733 -0.00057916 0)
(-0.0203707 -0.000681723 0)
(-0.0197893 -0.000780493 0)
(-0.0191326 -0.000874375 0)
(-0.0184047 -0.000962271 0)
(-0.017611 -0.0010431 0)
(-0.0167573 -0.00111583 0)
(-0.0158504 -0.00117947 0)
(-0.0148975 -0.00123311 0)
(-0.0139068 -0.00127593 0)
(-0.0128869 -0.00130723 0)
(-0.011847 -0.00132643 0)
(-0.0107963 -0.0013331 0)
(-0.00974485 -0.00132695 0)
(-0.00870234 -0.00130787 0)
(-0.00767873 -0.00127592 0)
(-0.00668377 -0.00123133 0)
(-0.00572698 -0.00117453 0)
(-0.00481748 -0.00110612 0)
(-0.00396381 -0.00102689 0)
(-0.00317385 -0.00093783 0)
(-0.00245462 -0.000840102 0)
(-0.00181215 -0.000735079 0)
(-0.00125131 -0.000624346 0)
(-0.000775632 -0.000509728 0)
(-0.000387124 -0.000393342 0)
(-8.60296e-05 -0.000277666 0)
(0.000129441 -0.000165656 0)
(0.000263455 -6.0919e-05 0)
(0.000322985 3.20475e-05 0)
(0.000318314 0.000107536 0)
(0.000263375 0.000158294 0)
(0.000176189 0.000175244 0)
(8.25785e-05 0.0001478 0)
(1.90466e-05 6.69553e-05 0)
(9.36581e-06 -8.44597e-05 0)
(1.08583e-05 -9.13685e-05 0)
(-3.79632e-05 4.46291e-06 0)
(-0.00016377 0.000162596 0)
(-0.000383606 0.00035576 0)
(-0.000706591 0.000564711 0)
(-0.00113608 0.000776205 0)
(-0.00167111 0.000981441 0)
(-0.00230758 0.00117478 0)
(-0.00303923 0.00135277 0)
(-0.00385835 0.00151353 0)
(-0.0047564 0.00165619 0)
(-0.0057244 0.00178063 0)
(-0.00675325 0.00188718 0)
(-0.00783394 0.00197645 0)
(-0.00895765 0.00204921 0)
(-0.0101159 0.0021063 0)
(-0.0113005 0.00214853 0)
(-0.0125035 0.00217669 0)
(-0.0137176 0.00219145 0)
(-0.0149354 0.00219342 0)
(-0.01615 0.00218306 0)
(-0.0173545 0.00216076 0)
(-0.0185424 0.00212679 0)
(-0.0197072 0.00208134 0)
(-0.0208424 0.00202453 0)
(-0.0219418 0.00195641 0)
(-0.0229991 0.00187702 0)
(-0.0240079 0.00178637 0)
(-0.0249622 0.0016845 0)
(-0.0258558 0.00157145 0)
(-0.0266826 0.00144735 0)
(-0.0274367 0.00131238 0)
(-0.0281124 0.00116681 0)
(-0.028704 0.00101104 0)
(-0.0292064 0.000845584 0)
(-0.0296147 0.000671079 0)
(-0.0299242 0.000488322 0)
(-0.0301311 0.000298258 0)
(-0.0302319 0.000101989 0)
(-0.0302238 -9.92304e-05 0)
(-0.0301048 -0.000303992 0)
(-0.0298736 -0.000510742 0)
(-0.0295298 -0.000717795 0)
(-0.029074 -0.000923347 0)
(-0.0285077 -0.00112549 0)
(-0.0278334 -0.00132224 0)
(-0.0270547 -0.00151157 0)
(-0.0261764 -0.00169141 0)
(-0.0252041 -0.0018597 0)
(-0.0241447 -0.00201443 0)
(-0.0230059 -0.00215365 0)
(-0.0217966 -0.00227552 0)
(-0.0205264 -0.00237836 0)
(-0.0192059 -0.00246064 0)
(-0.0178463 -0.00252106 0)
(-0.0164595 -0.00255853 0)
(-0.0150579 -0.00257227 0)
(-0.0136539 -0.00256175 0)
(-0.0122607 -0.00252678 0)
(-0.0108908 -0.00246748 0)
(-0.00955715 -0.00238432 0)
(-0.00827196 -0.0022781 0)
(-0.00704707 -0.00214999 0)
(-0.00589356 -0.00200152 0)
(-0.00482162 -0.00183456 0)
(-0.00384032 -0.00165136 0)
(-0.00295742 -0.00145456 0)
(-0.00217919 -0.0012472 0)
(-0.00151012 -0.00103278 0)
(-0.000952766 -0.00081533 0)
(-0.000507405 -0.000599523 0)
(-0.000171784 -0.000390836 0)
(5.92408e-05 -0.000195778 0)
(0.00019411 -2.22043e-05 0)
(0.000245003 0.00012032 0)
(0.000228062 0.000220139 0)
(0.000163721 0.000263278 0)
(8.06565e-05 0.000233637 0)
(1.93852e-05 0.000113735 0)
(1.8885e-06 -8.38893e-05 0)
(-3.06897e-05 -4.43854e-05 0)
(-0.000146661 0.000128427 0)
(-0.000364762 0.000383622 0)
(-0.000698549 0.000686125 0)
(-0.00115596 0.00101036 0)
(-0.00173944 0.00133807 0)
(-0.00244717 0.00165669 0)
(-0.00327418 0.0019578 0)
(-0.00421325 0.00223606 0)
(-0.00525553 0.00248831 0)
(-0.00639122 0.00271298 0)
(-0.0076099 0.00290959 0)
(-0.00890097 0.00307839 0)
(-0.0102538 0.00322011 0)
(-0.0116579 0.00333577 0)
(-0.0131032 0.0034265 0)
(-0.0145797 0.00349346 0)
(-0.0160779 0.00353776 0)
(-0.0175886 0.00356041 0)
(-0.0191029 0.00356228 0)
(-0.0206122 0.00354408 0)
(-0.0221081 0.0035064 0)
(-0.0235823 0.00344967 0)
(-0.0250269 0.00337419 0)
(-0.0264337 0.00328018 0)
(-0.027795 0.00316776 0)
(-0.0291031 0.00303702 0)
(-0.03035 0.00288805 0)
(-0.0315283 0.00272093 0)
(-0.0326304 0.00253584 0)
(-0.0336489 0.002333 0)
(-0.0345766 0.00211278 0)
(-0.0354065 0.00187568 0)
(-0.0361319 0.00162239 0)
(-0.0367465 0.00135377 0)
(-0.0372444 0.00107091 0)
(-0.0376203 0.000775122 0)
(-0.0378694 0.000467955 0)
(-0.0379877 0.000151195 0)
(-0.037972 -0.000173131 0)
(-0.0378201 -0.000502763 0)
(-0.0375304 -0.00083522 0)
(-0.0371028 -0.00116782 0)
(-0.0365381 -0.00149769 0)
(-0.0358381 -0.00182183 0)
(-0.0350063 -0.00213711 0)
(-0.0340469 -0.00244031 0)
(-0.0329658 -0.00272819 0)
(-0.0317699 -0.00299754 0)
(-0.0304675 -0.00324518 0)
(-0.0290682 -0.00346808 0)
(-0.0275824 -0.00366337 0)
(-0.0260219 -0.00382839 0)
(-0.0243994 -0.00396078 0)
(-0.0227284 -0.00405851 0)
(-0.0210232 -0.0041199 0)
(-0.0192984 -0.00414371 0)
(-0.0175694 -0.00412914 0)
(-0.0158515 -0.00407591 0)
(-0.0141602 -0.00398422 0)
(-0.0125106 -0.00385483 0)
(-0.0109175 -0.00368902 0)
(-0.0093951 -0.00348866 0)
(-0.0079567 -0.00325617 0)
(-0.00661449 -0.00299454 0)
(-0.00537936 -0.00270738 0)
(-0.00426061 -0.00239888 0)
(-0.00326575 -0.00207387 0)
(-0.00240021 -0.00173792 0)
(-0.00166713 -0.00139735 0)
(-0.00106698 -0.00105946 0)
(-0.000597381 -0.000732647 0)
(-0.000252682 -0.000426711 0)
(-2.36652e-05 -0.000153169 0)
(0.000102841 7.43383e-05 0)
(0.000144135 0.000239622 0)
(0.000121948 0.000323661 0)
(6.59703e-05 0.000304444 0)
(1.69723e-05 0.000155603 0)
(-6.26844e-06 -5.97681e-05 0)
(-7.71956e-05 6.07353e-05 0)
(-0.000269053 0.00033827 0)
(-0.000590215 0.000714196 0)
(-0.0010491 0.00114703 0)
(-0.00165136 0.00160572 0)
(-0.00239768 0.00206754 0)
(-0.00328479 0.00251634 0)
(-0.00430653 0.00294102 0)
(-0.00545454 0.00333429 0)
(-0.00671887 0.00369166 0)
(-0.00808854 0.00401071 0)
(-0.00955191 0.00429053 0)
(-0.0110971 0.00453121 0)
(-0.012712 0.00473354 0)
(-0.0143849 0.00489871 0)
(-0.0161041 0.00502815 0)
(-0.0178583 0.00512334 0)
(-0.0196364 0.00518571 0)
(-0.0214278 0.00521659 0)
(-0.0232221 0.00521713 0)
(-0.0250091 0.00518833 0)
(-0.026779 0.00513096 0)
(-0.0285222 0.00504564 0)
(-0.030229 0.00493281 0)
(-0.0318902 0.0047928 0)
(-0.0334965 0.00462583 0)
(-0.0350387 0.00443209 0)
(-0.0365077 0.00421174 0)
(-0.0378946 0.003965 0)
(-0.0391907 0.00369217 0)
(-0.0403873 0.00339366 0)
(-0.041476 0.00307007 0)
(-0.0424488 0.00272222 0)
(-0.0432979 0.00235114 0)
(-0.0440162 0.00195817 0)
(-0.0445969 0.00154494 0)
(-0.0450338 0.00111339 0)
(-0.0453218 0.000665787 0)
(-0.0454563 0.000204754 0)
(-0.0454337 -0.000266771 0)
(-0.0452515 -0.000745518 0)
(-0.0449082 -0.00122791 0)
(-0.0444037 -0.00171011 0)
(-0.043739 -0.002188 0)
(-0.0429165 -0.00265728 0)
(-0.0419401 -0.00311349 0)
(-0.040815 -0.00355207 0)
(-0.0395479 -0.00396841 0)
(-0.0381468 -0.00435795 0)
(-0.0366214 -0.00471619 0)
(-0.0349825 -0.00503884 0)
(-0.0332423 -0.00532182 0)
(-0.0314143 -0.00556141 0)
(-0.029513 -0.00575424 0)
(-0.027554 -0.00589744 0)
(-0.0255534 -0.00598866 0)
(-0.0235283 -0.00602614 0)
(-0.0214961 -0.00600878 0)
(-0.0194744 -0.00593616 0)
(-0.0174808 -0.00580858 0)
(-0.0155329 -0.00562714 0)
(-0.0136475 -0.0053937 0)
(-0.011841 -0.0051109 0)
(-0.0101285 -0.00478223 0)
(-0.00852419 -0.00441199 0)
(-0.00704051 -0.00400533 0)
(-0.00568824 -0.00356823 0)
(-0.00447609 -0.00310764 0)
(-0.00341045 -0.00263142 0)
(-0.00249513 -0.00214856 0)
(-0.00173105 -0.00166924 0)
(-0.00111597 -0.00120508 0)
(-0.000644194 -0.000769412 0)
(-0.000306287 -0.000377582 0)
(-8.87651e-05 -4.74109e-05 0)
(2.60523e-05 0.000200359 0)
(6.0332e-05 0.000341681 0)
(4.32839e-05 0.000348741 0)
(1.30813e-05 0.000187234 0)
(-1.45276e-05 -1.07162e-05 0)
(-0.000125738 0.000228782 0)
(-0.000398285 0.000641261 0)
(-0.000829025 0.00116288 0)
(-0.00142023 0.00174728 0)
(-0.00217446 0.00235901 0)
(-0.00308993 0.00297151 0)
(-0.00416141 0.00356553 0)
(-0.00538115 0.00412752 0)
(-0.00673945 0.00464835 0)
(-0.00822517 0.00512223 0)
(-0.00982613 0.00554591 0)
(-0.0115296 0.00591798 0)
(-0.0133224 0.00623835 0)
(-0.0151914 0.00650779 0)
(-0.0171235 0.00672768 0)
(-0.0191059 0.00689967 0)
(-0.0211258 0.00702554 0)
(-0.0231711 0.00710706 0)
(-0.0252296 0.00714584 0)
(-0.0272897 0.00714334 0)
(-0.02934 0.00710081 0)
(-0.0313693 0.00701924 0)
(-0.0333665 0.00689944 0)
(-0.0353209 0.00674202 0)
(-0.0372217 0.00654741 0)
(-0.0390586 0.00631598 0)
(-0.040821 0.00604803 0)
(-0.0424988 0.00574384 0)
(-0.0440817 0.00540378 0)
(-0.0455598 0.00502834 0)
(-0.0469235 0.00461818 0)
(-0.0481633 0.00417419 0)
(-0.0492703 0.00369754 0)
(-0.0502357 0.00318974 0)
(-0.0510515 0.00265266 0)
(-0.0517104 0.00208855 0)
(-0.0522054 0.00150011 0)
(-0.0525309 0.000890448 0)
(-0.0526818 0.000263119 0)
(-0.0526542 -0.000377884 0)
(-0.0524455 -0.00102815 0)
(-0.0520542 -0.00168287 0)
(-0.0514801 -0.00233686 0)
(-0.0507246 -0.00298465 0)
(-0.0497904 -0.00362048 0)
(-0.0486818 -0.00423841 0)
(-0.0474047 -0.00483234 0)
(-0.0459667 -0.00539616 0)
(-0.0443767 -0.00592379 0)
(-0.0426455 -0.00640927 0)
(-0.0407852 -0.00684689 0)
(-0.0388094 -0.00723126 0)
(-0.036733 -0.00755741 0)
(-0.0345721 -0.0078209 0)
(-0.032344 -0.0080179 0)
(-0.0300669 -0.0081453 0)
(-0.0277595 -0.00820077 0)
(-0.0254413 -0.00818282 0)
(-0.0231319 -0.00809091 0)
(-0.0208509 -0.00792546 0)
(-0.0186178 -0.0076879 0)
(-0.0164515 -0.00738071 0)
(-0.0143702 -0.00700745 0)
(-0.012391 -0.00657276 0)
(-0.0105296 -0.00608238 0)
(-0.00880012 -0.00554317 0)
(-0.00721474 -0.00496315 0)
(-0.00578339 -0.00435153 0)
(-0.0045135 -0.00371876 0)
(-0.00340971 -0.00307665 0)
(-0.00247357 -0.00243854 0)
(-0.00170332 -0.00181943 0)
(-0.0010936 -0.00123633 0)
(-0.000635192 -0.000708524 0)
(-0.000314859 -0.000258007 0)
(-0.000115136 9.00013e-05 0)
(-1.41087e-05 0.000306636 0)
(1.58408e-05 0.000358749 0)
(8.45992e-06 0.000205536 0)
(-2.26361e-05 6.36283e-05 0)
(-0.000174693 0.000462008 0)
(-0.000530127 0.0010414 0)
(-0.00107392 0.00173481 0)
(-0.00180167 0.00249246 0)
(-0.00271228 0.00327556 0)
(-0.003801 0.00405455 0)
(-0.00506015 0.00480762 0)
(-0.00648006 0.00551915 0)
(-0.00804948 0.0061784 0)
(-0.00975588 0.00677843 0)
(-0.0115859 0.0073152 0)
(-0.0135256 0.00778687 0)
(-0.0155608 0.00819312 0)
(-0.0176772 0.00853475 0)
(-0.0198606 0.00881326 0)
(-0.022097 0.00903052 0)
(-0.0243728 0.0091886 0)
(-0.0266743 0.00928955 0)
(-0.0289886 0.0093353 0)
(-0.0313026 0.00932759 0)
(-0.0336039 0.0092679 0)
(-0.0358799 0.00915747 0)
(-0.0381187 0.00899729 0)
(-0.0403081 0.00878813 0)
(-0.0424365 0.0085306 0)
(-0.044492 0.00822517 0)
(-0.0464632 0.0078723 0)
(-0.0483387 0.00747243 0)
(-0.0501074 0.00702612 0)
(-0.0517582 0.00653409 0)
(-0.0532805 0.00599727 0)
(-0.054664 0.00541693 0)
(-0.0558987 0.00479466 0)
(-0.0569753 0.00413249 0)
(-0.0578848 0.00343291 0)
(-0.0586193 0.0026989 0)
(-0.0591713 0.00193398 0)
(-0.0595346 0.00114221 0)
(-0.0597038 0.000328189 0)
(-0.0596747 -0.000502926 0)
(-0.0594444 -0.00134546 0)
(-0.0590114 -0.00219325 0)
(-0.0583756 -0.00303967 0)
(-0.0575385 -0.00387772 0)
(-0.056503 -0.00470006 0)
(-0.055274 -0.00549911 0)
(-0.0538578 -0.00626714 0)
(-0.0522627 -0.00699638 0)
(-0.0504985 -0.0076791 0)
(-0.0485768 -0.00830773 0)
(-0.0465107 -0.00887502 0)
(-0.0443152 -0.00937413 0)
(-0.0420063 -0.00979875 0)
(-0.0396018 -0.0101432 0)
(-0.0371202 -0.0104027 0)
(-0.0345815 -0.0105732 0)
(-0.0320061 -0.0106518 0)
(-0.0294151 -0.0106365 0)
(-0.02683 -0.0105267 0)
(-0.0242724 -0.0103228 0)
(-0.0217634 -0.0100266 0)
(-0.0193239 -0.00964136 0)
(-0.0169738 -0.0091715 0)
(-0.0147321 -0.00862292 0)
(-0.012616 -0.00800292 0)
(-0.0106413 -0.00732022 0)
(-0.00882149 -0.006585 0)
(-0.00716791 -0.00580889 0)
(-0.00568909 -0.00500511 0)
(-0.00439068 -0.00418848 0)
(-0.00327511 -0.0033756 0)
(-0.00234135 -0.00258502 0)
(-0.00158469 -0.00183749 0)
(-0.000996572 -0.00115624 0)
(-0.000564392 -0.000567423 0)
(-0.000271391 -0.000100556 0)
(-9.64331e-05 0.000211004 0)
(-1.42254e-05 0.000329412 0)
(3.54582e-06 0.000208785 0)
(-3.04928e-05 0.000163069 0)
(-0.00022318 0.000761039 0)
(-0.000662014 0.00154039 0)
(-0.0013202 0.00243257 0)
(-0.00218646 0.00338562 0)
(-0.00325571 0.00435848 0)
(-0.00451985 0.00531941 0)
(-0.00596842 0.00624465 0)
(-0.00758955 0.00711693 0)
(-0.00937018 0.00792425 0)
(-0.0112963 0.00865874 0)
(-0.0133532 0.00931571 0)
(-0.0155257 0.00989295 0)
(-0.0177987 0.01039 0)
(-0.0201568 0.0108077 0)
(-0.0225848 0.0111476 0)
(-0.0250676 0.0114119 0)
(-0.0275906 0.0116029 0)
(-0.0301394 0.0117229 0)
(-0.0326996 0.0117742 0)
(-0.0352574 0.0117587 0)
(-0.0377992 0.0116782 0)
(-0.0403116 0.0115341 0)
(-0.0427814 0.0113277 0)
(-0.0451955 0.0110599 0)
(-0.0475411 0.0107313 0)
(-0.0498056 0.0103428 0)
(-0.0519763 0.00989483 0)
(-0.0540409 0.00938809 0)
(-0.0559874 0.00882335 0)
(-0.0578037 0.00820159 0)
(-0.0594784 0.00752408 0)
(-0.0610003 0.00679248 0)
(-0.0623586 0.00600889 0)
(-0.0635432 0.00517592 0)
(-0.0645446 0.00429674 0)
(-0.0653541 0.00337513 0)
(-0.0659639 0.00241552 0)
(-0.066367 0.00142299 0)
(-0.0665579 0.000403297 0)
(-0.0665319 -0.000637158 0)
(-0.066286 -0.00169134 0)
(-0.0658186 -0.0027516 0)
(-0.0651294 -0.00380979 0)
(-0.0642201 -0.00485725 0)
(-0.0630939 -0.00588495 0)
(-0.0617559 -0.00688357 0)
(-0.0602128 -0.00784361 0)
(-0.0584734 -0.00875549 0)
(-0.0565482 -0.00960974 0)
(-0.0544495 -0.0103971 0)
(-0.0521915 -0.0111085 0)
(-0.0497899 -0.0117357 0)
(-0.0472621 -0.0122709 0)
(-0.0446269 -0.0127071 0)
(-0.0419044 -0.0130383 0)
(-0.0391158 -0.0132596 0)
(-0.0362832 -0.0133673 0)
(-0.0334293 -0.013359 0)
(-0.0305772 -0.0132338 0)
(-0.0277503 -0.0129922 0)
(-0.0249715 -0.0126365 0)
(-0.0222634 -0.0121704 0)
(-0.0196476 -0.0115994 0)
(-0.0171449 -0.0109307 0)
(-0.0147742 -0.0101733 0)
(-0.0125528 -0.00933773 0)
(-0.0104958 -0.00843656 0)
(-0.00861586 -0.00748396 0)
(-0.00692287 -0.00649599 0)
(-0.00542365 -0.00549062 0)
(-0.0041217 -0.00448784 0)
(-0.00301702 -0.0035098 0)
(-0.00210584 -0.00258105 0)
(-0.00138054 -0.00172876 0)
(-0.000829539 -0.000983127 0)
(-0.000437124 -0.000377785 0)
(-0.000183314 4.97861e-05 0)
(-4.55652e-05 0.000257693 0)
(-1.41881e-06 0.00019615 0)
(-3.8067e-05 0.00028712 0)
(-0.000270733 0.0011255 0)
(-0.000792403 0.0021384 0)
(-0.00156485 0.00325688 0)
(-0.00256991 0.00442792 0)
(-0.00379836 0.0056091 0)
(-0.00523851 0.00676727 0)
(-0.00687689 0.00787735 0)
(-0.00869918 0.00892096 0)
(-0.0106903 0.00988518 0)
(-0.0128347 0.0107615 0)
(-0.0151161 0.0115447 0)
(-0.0175183 0.0122325 0)
(-0.0200249 0.0128242 0)
(-0.0226196 0.0133209 0)
(-0.0252862 0.0137241 0)
(-0.0280088 0.0140365 0)
(-0.0307718 0.0142604 0)
(-0.0335598 0.0143985 0)
(-0.0363577 0.0144534 0)
(-0.0391508 0.0144273 0)
(-0.0419244 0.0143222 0)
(-0.0446643 0.0141397 0)
(-0.0473563 0.0138812 0)
(-0.0499865 0.0135479 0)
(-0.0525412 0.0131407 0)
(-0.0550067 0.0126604 0)
(-0.0573696 0.0121077 0)
(-0.0596167 0.0114836 0)
(-0.0617349 0.010789 0)
(-0.0637117 0.0100252 0)
(-0.0655345 0.00919391 0)
(-0.0671915 0.00829719 0)
(-0.0686713 0.00733767 0)
(-0.0699629 0.00631861 0)
(-0.0710562 0.00524391 0)
(-0.071942 0.00411822 0)
(-0.0726118 0.00294695 0)
(-0.0730584 0.00173627 0)
(-0.0732757 0.000493144 0)
(-0.0732588 -0.000774678 0)
(-0.0730043 -0.00205871 0)
(-0.0725105 -0.00334978 0)
(-0.071777 -0.00463806 0)
(-0.0708054 -0.00591317 0)
(-0.0695991 -0.00716429 0)
(-0.0681632 -0.00838023 0)
(-0.0665049 -0.00954962 0)
(-0.0646333 -0.010661 0)
(-0.0625593 -0.011703 0)
(-0.060296 -0.0126644 0)
(-0.0578581 -0.0135347 0)
(-0.0552623 -0.0143036 0)
(-0.0525269 -0.0149618 0)
(-0.0496718 -0.015501 0)
(-0.0467184 -0.0159139 0)
(-0.0436891 -0.0161945 0)
(-0.0406074 -0.0163384 0)
(-0.0374976 -0.0163425 0)
(-0.0343844 -0.0162057 0)
(-0.0312927 -0.0159286 0)
(-0.0282472 -0.0155136 0)
(-0.0252724 -0.0149653 0)
(-0.0223915 -0.01429 0)
(-0.019627 -0.0134964 0)
(-0.0169996 -0.0125951 0)
(-0.0145284 -0.0115986 0)
(-0.01223 -0.0105219 0)
(-0.0101185 -0.00938182 0)
(-0.0082055 -0.00819731 0)
(-0.00649903 -0.00698962 0)
(-0.00500395 -0.00578218 0)
(-0.0037215 -0.00460083 0)
(-0.00264912 -0.0034739 0)
(-0.0017804 -0.0024325 0)
(-0.00110505 -0.00151077 0)
(-0.00060866 -0.000746268 0)
(-0.000272641 -0.000180251 0)
(-7.73773e-05 0.00014188 0)
(-6.30853e-06 0.000167328 0)
(-4.53584e-05 0.000435159 0)
(-0.000317112 0.00155441 0)
(-0.000920378 0.00283456 0)
(-0.00180593 0.00420719 0)
(-0.00294885 0.00561908 0)
(-0.00433575 0.00702727 0)
(-0.00595122 0.00839794 0)
(-0.00777861 0.00970532 0)
(-0.00980099 0.0109304 0)
(-0.0120012 0.0120598 0)
(-0.0143617 0.0130845 0)
(-0.016865 0.0139994 0)
(-0.0194935 0.0148018 0)
(-0.0222298 0.0154913 0)
(-0.0250564 0.016069 0)
(-0.0279563 0.0165369 0)
(-0.0309128 0.0168976 0)
(-0.0339094 0.0171539 0)
(-0.0369298 0.0173089 0)
(-0.0399583 0.0173652 0)
(-0.0429793 0.0173254 0)
(-0.0459773 0.0171917 0)
(-0.0489373 0.0169661 0)
(-0.0518444 0.01665 0)
(-0.0546837 0.0162448 0)
(-0.0574408 0.0157515 0)
(-0.0601012 0.0151712 0)
(-0.0626507 0.0145049 0)
(-0.0650753 0.0137535 0)
(-0.0673612 0.0129184 0)
(-0.0694951 0.0120012 0)
(-0.0714637 0.011004 0)
(-0.0732544 0.00992928 0)
(-0.0748551 0.00878029 0)
(-0.0762544 0.00756094 0)
(-0.0774414 0.00627593 0)
(-0.0784063 0.00493083 0)
(-0.0791402 0.00353206 0)
(-0.0796354 0.00208694 0)
(-0.0798851 0.000603727 0)
(-0.0798844 -0.000908448 0)
(-0.0796294 -0.00243958 0)
(-0.0791181 -0.00397887 0)
(-0.0783499 -0.00551477 0)
(-0.0773264 -0.00703509 0)
(-0.0760508 -0.00852711 0)
(-0.0745284 -0.00997771 0)
(-0.0727664 -0.0113735 0)
(-0.0707741 -0.0127011 0)
(-0.0685629 -0.013947 0)
(-0.0661462 -0.0150983 0)
(-0.0635394 -0.0161422 0)
(-0.0607598 -0.0170669 0)
(-0.0578266 -0.0178614 0)
(-0.0547606 -0.0185157 0)
(-0.0515842 -0.0190211 0)
(-0.0483211 -0.0193707 0)
(-0.0449962 -0.0195588 0)
(-0.0416351 -0.019582 0)
(-0.0382641 -0.0194387 0)
(-0.0349098 -0.0191294 0)
(-0.0315985 -0.0186569 0)
(-0.0283564 -0.0180262 0)
(-0.0252088 -0.0172448 0)
(-0.0221797 -0.0163226 0)
(-0.0192919 -0.0152719 0)
(-0.016566 -0.0141074 0)
(-0.0140206 -0.0128464 0)
(-0.0116715 -0.0115084 0)
(-0.00953178 -0.0101155 0)
(-0.00761123 -0.00869214 0)
(-0.00591619 -0.00726533 0)
(-0.00444936 -0.00586458 0)
(-0.00320962 -0.00452208 0)
(-0.002192 -0.00327281 0)
(-0.00138769 -0.00215479 0)
(-0.000783784 -0.00120933 0)
(-0.000363189 -0.000481213 0)
(-0.00010923 -1.89272e-05 0)
(-1.10682e-05 0.000122304 0)
(-5.23781e-05 0.000606504 0)
(-0.000362202 0.00204643 0)
(-0.00104539 0.00362734 0)
(-0.00204219 0.00528199 0)
(-0.00332116 0.0069577 0)
(-0.00486474 0.00861168 0)
(-0.00665377 0.0102101 0)
(-0.00866836 0.0117271 0)
(-0.0108889 0.0131436 0)
(-0.0132959 0.0144459 0)
(-0.01587 0.0156253 0)
(-0.0185922 0.0166766 0)
(-0.0214435 0.0175972 0)
(-0.0244053 0.0183871 0)
(-0.0274593 0.0190474 0)
(-0.0305876 0.0195806 0)
(-0.0337725 0.0199895 0)
(-0.0369969 0.0202774 0)
(-0.0402439 0.0204475 0)
(-0.0434968 0.0205029 0)
(-0.0467393 0.0204463 0)
(-0.0499555 0.0202802 0)
(-0.0531294 0.0200067 0)
(-0.0562455 0.0196276 0)
(-0.0592884 0.0191444 0)
(-0.0622427 0.0185582 0)
(-0.0650933 0.0178703 0)
(-0.0678254 0.0170819 0)
(-0.0704242 0.0161942 0)
(-0.0728753 0.0152088 0)
(-0.0751645 0.0141277 0)
(-0.0772781 0.0129533 0)
(-0.0792027 0.0116887 0)
(-0.0809256 0.0103377 0)
(-0.0824348 0.00890495 0)
(-0.0837188 0.00739593 0)
(-0.0847672 0.00581715 0)
(-0.0855706 0.00417609 0)
(-0.0861207 0.00248128 0)
(-0.0864104 0.00074228 0)
(-0.0864341 -0.00103033 0)
(-0.0861877 -0.00282498 0)
(-0.0856686 -0.00462919 0)
(-0.0848762 -0.00642962 0)
(-0.0838117 -0.0082122 0)
(-0.0824781 -0.00996225 0)
(-0.0808805 -0.0116646 0)
(-0.0790263 -0.0133039 0)
(-0.0769247 -0.0148644 0)
(-0.0745874 -0.0163308 0)
(-0.0720281 -0.0176879 0)
(-0.0692624 -0.0189211 0)
(-0.0663085 -0.0200164 0)
(-0.0631859 -0.020961 0)
(-0.0599165 -0.0217434 0)
(-0.0565236 -0.0223534 0)
(-0.053032 -0.0227826 0)
(-0.0494678 -0.0230245 0)
(-0.0458582 -0.0230747 0)
(-0.0422308 -0.0229311 0)
(-0.0386138 -0.0225943 0)
(-0.0350355 -0.022067 0)
(-0.0315238 -0.0213551 0)
(-0.0281058 -0.0204668 0)
(-0.0248076 -0.0194134 0)
(-0.0216538 -0.0182088 0)
(-0.018667 -0.01687 0)
(-0.0158677 -0.0154164 0)
(-0.0132738 -0.0138706 0)
(-0.0109 -0.0122576 0)
(-0.008758 -0.0106052 0)
(-0.00685586 -0.00894402 0)
(-0.00519798 -0.00730734 0)
(-0.00378487 -0.00573119 0)
(-0.00261321 -0.00425443 0)
(-0.00167581 -0.0029189 0)
(-0.000961389 -0.00176957 0)
(-0.000454376 -0.000854549 0)
(-0.000140942 -0.000225188 0)
(-1.56852e-05 6.11973e-05 0)
(-5.91399e-05 0.000800448 0)
(-0.000405948 0.00260001 0)
(-0.00116712 0.00451476 0)
(-0.00227282 0.00647913 0)
(-0.00368535 0.00844157 0)
(-0.00538305 0.0103601 0)
(-0.00734306 0.0122016 0)
(-0.0095422 0.0139404 0)
(-0.0119581 0.0155579 0)
(-0.0145689 0.0170409 0)
(-0.0173535 0.0183809 0)
(-0.020291 0.0195729 0)
(-0.0233613 0.0206149 0)
(-0.0265446 0.0215072 0)
(-0.0298215 0.0222514 0)
(-0.0331734 0.0228502 0)
(-0.0365817 0.023307 0)
(-0.0400287 0.0236253 0)
(-0.0434966 0.0238087 0)
(-0.0469684 0.0238606 0)
(-0.050427 0.0237841 0)
(-0.0538559 0.0235819 0)
(-0.0572387 0.0232562 0)
(-0.060559 0.022809 0)
(-0.0638009 0.0222419 0)
(-0.0669484 0.0215565 0)
(-0.0699859 0.020754 0)
(-0.0728978 0.0198358 0)
(-0.0756688 0.0188034 0)
(-0.0782839 0.0176588 0)
(-0.0807282 0.0164041 0)
(-0.0829874 0.0150423 0)
(-0.0850476 0.0135769 0)
(-0.0868954 0.0120125 0)
(-0.0885181 0.0103542 0)
(-0.0899038 0.00860847 0)
(-0.0910415 0.00678276 0)
(-0.0919212 0.00488563 0)
(-0.0925339 0.00292681 0)
(-0.092872 0.000917213 0)
(-0.0929295 -0.00113111 0)
(-0.0927017 -0.00320499 0)
(-0.0921857 -0.00529022 0)
(-0.0913802 -0.00737163 0)
(-0.0902861 -0.0094332 0)
(-0.0889062 -0.0114582 0)
(-0.0872453 -0.0134294 0)
(-0.0853105 -0.0153292 0)
(-0.0831111 -0.0171399 0)
(-0.0806587 -0.0188437 0)
(-0.077967 -0.0204233 0)
(-0.0750521 -0.0218618 0)
(-0.0719324 -0.0231435 0)
(-0.0686283 -0.0242533 0)
(-0.065162 -0.025178 0)
(-0.0615578 -0.0259057 0)
(-0.0578417 -0.0264265 0)
(-0.0540408 -0.0267327 0)
(-0.0501837 -0.0268192 0)
(-0.0462997 -0.0266831 0)
(-0.0424186 -0.0263247 0)
(-0.0385705 -0.0257469 0)
(-0.034785 -0.0249559 0)
(-0.0310914 -0.023961 0)
(-0.0275178 -0.0227747 0)
(-0.024091 -0.0214125 0)
(-0.0208357 -0.0198935 0)
(-0.0177746 -0.0182396 0)
(-0.0149275 -0.0164761 0)
(-0.0123113 -0.0146313 0)
(-0.00993979 -0.0127362 0)
(-0.00782292 -0.0108253 0)
(-0.00596699 -0.0089355 0)
(-0.00437437 -0.00710678 0)
(-0.0030435 -0.0053819 0)
(-0.00196898 -0.00380653 0)
(-0.0011412 -0.00242924 0)
(-0.000546087 -0.00130143 0)
(-0.000172509 -0.000477196 0)
(-2.01739e-05 -1.58428e-05 0)
(-6.56567e-05 0.00101628 0)
(-0.000448325 0.00321346 0)
(-0.00128535 0.00549451 0)
(-0.00249728 0.00779594 0)
(-0.00404036 0.0100679 0)
(-0.00588901 0.0122697 0)
(-0.0080167 0.0143692 0)
(-0.010397 0.0163421 0)
(-0.0130047 0.0181703 0)
(-0.0158158 0.0198414 0)
(-0.0188071 0.0213475 0)
(-0.021956 0.0226844 0)
(-0.0252412 0.0238508 0)
(-0.0286415 0.0248473 0)
(-0.0321368 0.0256762 0)
(-0.0357075 0.0263408 0)
(-0.0393344 0.0268448 0)
(-0.0429989 0.0271923 0)
(-0.0466828 0.0273873 0)
(-0.0503685 0.0274333 0)
(-0.0540384 0.0273339 0)
(-0.0576754 0.0270919 0)
(-0.0612625 0.0267098 0)
(-0.0647831 0.0261899 0)
(-0.0682204 0.0255338 0)
(-0.0715582 0.0247433 0)
(-0.0747802 0.0238198 0)
(-0.0778703 0.0227648 0)
(-0.0808127 0.0215803 0)
(-0.0835917 0.0202682 0)
(-0.086192 0.0188313 0)
(-0.0885988 0.0172728 0)
(-0.0907974 0.0155968 0)
(-0.092774 0.0138083 0)
(-0.0945153 0.0119135 0)
(-0.0960087 0.00991943 0)
(-0.0972426 0.00783454 0)
(-0.0982063 0.0056685 0)
(-0.0988905 0.00343225 0)
(-0.0992868 0.00113805 0)
(-0.0993885 -0.00120054 0)
(-0.0991904 -0.00356875 0)
(-0.098689 -0.00595061 0)
(-0.0978824 -0.00832907 0)
(-0.0967711 -0.0106861 0)
(-0.0953572 -0.013003 0)
(-0.0936452 -0.0152603 0)
(-0.0916419 -0.017438 0)
(-0.0893562 -0.0195163 0)
(-0.0867997 -0.0214749 0)
(-0.083986 -0.0232944 0)
(-0.0809313 -0.0249556 0)
(-0.0776543 -0.0264403 0)
(-0.0741756 -0.0277315 0)