/*--------------------------------*- C++ -*----------------------------------*\
  =========                 |
  \\      /  F ield         | OpenFOAM: The Open Source CFD Toolbox
   \\    /   O peration     | Website:  https://openfoam.org
    \\  /    A nd           | Version:  7
     \\/     M anipulation  |
\*---------------------------------------------------------------------------*/
FoamFile
{
    version     2.0;
    format      ascii;
    class       surfaceScalarField;
    location    "0.3";
    object      phi;
}
// * * * * * * * * * * * * * * * * * * * * * * * * * * * * * * * * * * * * * //

dimensions      [0 3 -1 0 0 0 0];

internalField   nonuniform List<scalar> 
12640
(
1.86154e-10
-1.86185e-10
5.16986e-10
-3.30826e-10
7.87771e-10
-2.70782e-10
8.85824e-10
-9.80225e-11
7.59078e-10
1.26758e-10
3.87876e-10
3.71194e-10
-2.28224e-10
6.1611e-10
-1.07969e-09
8.51475e-10
-2.1511e-09
1.07141e-09
-3.42386e-09
1.27277e-09
-4.8779e-09
1.45405e-09
-6.49261e-09
1.61469e-09
-8.24738e-09
1.75477e-09
-1.01221e-08
1.8747e-09
-1.20972e-08
1.97514e-09
-1.41541e-08
2.05686e-09
-1.62748e-08
2.12073e-09
-1.84424e-08
2.16759e-09
-2.06407e-08
2.19829e-09
-2.28544e-08
2.21366e-09
-2.50688e-08
2.21444e-09
-2.72702e-08
2.20137e-09
-2.94453e-08
2.17508e-09
-3.15815e-08
2.13618e-09
-3.36666e-08
2.08519e-09
-3.56892e-08
2.0226e-09
-3.76381e-08
1.94886e-09
-3.95025e-08
1.8644e-09
-4.12721e-08
1.7696e-09
-4.29369e-08
1.66483e-09
-4.44874e-08
1.55049e-09
-4.59144e-08
1.42696e-09
-4.72091e-08
1.29466e-09
-4.83631e-08
1.15405e-09
-4.93687e-08
1.00561e-09
-5.02186e-08
8.49888e-10
-5.09061e-08
6.87483e-10
-5.14251e-08
5.19074e-10
-5.17705e-08
3.45418e-10
-5.19379e-08
1.6733e-10
-5.19236e-08
-1.42669e-11
-5.17252e-08
-1.98361e-10
-5.13413e-08
-3.83881e-10
-5.07717e-08
-5.69654e-10
-5.00173e-08
-7.54421e-10
-4.90804e-08
-9.36886e-10
-4.79647e-08
-1.11567e-09
-4.66754e-08
-1.28933e-09
-4.5219e-08
-1.45639e-09
-4.36036e-08
-1.61536e-09
-4.18389e-08
-1.76472e-09
-3.99359e-08
-1.90295e-09
-3.79073e-08
-2.02859e-09
-3.57671e-08
-2.14019e-09
-3.35308e-08
-2.23637e-09
-3.12149e-08
-2.31581e-09
-2.88376e-08
-2.37733e-09
-2.64178e-08
-2.41985e-09
-2.39754e-08
-2.4424e-09
-2.15312e-08
-2.44421e-09
-1.91065e-08
-2.42468e-09
-1.67232e-08
-2.38334e-09
-1.44032e-08
-2.31996e-09
-1.21687e-08
-2.23451e-09
-1.00415e-08
-2.1272e-09
-8.04306e-09
-1.99845e-09
-6.19411e-09
-1.84894e-09
-4.51442e-09
-1.67967e-09
-3.02247e-09
-1.49195e-09
-1.73499e-09
-1.28749e-09
-6.66509e-10
-1.06849e-09
1.71389e-10
-8.37889e-10
7.71048e-10
-5.99657e-10
1.13035e-09
-3.5932e-10
1.25537e-09
-1.25032e-10
1.16458e-09
9.07861e-11
8.96004e-10
2.68595e-10
5.19491e-10
3.76517e-10
1.58939e-10
3.60543e-10
1.5895e-10
3.32559e-10
-5.18726e-10
7.65672e-10
-7.63945e-10
9.73453e-10
-4.78565e-10
7.54864e-10
1.20558e-10
-7.3505e-12
8.88977e-10
-1.36859e-09
1.73241e-09
-3.34433e-09
2.59186e-09
-5.92204e-09
3.42916e-09
-9.07182e-09
4.22118e-09
-1.2753e-08
4.95397e-09
-1.69185e-08
5.61956e-09
-2.15177e-08
6.21391e-09
-2.64985e-08
6.73554e-09
-3.18085e-08
7.18468e-09
-3.7396e-08
7.56272e-09
-4.32109e-08
7.8717e-09
-4.92043e-08
8.1141e-09
-5.53293e-08
8.29264e-09
-6.15411e-08
8.41005e-09
-6.77965e-08
8.4691e-09
-7.40545e-08
8.4724e-09
-8.02756e-08
8.42248e-09
-8.64221e-08
8.32167e-09
-9.24581e-08
8.17215e-09
-9.83489e-08
7.97593e-09
-1.04061e-07
7.73489e-09
-1.09563e-07
7.45075e-09
-1.14824e-07
7.12518e-09
-1.19814e-07
6.75976e-09
-1.24505e-07
6.35603e-09
-1.2887e-07
5.91556e-09
-1.32883e-07
5.43996e-09
-1.3652e-07
4.93093e-09
-1.39756e-07
4.39032e-09
-1.4257e-07
3.82011e-09
-1.44943e-07
3.22249e-09
-1.46855e-07
2.5999e-09
-1.48291e-07
1.95499e-09
-1.49236e-07
1.29072e-09
-1.49679e-07
6.10316e-10
-1.49611e-07
-8.2691e-11
-1.49025e-07
-7.84443e-10
-1.47918e-07
-1.49078e-09
-1.4629e-07
-2.19728e-09
-1.44146e-07
-2.89923e-09
-1.41491e-07
-3.59165e-09
-1.38337e-07
-4.26936e-09
-1.34699e-07
-4.92701e-09
-1.30597e-07
-5.55906e-09
-1.26052e-07
-6.15993e-09
-1.21093e-07
-6.72402e-09
-1.1575e-07
-7.24574e-09
-1.10059e-07
-7.71958e-09
-1.04059e-07
-8.14024e-09
-9.77927e-08
-8.50266e-09
-9.13065e-08
-8.80205e-09
-8.46498e-08
-9.03402e-09
-7.7875e-08
-9.19465e-09
-7.10369e-08
-9.28055e-09
-6.41922e-08
-9.2889e-09
-5.73993e-08
-9.21753e-09
-5.07177e-08
-9.06498e-09
-4.42071e-08
-8.83058e-09
-3.79272e-08
-8.51445e-09
-3.19368e-08
-8.11758e-09
-2.62933e-08
-7.64196e-09
-2.10516e-08
-7.09064e-09
-1.62634e-08
-6.46782e-09
-1.19763e-08
-5.77908e-09
-8.23215e-09
-5.03165e-09
-5.06576e-09
-4.23488e-09
-2.50275e-09
-3.4009e-09
-5.56709e-10
-2.54572e-09
7.74848e-10
-1.69089e-09
1.5161e-09
-8.66266e-10
1.72103e-09
-1.14118e-10
1.48476e-09
5.04871e-10
9.57823e-10
9.03438e-10
3.59818e-10
9.58571e-10
5.18782e-10
2.75992e-10
-7.94716e-10
4.88838e-10
-9.76799e-10
2.73661e-10
-2.63379e-10
-6.01938e-10
9.96169e-10
-2.2821e-09
2.56913e-09
-4.84276e-09
4.29305e-09
-8.30795e-09
6.05703e-09
-1.26657e-08
7.78691e-09
-1.78786e-08
9.43409e-09
-2.38921e-08
1.09674e-08
-3.06403e-08
1.23678e-08
-3.80506e-08
1.36243e-08
-4.60467e-08
1.47316e-08
-5.45507e-08
1.56886e-08
-6.34846e-08
1.64966e-08
-7.27716e-08
1.71587e-08
-8.23366e-08
1.76791e-08
-9.21068e-08
1.80629e-08
-1.02012e-07
1.83151e-08
-1.11984e-07
1.84413e-08
-1.21958e-07
1.84466e-08
-1.31872e-07
1.83362e-08
-1.41665e-07
1.81148e-08
-1.5128e-07
1.7787e-08
-1.60661e-07
1.73572e-08
-1.69756e-07
1.68294e-08
-1.78512e-07
1.62073e-08
-1.86882e-07
1.54946e-08
-1.94817e-07
1.46948e-08
-2.02272e-07
1.38115e-08
-2.09205e-07
1.28482e-08
-2.15573e-07
1.18085e-08
-2.21339e-07
1.06964e-08
-2.26464e-07
9.51599e-09
-2.30916e-07
8.27179e-09
-2.34662e-07
6.96871e-09
-2.37675e-07
5.61216e-09
-2.39928e-07
4.20809e-09
-2.414e-07
2.76299e-09
-2.42074e-07
1.28399e-09
-2.41935e-07
-2.21156e-10
-2.40975e-07
-1.74408e-09
-2.3919e-07
-3.27577e-09
-2.36581e-07
-4.8066e-09
-2.33154e-07
-6.32643e-09
-2.28921e-07
-7.82457e-09
-2.239e-07
-9.28988e-09
-2.18117e-07
-1.07109e-08
-2.116e-07
-1.20758e-08
-2.04387e-07
-1.33727e-08
-1.96522e-07
-1.45896e-08
-1.88053e-07
-1.57147e-08
-1.79036e-07
-1.67363e-08
-1.69533e-07
-1.76433e-08
-1.59611e-07
-1.84248e-08
-1.49342e-07
-1.90709e-08
-1.38804e-07
-1.95723e-08
-1.28078e-07
-1.99208e-08
-1.17249e-07
-2.01093e-08
-1.06406e-07
-2.0132e-08
-9.56386e-08
-1.99847e-08
-8.50393e-08
-1.96643e-08
-7.47002e-08
-1.91697e-08
-6.47129e-08
-1.85017e-08
-5.51677e-08
-1.76628e-08
-4.6152e-08
-1.66577e-08
-3.77491e-08
-1.54936e-08
-3.00367e-08
-1.41802e-08
-2.30855e-08
-1.27303e-08
-1.69567e-08
-1.11605e-08
-1.16999e-08
-9.49169e-09
-7.34993e-09
-7.7509e-09
-3.92279e-09
-5.97286e-09
-1.41064e-09
-4.20304e-09
2.24994e-10
-2.50189e-09
1.0618e-09
-9.50926e-10
1.22746e-09
3.39198e-10
9.1161e-10
1.21931e-09
3.78026e-10
1.49219e-09
8.9681e-10
1.0693e-10
-9.01618e-10
-1.0277e-10
-7.67087e-10
-9.76347e-10
6.10204e-10
-2.74353e-09
2.76334e-09
-5.55016e-09
5.37578e-09
-9.47498e-09
8.21787e-09
-1.45437e-08
1.11258e-08
-2.07421e-08
1.39853e-08
-2.80263e-08
1.67183e-08
-3.63312e-08
1.92723e-08
-4.55771e-08
2.16136e-08
-5.56744e-08
2.37215e-08
-6.65277e-08
2.5585e-08
-7.80387e-08
2.71996e-08
-9.01078e-08
2.85657e-08
-1.02636e-07
2.96869e-08
-1.15526e-07
3.05691e-08
-1.28682e-07
3.12192e-08
-1.42013e-07
3.16453e-08
-1.55427e-07
3.18557e-08
-1.68839e-07
3.18588e-08
-1.82166e-07
3.16627e-08
-1.95326e-07
3.12754e-08
-2.08244e-07
3.07044e-08
-2.20843e-07
2.9957e-08
-2.33054e-07
2.904e-08
-2.44807e-07
2.796e-08
-2.56036e-07
2.67234e-08
-2.66677e-07
2.53362e-08
-2.7667e-07
2.38048e-08
-2.85957e-07
2.21354e-08
-2.94484e-07
2.03346e-08
-3.02196e-07
1.84093e-08
-3.09047e-07
1.63668e-08
-3.14991e-07
1.42153e-08
-3.19985e-07
1.19634e-08
-3.23994e-07
9.6205e-09
-3.26983e-07
7.19713e-09
-3.28924e-07
4.70463e-09
-3.29796e-07
2.15534e-09
-3.2958e-07
-4.37301e-10
-3.28265e-07
-3.05882e-09
-3.25847e-07
-5.69375e-09
-3.22328e-07
-8.32562e-09
-3.17717e-07
-1.0937e-08
-3.12032e-07
-1.35096e-08
-3.05297e-07
-1.60246e-08
-2.97546e-07
-1.84624e-08
-2.88819e-07
-2.0803e-08
-2.79165e-07
-2.30263e-08
-2.68643e-07
-2.51119e-08
-2.57317e-07
-2.70399e-08
-2.45263e-07
-2.87907e-08
-2.32561e-07
-3.03454e-08
-2.193e-07
-3.16858e-08
-2.05576e-07
-3.27953e-08
-1.9149e-07
-3.36583e-08
-1.77149e-07
-3.42612e-08
-1.62666e-07
-3.45923e-08
-1.48156e-07
-3.4642e-08
-1.33738e-07
-3.44032e-08
-1.19531e-07
-3.38714e-08
-1.05655e-07
-3.30453e-08
-9.22303e-08
-3.19263e-08
-7.93735e-08
-3.05196e-08
-6.71974e-08
-2.88338e-08
-5.58091e-08
-2.68819e-08
-4.5308e-08
-2.46813e-08
-3.57835e-08
-2.22548e-08
-2.73126e-08
-1.96314e-08
-1.99565e-08
-1.68477e-08
-1.37575e-08
-1.39499e-08
-8.73393e-09
-1.09964e-08
-4.87526e-09
-8.06171e-09
-2.13531e-09
-5.24185e-09
-4.24537e-10
-2.6617e-09
3.9913e-10
-4.84458e-10
5.4026e-10
1.07821e-09
2.78064e-10
1.75439e-09
1.17486e-09
-1.15827e-10
-7.85792e-10
-8.71371e-10
-1.15485e-11
-2.55859e-09
2.2974e-09
-5.37924e-09
5.58401e-09
-9.4626e-09
9.45912e-09
-1.48773e-08
1.36326e-08
-2.16423e-08
1.78907e-08
-2.97364e-08
2.20795e-08
-3.9108e-08
2.60899e-08
-4.96824e-08
2.98466e-08
-6.13677e-08
3.3299e-08
-7.40608e-08
3.64147e-08
-8.76508e-08
3.9175e-08
-1.02022e-07
4.15711e-08
-1.17058e-07
4.36012e-08
-1.3264e-07
4.52688e-08
-1.48651e-07
4.65807e-08
-1.64978e-07
4.7546e-08
-1.81508e-07
4.81754e-08
-1.98133e-07
4.84802e-08
-2.14746e-07
4.84722e-08
-2.31246e-07
4.8163e-08
-2.47535e-07
4.7564e-08
-2.63517e-07
4.66864e-08
-2.79101e-07
4.55407e-08
-2.94198e-07
4.41373e-08
-3.08724e-07
4.2486e-08
-3.22597e-07
4.05964e-08
-3.35739e-07
3.84782e-08
-3.48075e-07
3.61409e-08
-3.59534e-07
3.35943e-08
-3.70048e-07
3.08486e-08
-3.79553e-07
2.79146e-08
-3.8799e-07
2.48038e-08
-3.95303e-07
2.15286e-08
-4.01443e-07
1.81024e-08
-4.06362e-07
1.454e-08
-4.10022e-07
1.08572e-08
-4.12389e-07
7.07152e-09
-4.13435e-07
3.20188e-09
-4.13141e-07
-7.31356e-10
-4.11494e-07
-4.70624e-09
-4.08488e-07
-8.69932e-09
-4.04128e-07
-1.26857e-08
-3.98426e-07
-1.66392e-08
-3.91403e-07
-2.05324e-08
-3.83091e-07
-2.43368e-08
-3.7353e-07
-2.80232e-08
-3.62772e-07
-3.15617e-08
-3.50876e-07
-3.49222e-08
-3.37913e-07
-3.80744e-08
-3.23964e-07
-4.09886e-08
-3.0912e-07
-4.36356e-08
-2.93478e-07
-4.59872e-08
-2.77147e-07
-4.80167e-08
-2.60243e-07
-4.96992e-08
-2.42889e-07
-5.1012e-08
-2.25216e-07
-5.19348e-08
-2.07357e-07
-5.24506e-08
-1.89454e-07
-5.25453e-08
-1.71648e-07
-5.22088e-08
-1.54085e-07
-5.1435e-08
-1.36908e-07
-5.02222e-08
-1.20261e-07
-4.85733e-08
-1.04284e-07
-4.64967e-08
-8.9111e-08
-4.40064e-08
-7.48705e-08
-4.11224e-08
-6.16799e-08
-3.78719e-08
-4.96448e-08
-3.42899e-08
-3.88555e-08
-3.04207e-08
-2.93839e-08
-2.63193e-08
-2.12794e-08
-2.20545e-08
-1.45643e-08
-1.77115e-08
-9.22909e-09
-1.33969e-08
-5.22644e-09
-9.24449e-09
-2.46463e-09
-5.42351e-09
-8.0037e-10
-2.14871e-09
-3.10755e-11
3.08926e-10
1.14828e-10
1.60847e-09
1.28969e-09
-3.61897e-10
-4.23896e-10
-1.73052e-09
1.35707e-09
-4.32663e-09
4.89351e-09
-8.30647e-09
9.56383e-09
-1.37696e-08
1.49223e-08
-2.07646e-08
2.06276e-08
-2.92955e-08
2.64217e-08
-3.933e-08
3.21139e-08
-5.08056e-08
3.75656e-08
-6.36369e-08
4.2678e-08
-7.7721e-08
4.73831e-08
-9.29422e-08
5.16359e-08
-1.09176e-07
5.54089e-08
-1.26293e-07
5.86879e-08
-1.4416e-07
6.14681e-08
-1.62643e-07
6.37522e-08
-1.8161e-07
6.55474e-08
-2.00929e-07
6.68648e-08
-2.20471e-07
6.77174e-08
-2.4011e-07
6.81196e-08
-2.59725e-07
6.80868e-08
-2.79196e-07
6.76341e-08
-2.98409e-07
6.67768e-08
-3.17252e-07
6.55299e-08
-3.35619e-07
6.39078e-08
-3.53406e-07
6.19246e-08
-3.70515e-07
5.9594e-08
-3.86848e-07
5.69297e-08
-4.02315e-07
5.39451e-08
-4.16828e-07
5.06538e-08
-4.30303e-07
4.70697e-08
-4.42662e-07
4.32075e-08
-4.5383e-07
3.90825e-08
-4.63737e-07
3.47111e-08
-4.7232e-07
3.0111e-08
-4.79518e-07
2.53013e-08
-4.85281e-07
2.03029e-08
-4.89562e-07
1.51383e-08
-4.92323e-07
9.83216e-09
-4.93532e-07
4.41094e-09
-4.93167e-07
-1.09669e-09
-4.91213e-07
-6.66005e-09
-4.87666e-07
-1.22464e-08
-4.8253e-07
-1.78212e-08
-4.75822e-07
-2.33479e-08
-4.67566e-07
-2.87885e-08
-4.57799e-07
-3.41035e-08
-4.4657e-07
-3.92525e-08
-4.33937e-07
-4.41943e-08
-4.19972e-07
-4.88872e-08
-4.04757e-07
-5.32897e-08
-3.88385e-07
-5.73606e-08
-3.70961e-07
-6.10598e-08
-3.52599e-07
-6.43488e-08
-3.33425e-07
-6.71908e-08
-3.13573e-07
-6.95517e-08
-2.93184e-07
-7.14004e-08
-2.7241e-07
-7.27094e-08
-2.51405e-07
-7.34554e-08
-2.30331e-07
-7.36195e-08
-2.09351e-07
-7.31883e-08
-1.88632e-07
-7.21538e-08
-1.6834e-07
-7.05142e-08
-1.48639e-07
-6.82745e-08
-1.29689e-07
-6.54468e-08
-1.11644e-07
-6.20514e-08
-9.46498e-08
-5.81168e-08
-7.88402e-08
-5.36815e-08
-6.43356e-08
-4.87945e-08
-5.12388e-08
-4.35174e-08
-3.9632e-08
-3.79261e-08
-2.95727e-08
-3.21138e-08
-2.10898e-08
-2.61944e-08
-1.41787e-08
-2.0308e-08
-8.79665e-09
-1.46266e-08
-4.85762e-09
-9.36253e-09
-2.22713e-09
-4.77919e-09
-7.171e-10
-1.2011e-09
-8.02584e-11
9.71627e-10
1.20944e-09
-6.14567e-10
1.90667e-10
-2.62869e-09
3.37118e-09
-6.18522e-09
8.45002e-09
-1.13871e-08
1.47657e-08
-1.82954e-08
2.18305e-08
-2.69304e-08
2.92626e-08
-3.72758e-08
3.6767e-08
-4.92825e-08
4.41206e-08
-6.28746e-08
5.11577e-08
-7.79545e-08
5.77578e-08
-9.4407e-08
6.38357e-08
-1.12105e-07
6.93334e-08
-1.3091e-07
7.42146e-08
-1.50681e-07
7.84589e-08
-1.71272e-07
8.20583e-08
-1.92533e-07
8.50138e-08
-2.14319e-07
8.73331e-08
-2.36482e-07
8.90284e-08
-2.5888e-07
9.01153e-08
-2.81372e-07
9.06112e-08
-3.0382e-07
9.05348e-08
-3.26091e-07
8.99052e-08
-3.48056e-07
8.87416e-08
-3.69589e-07
8.7063e-08
-3.90569e-07
8.48881e-08
-4.1088e-07
8.22353e-08
-4.30408e-07
7.91225e-08
-4.49046e-07
7.55677e-08
-4.6669e-07
7.15888e-08
-4.8324e-07
6.72039e-08
-4.98602e-07
6.24318e-08
-5.12687e-07
5.72922e-08
-5.2541e-07
5.18056e-08
-5.36693e-07
4.59941e-08
-5.46463e-07
3.98815e-08
-5.54656e-07
3.34934e-08
-5.6121e-07
2.68577e-08
-5.66077e-07
2.00045e-08
-5.69211e-07
1.29666e-08
-5.70579e-07
5.77908e-09
-5.70156e-07
-1.52003e-09
-5.67926e-07
-8.89019e-09
-5.63884e-07
-1.62882e-08
-5.58037e-07
-2.36685e-08
-5.50401e-07
-3.09831e-08
-5.41008e-07
-3.8182e-08
-5.29898e-07
-4.52137e-08
-5.17125e-07
-5.2025e-08
-5.02758e-07
-5.8562e-08
-4.86875e-07
-6.47702e-08
-4.69569e-07
-7.05955e-08
-4.50945e-07
-7.59842e-08
-4.31121e-07
-8.0884e-08
-4.10225e-07
-8.52446e-08
-3.88397e-07
-8.90183e-08
-3.65788e-07
-9.21608e-08
-3.42557e-07
-9.46316e-08
-3.18871e-07
-9.63952e-08
-2.94905e-07
-9.74215e-08
-2.70838e-07
-9.76862e-08
-2.46854e-07
-9.71723e-08
-2.23138e-07
-9.58698e-08
-1.99876e-07
-9.37771e-08
-1.77249e-07
-9.09013e-08
-1.55436e-07
-8.72592e-08
-1.3461e-07
-8.28776e-08
-1.14932e-07
-7.77951e-08
-9.65508e-08
-7.20624e-08
-7.96013e-08
-6.57441e-08
-6.41985e-08
-5.89203e-08
-5.04355e-08
-5.16891e-08
-3.83799e-08
-4.41694e-08
-2.80693e-08
-3.6505e-08
-1.95081e-08
-2.88692e-08
-1.26631e-08
-2.14715e-08
-7.46045e-09
-1.45652e-08
-3.78183e-09
-8.4578e-09
-1.4624e-09
-3.52054e-09
-2.89121e-10
-2.01641e-10
9.20326e-10
-8.65712e-10
1.05638e-09
-3.53473e-09
6.04021e-09
-8.07419e-09
1.29895e-08
-1.453e-08
2.12215e-08
-2.29195e-08
3.022e-08
-3.32299e-08
3.95731e-08
-4.54189e-08
4.8956e-08
-5.94173e-08
5.8119e-08
-7.51325e-08
6.68729e-08
-9.24522e-08
7.50776e-08
-1.11249e-07
8.26319e-08
-1.31381e-07
8.94661e-08
-1.52701e-07
9.55347e-08
-1.75054e-07
1.00811e-07
-1.9828e-07
1.05285e-07
-2.2222e-07
1.08954e-07
-2.46713e-07
1.11826e-07
-2.71601e-07
1.13916e-07
-2.96725e-07
1.1524e-07
-3.21934e-07
1.15819e-07
-3.47075e-07
1.15676e-07
-3.72003e-07
1.14833e-07
-3.96575e-07
1.13314e-07
-4.20654e-07
1.11142e-07
-4.44105e-07
1.08339e-07
-4.66799e-07
1.0493e-07
-4.88613e-07
1.00936e-07
-5.09425e-07
9.63803e-08
-5.29122e-07
9.12858e-08
-5.47594e-07
8.56756e-08
-5.64736e-07
7.95738e-08
-5.80449e-07
7.30055e-08
-5.94641e-07
6.59973e-08
-6.07225e-07
5.85777e-08
-6.1812e-07
5.07771e-08
-6.27255e-07
4.26284e-08
-6.34565e-07
3.41674e-08
-6.39993e-07
2.54326e-08
-6.43492e-07
1.64656e-08
-6.45024e-07
7.31139e-09
-6.44563e-07
-1.98189e-09
-6.4209e-07
-1.13628e-08
-6.37602e-07
-2.07765e-08
-6.31105e-07
-3.01655e-08
-6.22618e-07
-3.94692e-08
-6.12176e-07
-4.86246e-08
-5.99823e-07
-5.75666e-08
-5.8562e-07
-6.62283e-08
-5.6964e-07
-7.4542e-08
-5.5197e-07
-8.24393e-08
-5.32714e-07
-8.9852e-08
-5.11985e-07
-9.67128e-08
-4.89913e-07
-1.02956e-07
-4.66639e-07
-1.08519e-07
-4.42315e-07
-1.13342e-07
-4.17107e-07
-1.17369e-07
-3.9119e-07
-1.20549e-07
-3.64746e-07
-1.22839e-07
-3.37966e-07
-1.24201e-07
-3.11048e-07
-1.24605e-07
-2.84191e-07
-1.24029e-07
-2.57599e-07
-1.22462e-07
-2.31474e-07
-1.19902e-07
-2.06017e-07
-1.16359e-07
-1.81422e-07
-1.11854e-07
-1.57878e-07
-1.06422e-07
-1.35562e-07
-1.00111e-07
-1.14639e-07
-9.29858e-08
-9.52559e-08
-8.51271e-08
-7.75415e-08
-7.66346e-08
-6.16012e-08
-6.76294e-08
-4.7514e-08
-5.82566e-08
-3.53293e-08
-4.86897e-08
-2.50638e-08
-3.91348e-08
-1.66982e-08
-2.98371e-08
-1.01754e-08
-2.1088e-08
-5.39883e-09
-1.32344e-08
-2.23217e-09
-6.6872e-09
-5.01434e-10
-1.93236e-09
4.18888e-10
-1.1111e-09
2.16746e-09
-4.43124e-09
9.36035e-09
-9.95681e-09
1.8515e-08
-1.76765e-08
2.89411e-08
-2.75617e-08
4.01053e-08
-3.95632e-08
5.15745e-08
-5.36093e-08
6.30021e-08
-6.96073e-08
7.4117e-08
-8.74452e-08
8.47108e-08
-1.06994e-07
9.46267e-08
-1.28112e-07
1.0375e-07
-1.50645e-07
1.11999e-07
-1.74433e-07
1.19322e-07
-1.99308e-07
1.25686e-07
-2.25099e-07
1.31076e-07
-2.51636e-07
1.3549e-07
-2.78745e-07
1.38936e-07
-3.06256e-07
1.41427e-07
-3.34002e-07
1.42985e-07
-3.61815e-07
1.43633e-07
-3.89533e-07
1.43395e-07
-4.17e-07
1.423e-07
-4.4406e-07
1.40374e-07
-4.70564e-07
1.37645e-07
-4.96367e-07
1.34142e-07
-5.21329e-07
1.29892e-07
-5.45315e-07
1.24922e-07
-5.68196e-07
1.19261e-07
-5.89845e-07
1.12935e-07
-6.10144e-07
1.05975e-07
-6.2898e-07
9.84095e-08
-6.46245e-07
9.02702e-08
-6.61837e-07
8.15901e-08
-6.75664e-07
7.24044e-08
-6.87638e-07
6.27512e-08
-6.97681e-07
5.26712e-08
-7.05722e-07
4.22086e-08
-7.11701e-07
3.14111e-08
-7.15565e-07
2.03301e-08
-7.17275e-07
9.0211e-09
-7.168e-07
-2.45671e-09
-7.14123e-07
-1.404e-08
-7.09238e-07
-2.56618e-08
-7.02152e-07
-3.72512e-08
-6.92887e-07
-4.87341e-08
-6.81478e-07
-6.00335e-08
-6.67975e-07
-7.10698e-08
-6.52442e-07
-8.17614e-08
-6.34958e-07
-9.20255e-08
-6.15619e-07
-1.01779e-07
-5.94533e-07
-1.10938e-07
-5.71825e-07
-1.19421e-07
-5.47633e-07
-1.27148e-07
-5.2211e-07
-1.34042e-07
-4.95421e-07
-1.40031e-07
-4.67743e-07
-1.45046e-07
-4.39265e-07
-1.49028e-07
-4.10184e-07
-1.5192e-07
-3.80707e-07
-1.53678e-07
-3.51045e-07
-1.54266e-07
-3.21416e-07
-1.53658e-07
-2.92037e-07
-1.5184e-07
-2.63129e-07
-1.4881e-07
-2.34908e-07
-1.4458e-07
-2.07585e-07
-1.39177e-07
-1.81364e-07
-1.32643e-07
-1.56438e-07
-1.25037e-07
-1.32986e-07
-1.16438e-07
-1.1117e-07
-1.06943e-07
-9.11334e-08
-9.66717e-08
-7.2994e-08
-8.57688e-08
-5.6845e-08
-7.44056e-08
-4.27501e-08
-6.27846e-08
-3.07411e-08
-5.11438e-08
-2.08161e-08
-3.9762e-08
-1.29385e-08
-2.89656e-08
-7.03661e-09
-1.91363e-08
-3.0056e-09
-1.07182e-08
-7.11581e-10
-4.22639e-09
-2.92699e-10
-1.34881e-09
3.51627e-09
-5.3088e-09
1.33203e-08
-1.18115e-08
2.50177e-08
-2.07901e-08
3.79198e-08
-3.217e-08
5.14852e-08
-4.58634e-08
6.52679e-08
-6.17673e-08
7.8906e-08
-7.97629e-08
9.21127e-08
-9.97167e-08
1.04665e-07
-1.21482e-07
1.16392e-07
-1.449e-07
1.27168e-07
-1.69803e-07
1.36903e-07
-1.96018e-07
1.45537e-07
-2.23366e-07
1.53034e-07
-2.51664e-07
1.59374e-07
-2.8073e-07
1.64556e-07
-3.1038e-07
1.68586e-07
-3.40434e-07
1.71481e-07
-3.70712e-07
1.73263e-07
-4.01038e-07
1.73958e-07
-4.31238e-07
1.73596e-07
-4.61145e-07
1.72206e-07
-4.90594e-07
1.69822e-07
-5.19424e-07
1.66476e-07
-5.47482e-07
1.622e-07
-5.74618e-07
1.57027e-07
-6.00686e-07
1.5099e-07
-6.25547e-07
1.44122e-07
-6.49067e-07
1.36456e-07
-6.7112e-07
1.28027e-07
-6.91582e-07
1.18872e-07
-7.10339e-07
1.09027e-07
-7.27282e-07
9.85333e-08
-7.42311e-07
8.74331e-08
-7.55332e-07
7.57723e-08
-7.66261e-07
6.36002e-08
-7.75022e-07
5.09701e-08
-7.81551e-07
3.79396e-08
-7.85791e-07
2.45704e-08
-7.87699e-07
1.09291e-08
-7.87243e-07
-2.91302e-09
-7.84402e-07
-1.68802e-08
-7.79172e-07
-3.08922e-08
-7.71559e-07
-4.48642e-08
-7.61585e-07
-5.87077e-08
-7.49288e-07
-7.23306e-08
-7.3472e-07
-8.56379e-08
-7.17949e-07
-9.85323e-08
-6.9906e-07
-1.10915e-07
-6.78152e-07
-1.22686e-07
-6.55343e-07
-1.33747e-07
-6.30763e-07
-1.44001e-07
-6.0456e-07
-1.5335e-07
-5.76897e-07
-1.61705e-07
-5.47949e-07
-1.68979e-07
-5.17906e-07
-1.7509e-07
-4.86967e-07
-1.79966e-07
-4.55344e-07
-1.83543e-07
-4.23257e-07
-1.85765e-07
-3.90933e-07
-1.86591e-07
-3.58603e-07
-1.85988e-07
-3.26502e-07
-1.83941e-07
-2.94864e-07
-1.80448e-07
-2.63922e-07
-1.75522e-07
-2.33903e-07
-1.69196e-07
-2.05026e-07
-1.61519e-07
-1.775e-07
-1.52563e-07
-1.5152e-07
-1.42418e-07
-1.27263e-07
-1.312e-07
-1.04887e-07
-1.19048e-07
-8.45259e-08
-1.0613e-07
-6.6288e-08
-9.26434e-08
-5.02537e-08
-7.88189e-08
-3.64725e-08
-6.49249e-08
-2.49627e-08
-5.12719e-08
-1.57103e-08
-3.8218e-08
-8.6706e-09
-2.61759e-08
-3.77113e-09
-1.56177e-08
-9.16811e-10
-7.08072e-09
-1.20951e-09
-1.57824e-09
5.0945e-09
-6.16287e-09
1.7905e-08
-1.36264e-08
3.24812e-08
-2.38495e-08
4.8143e-08
-3.67121e-08
6.43478e-08
-5.20875e-08
8.06432e-08
-6.984e-08
9.66584e-08
-8.98232e-08
1.12096e-07
-1.1188e-07
1.26722e-07
-1.35845e-07
1.40356e-07
-1.61541e-07
1.52864e-07
-1.88786e-07
1.64149e-07
-2.17394e-07
1.74145e-07
-2.47172e-07
1.82812e-07
-2.77928e-07
1.9013e-07
-3.09468e-07
1.96096e-07
-3.41598e-07
2.00716e-07
-3.74127e-07
2.0401e-07
-4.06866e-07
2.06002e-07
-4.39628e-07
2.0672e-07
-4.72232e-07
2.06199e-07
-5.04499e-07
2.04473e-07
-5.36255e-07
2.01579e-07
-5.67333e-07
1.97554e-07
-5.97567e-07
1.92434e-07
-6.26799e-07
1.86259e-07
-6.54876e-07
1.79067e-07
-6.81649e-07
1.70895e-07
-7.06978e-07
1.61785e-07
-7.30726e-07
1.51775e-07
-7.52764e-07
1.4091e-07
-7.7297e-07
1.29233e-07
-7.91228e-07
1.16792e-07
-8.07432e-07
1.03637e-07
-8.21482e-07
8.98222e-08
-8.33288e-07
7.54065e-08
-8.42771e-07
6.04524e-08
-8.49859e-07
4.50277e-08
-8.54494e-07
2.92054e-08
-8.56628e-07
1.30637e-08
-8.56228e-07
-3.31364e-09
-8.5327e-07
-1.98376e-08
-8.47749e-07
-3.64138e-08
-8.3967e-07
-5.2943e-08
-8.29056e-07
-6.93213e-08
-8.15946e-07
-8.54409e-08
-8.00394e-07
-1.0119e-07
-7.8247e-07
-1.16456e-07
-7.62263e-07
-1.31122e-07
-7.39879e-07
-1.45071e-07
-7.15437e-07
-1.58188e-07
-6.89079e-07
-1.70359e-07
-6.60958e-07
-1.81472e-07
-6.31245e-07
-1.91419e-07
-6.00125e-07
-2.00098e-07
-5.67799e-07
-2.07417e-07
-5.34477e-07
-2.13287e-07
-5.00385e-07
-2.17635e-07
-4.65754e-07
-2.20396e-07
-4.30825e-07
-2.2152e-07
-3.95844e-07
-2.20969e-07
-3.61061e-07
-2.18725e-07
-3.26725e-07
-2.14784e-07
-2.93084e-07
-2.09163e-07
-2.60382e-07
-2.01898e-07
-2.28854e-07
-1.93047e-07
-1.98726e-07
-1.82691e-07
-1.70207e-07
-1.70937e-07
-1.43492e-07
-1.57915e-07
-1.18755e-07
-1.43785e-07
-9.61465e-08
-1.28738e-07
-7.57937e-08
-1.12996e-07
-5.77948e-08
-9.68179e-08
-4.22193e-08
-8.05005e-08
-2.91072e-08
-6.4384e-08
-1.8469e-08
-4.88561e-08
-1.0288e-08
-3.4357e-08
-4.52325e-09
-2.13824e-08
-1.11608e-09
-1.04879e-08
-2.32558e-09
-1.79944e-09
6.89394e-09
-6.99178e-09
2.30973e-08
-1.53958e-08
4.08853e-08
-2.68431e-08
5.95902e-08
-4.11692e-08
7.86739e-08
-5.82092e-08
9.76833e-08
-7.7794e-08
1.16243e-07
-9.97487e-08
1.34051e-07
-1.23892e-07
1.50865e-07
-1.50036e-07
1.665e-07
-1.77987e-07
1.80815e-07
-2.07548e-07
1.93709e-07
-2.38517e-07
2.05113e-07
-2.70689e-07
2.14984e-07
-3.03861e-07
2.23302e-07
-3.37827e-07
2.30062e-07
-3.72386e-07
2.35275e-07
-4.07334e-07
2.38959e-07
-4.42475e-07
2.41142e-07
-4.77612e-07
2.41858e-07
-5.12555e-07
2.41143e-07
-5.47117e-07
2.39036e-07
-5.81117e-07
2.35579e-07
-6.14376e-07
2.30813e-07
-6.46724e-07
2.24782e-07
-6.77992e-07
2.17528e-07
-7.08021e-07
2.09096e-07
-7.36655e-07
1.99529e-07
-7.63744e-07
1.88874e-07
-7.89146e-07
1.77177e-07
-8.12724e-07
1.64488e-07
-8.3435e-07
1.50859e-07
-8.53902e-07
1.36344e-07
-8.71267e-07
1.21002e-07
-8.86341e-07
1.04895e-07
-8.99027e-07
8.80926e-08
-9.09241e-07
7.06662e-08
-9.16908e-07
5.26947e-08
-9.21965e-07
3.42625e-08
-9.24361e-07
1.54601e-08
-9.24059e-07
-3.61566e-09
-9.21035e-07
-2.28619e-08
-9.15279e-07
-4.21697e-08
-9.06797e-07
-6.14246e-08
-8.95612e-07
-8.05066e-08
-8.81761e-07
-9.92914e-08
-8.65301e-07
-1.17651e-07
-8.46304e-07
-1.35453e-07
-8.24862e-07
-1.52564e-07
-8.01082e-07
-1.68851e-07
-7.75092e-07
-1.84179e-07
-7.47035e-07
-1.98416e-07
-7.17074e-07
-2.11433e-07
-6.85386e-07
-2.23106e-07
-6.52166e-07
-2.33318e-07
-6.17623e-07
-2.4196e-07
-5.8198e-07
-2.48931e-07
-5.45471e-07
-2.54144e-07
-5.08341e-07
-2.57526e-07
-4.70846e-07
-2.59015e-07
-4.33244e-07
-2.58571e-07
-3.958e-07
-2.56169e-07
-3.58779e-07
-2.51805e-07
-3.22445e-07
-2.45497e-07
-2.87057e-07
-2.37285e-07
-2.52869e-07
-2.27236e-07
-2.20121e-07
-2.15439e-07
-1.89042e-07
-2.02016e-07
-1.59844e-07
-1.87113e-07
-1.32718e-07
-1.70911e-07
-1.07835e-07
-1.53621e-07
-8.53408e-08
-1.35491e-07
-6.53532e-08
-1.16805e-07
-4.7964e-08
-9.78897e-08
-3.32362e-08
-7.91117e-08
-2.1206e-08
-6.08863e-08
-1.18842e-08
-4.36788e-08
-5.26047e-09
-2.80061e-08
-1.30939e-09
-1.4439e-08
-3.63498e-09
-2.01284e-09
8.90678e-09
-7.7956e-09
2.88801e-08
-1.71182e-08
5.02078e-08
-2.97658e-08
7.22379e-08
-4.55321e-08
9.44403e-08
-6.42143e-08
1.16365e-07
-8.56099e-08
1.37639e-07
-1.09515e-07
1.57956e-07
-1.35724e-07
1.77073e-07
-1.64025e-07
1.94802e-07
-1.94208e-07
2.10998e-07
-2.26058e-07
2.25559e-07
-2.59358e-07
2.38413e-07
-2.93892e-07
2.49518e-07
-3.29443e-07
2.58853e-07
-3.65797e-07
2.66416e-07
-4.0274e-07
2.72217e-07
-4.40061e-07
2.7628e-07
-4.77555e-07
2.78635e-07
-5.15016e-07
2.79319e-07
-5.52247e-07
2.78373e-07
-5.89052e-07
2.75841e-07
-6.25243e-07
2.71769e-07
-6.60633e-07
2.66204e-07
-6.95045e-07
2.59193e-07
-7.28304e-07
2.50787e-07
-7.60242e-07
2.41033e-07
-7.90696e-07
2.29984e-07
-8.19512e-07
2.17689e-07
-8.46539e-07
2.04204e-07
-8.71636e-07
1.89585e-07
-8.94666e-07
1.73889e-07
-9.15503e-07
1.57181e-07
-9.34027e-07
1.39526e-07
-9.50129e-07
1.20997e-07
-9.63708e-07
1.01672e-07
-9.74674e-07
8.1632e-08
-9.82947e-07
6.09682e-08
-9.88461e-07
3.97766e-08
-9.91162e-07
1.81603e-08
-9.91007e-07
-3.77053e-09
-9.8797e-07
-2.58986e-08
-9.8204e-07
-4.80999e-08
-9.7322e-07
-7.02441e-08
-9.61532e-07
-9.21947e-08
-9.47014e-07
-1.1381e-07
-9.2972e-07
-1.34944e-07
-9.09726e-07
-1.55447e-07
-8.87124e-07
-1.75166e-07
-8.62025e-07
-1.9395e-07
-8.34559e-07
-2.11644e-07
-8.04876e-07
-2.28099e-07
-7.73143e-07
-2.43166e-07
-7.39544e-07
-2.56705e-07
-7.04282e-07
-2.68581e-07
-6.67574e-07
-2.78668e-07
-6.29653e-07
-2.86852e-07
-5.90766e-07
-2.93032e-07
-5.51168e-07
-2.97123e-07
-5.11128e-07
-2.99056e-07
-4.70919e-07
-2.9878e-07
-4.30819e-07
-2.96268e-07
-3.91111e-07
-2.91513e-07
-3.52074e-07
-2.84534e-07
-3.13984e-07
-2.75375e-07
-2.77113e-07
-2.64107e-07
-2.41718e-07
-2.50834e-07
-2.08048e-07
-2.35686e-07
-1.76334e-07
-2.18828e-07
-1.46786e-07
-2.00458e-07
-1.19596e-07
-1.80811e-07
-9.49296e-08
-1.60157e-07
-7.2928e-08
-1.38807e-07
-5.37054e-08
-1.17112e-07
-3.73493e-08
-9.54678e-08
-2.39215e-08
-7.43141e-08
-1.34602e-08
-5.41401e-08
-5.98396e-09
-3.54824e-08
-1.49743e-09
-1.89255e-08
-5.13242e-09
-2.219e-09
1.11258e-08
-8.57539e-09
3.52365e-08
-1.8794e-08
6.04264e-08
-3.26169e-08
8.60608e-08
-4.97975e-08
1.11621e-07
-7.00963e-08
1.36664e-07
-9.32781e-08
1.60821e-07
-1.1911e-07
1.83788e-07
-1.4736e-07
2.05323e-07
-1.77795e-07
2.25237e-07
-2.10185e-07
2.43388e-07
-2.44297e-07
2.59671e-07
-2.79901e-07
2.74017e-07
-3.16766e-07
2.86383e-07
-3.54664e-07
2.96752e-07
-3.9337e-07
3.05122e-07
-4.32661e-07
3.11508e-07
-4.72317e-07
3.15936e-07
-5.12122e-07
3.18441e-07
-5.51867e-07
3.19064e-07
-5.91343e-07
3.1785e-07
-6.3035e-07
3.14848e-07
-6.6869e-07
3.10109e-07
-7.06172e-07
3.03686e-07
-7.4261e-07
2.95632e-07
-7.77825e-07
2.86001e-07
-8.11641e-07
2.74849e-07
-8.4389e-07
2.62233e-07
-8.7441e-07
2.4821e-07
-9.03046e-07
2.3284e-07
-9.2965e-07
2.16188e-07
-9.54079e-07
1.98319e-07
-9.76203e-07
1.79304e-07
-9.95895e-07
1.59218e-07
-1.01304e-06
1.38143e-07
-1.02753e-06
1.16165e-07
-1.03928e-06
9.33788e-08
-1.0482e-06
6.98842e-08
-1.05421e-06
4.57901e-08
-1.05726e-06
2.12127e-08
-1.05731e-06
-3.72413e-09
-1.05432e-06
-2.88884e-08
-1.04828e-06
-5.41407e-08
-1.03919e-06
-7.93341e-08
-1.02707e-06
-1.04315e-07
-1.01195e-06
-1.28924e-07
-9.93901e-07
-1.52997e-07
-9.72984e-07
-1.76364e-07
-9.49295e-07
-1.98855e-07
-9.22948e-07
-2.20297e-07
-8.94076e-07
-2.40516e-07
-8.62831e-07
-2.59344e-07
-8.29385e-07
-2.76612e-07
-7.9393e-07
-2.92161e-07
-7.56673e-07
-3.05837e-07
-7.17842e-07
-3.17499e-07
-6.77677e-07
-3.27016e-07
-6.36436e-07
-3.34273e-07
-5.94387e-07
-3.39172e-07
-5.5181e-07
-3.41632e-07
-5.08994e-07
-3.41597e-07
-4.66231e-07
-3.39031e-07
-4.2382e-07
-3.33925e-07
-3.82057e-07
-3.26297e-07
-3.41236e-07
-3.16195e-07
-3.01647e-07
-3.03697e-07
-2.63568e-07
-2.88912e-07
-2.27267e-07
-2.71987e-07
-1.92995e-07
-2.531e-07
-1.60985e-07
-2.32468e-07
-1.31449e-07
-2.10347e-07
-1.04577e-07
-1.87029e-07
-8.05328e-08
-1.62852e-07
-5.94546e-08
-1.38191e-07
-4.14552e-08
-1.13467e-07
-2.66224e-08
-8.9147e-08
-1.5021e-08
-6.57415e-08
-6.69666e-09
-4.38067e-08
-1.68128e-09
-2.39409e-08
-6.81369e-09
-2.41859e-09
1.35444e-08
-9.33265e-09
4.21506e-08
-2.04253e-08
7.15191e-08
-3.53981e-08
1.01034e-07
-5.3966e-08
1.30189e-07
-7.58542e-08
1.58552e-07
-1.00795e-07
1.85762e-07
-1.28527e-07
2.1152e-07
-1.58793e-07
2.35588e-07
-1.91337e-07
2.57781e-07
-2.25908e-07
2.77959e-07
-2.62256e-07
2.9602e-07
-3.00136e-07
3.11897e-07
-3.39304e-07
3.25551e-07
-3.7952e-07
3.36968e-07
-4.20547e-07
3.46149e-07
-4.62153e-07
3.53114e-07
-5.0411e-07
3.57893e-07
-5.46195e-07
3.60525e-07
-5.88188e-07
3.61057e-07
-6.29875e-07
3.59537e-07
-6.7105e-07
3.56022e-07
-7.11507e-07
3.50567e-07
-7.51051e-07
3.4323e-07
-7.89489e-07
3.34069e-07
-8.26634e-07
3.23147e-07
-8.62307e-07
3.10522e-07
-8.96334e-07
2.9626e-07
-9.28547e-07
2.80423e-07
-9.58785e-07
2.63078e-07
-9.86894e-07
2.44297e-07
-1.01273e-06
2.24153e-07
-1.03615e-06
2.02725e-07
-1.05703e-06
1.80096e-07
-1.07524e-06
1.56357e-07
-1.09068e-06
1.31605e-07
-1.10325e-06
1.05944e-07
-1.11285e-06
7.9486e-08
-1.11941e-06
5.23523e-08
-1.12287e-06
2.4672e-08
-1.12318e-06
-3.41682e-09
-1.1203e-06
-3.17674e-08
-1.11421e-06
-6.02242e-08
-1.10492e-06
-8.86239e-08
-1.09244e-06
-1.16795e-07
-1.07681e-06
-1.4456e-07
-1.05807e-06
-1.71736e-07
-1.0363e-06
-1.98132e-07
-1.0116e-06
-2.23559e-07
-9.8407e-07