/*--------------------------------*- C++ -*----------------------------------*\
  =========                 |
  \\      /  F ield         | OpenFOAM: The Open Source CFD Toolbox
   \\    /   O peration     | Website:  https://openfoam.org
    \\  /    A nd           | Version:  7
     \\/     M anipulation  |
\*---------------------------------------------------------------------------*/
FoamFile
{
    version     2.0;
    format      ascii;
    class       volScalarField;
    location    "0.675";
    object      p;
}
// * * * * * * * * * * * * * * * * * * * * * * * * * * * * * * * * * * * * * //

dimensions      [0 2 -2 0 0 0 0];

internalField   nonuniform List<scalar> 
6400
(
2.07054e-06
-4.7529e-08
-0.000112465
-0.000331626
-0.000631264
-0.000987581
-0.00137951
-0.00178878
-0.00220007
-0.00260077
-0.00298062
-0.0033313
-0.00364616
-0.00391991
-0.00414844
-0.00432861
-0.00445807
-0.00453516
-0.00455877
-0.00452829
-0.00444347
-0.00430443
-0.00411157
-0.00386555
-0.00356724
-0.00321776
-0.0028184
-0.00237066
-0.00187626
-0.0013371
-0.000755294
-0.000133183
0.000526671
0.00122147
0.00194817
0.00270347
0.00348382
0.00428541
0.0051042
0.00593589
0.00677594
0.00761964
0.00846206
0.00929809
0.0101225
0.0109301
0.0117154
0.0124732
0.0131981
0.013885
0.0145289
0.015125
0.015669
0.0161567
0.0165846
0.0169495
0.0172488
0.0174806
0.0176437
0.0177374
0.0177621
0.0177188
0.0176095
0.0174368
0.0172047
0.0169177
0.0165815
0.0162029
0.0157895
0.0153503
0.0148952
0.0144356
0.013984
0.0135545
0.0131628
0.0128257
0.0125607
0.012385
0.0123142
0.0123375
7.16958e-06
3.9262e-06
-9.57704e-05
-0.000281846
-0.000532822
-0.000831654
-0.00116232
-0.00151006
-0.00186188
-0.0022067
-0.00253517
-0.00283956
-0.00311347
-0.00335176
-0.00355029
-0.00370583
-0.0038159
-0.00387866
-0.00389283
-0.00385758
-0.00377249
-0.00363748
-0.00345277
-0.00321885
-0.00293643
-0.00260647
-0.00223013
-0.00180877
-0.00134395
-0.000837459
-0.00029127
0.000292424
0.00091121
0.00156245
0.00224327
0.00295057
0.003681
0.00443098
0.00519672
0.00597418
0.00675915
0.00754719
0.00833373
0.00911404
0.00988327
0.0106365
0.0113689
0.0120754
0.0127512
0.0133917
0.0139922
0.0145484
0.0150563
0.0155123
0.0159131
0.0162559
0.0165384
0.0167591
0.0169168
0.0170113
0.0170429
0.0170127
0.0169227
0.0167757
0.0165751
0.0163257
0.0160326
0.0157022
0.0153417
0.0149593
0.0145641
0.0141664
0.0137772
0.0134087
0.013074
0.0127864
0.0125591
0.0124042
0.0123372
0.0123609
0.000120363
0.000103904
3.77082e-06
-0.000167964
-0.000393241
-0.000658545
-0.000951052
-0.00125854
-0.00156998
-0.00187569
-0.00216734
-0.00243786
-0.00268134
-0.00289288
-0.00306852
-0.00320508
-0.00330008
-0.00335165
-0.00335842
-0.00331947
-0.00323426
-0.0031026
-0.00292458
-0.00270057
-0.00243117
-0.00211721
-0.00175972
-0.00135995
-0.000919345
-0.000439559
7.75559e-05
0.000629937
0.00121531
0.00183119
0.00247485
0.00314336
0.00383356
0.00454207
0.00526529
0.00599943
0.00674049
0.00748432
0.00822659
0.00896286
0.00968859
0.0103992
0.01109
0.0117565
0.0123941
0.0129984
0.0135651
0.0140904
0.0145704
0.0150018
0.0153816
0.0157073
0.0159769
0.0161888
0.0163422
0.0164369
0.0164734
0.0164528
0.016377
0.0162486
0.0160713
0.0158492
0.0155874
0.0152918
0.0149692
0.0146271
0.0142739
0.0139187
0.0135716
0.0132431
0.0129443
0.0126865
0.0124804
0.0123361
0.0122697
0.0122907
0.000340731
0.000290728
0.000174775
1.87091e-06
-0.000214882
-0.000464204
-0.000735361
-0.00101814
-0.0013032
-0.00158217
-0.00184775
-0.00209362
-0.00231442
-0.00250568
-0.0026637
-0.00278549
-0.00286868
-0.00291144
-0.00291243
-0.0028707
-0.00278566
-0.00265705
-0.00248491
-0.00226949
-0.00201132
-0.00171112
-0.00136982
-0.000988569
-0.000568698
-0.000111739
0.000380572
0.000906301
0.00146331
0.00204924
0.00266153
0.0032974
0.00395386
0.00462769
0.0053155
0.00601367
0.00671843
0.00742581
0.00813174
0.00883199
0.00952225
0.0101982
0.0108554
0.0114895
0.0120963
0.0126716
0.0132114
0.0137119
0.0141697
0.0145815
0.0149446
0.0152567
0.0155158
0.0157206
0.0158703
0.0159648
0.0160046
0.0159908
0.0159253
0.0158106
0.0156502
0.015448
0.0152088
0.0149382
0.0146424
0.0143285
0.014004
0.0136773
0.0133573
0.0130533
0.0127751
0.0125324
0.0123344
0.0121904
0.0121146
0.0121169
0.000643982
0.000544091
0.000400154
0.000215579
-3.13703e-06
-0.000246694
-0.000506114
-0.00077302
-0.00103963
-0.00129886
-0.00154443
-0.00177083
-0.00197333
-0.00214794
-0.00229132
-0.00240073
-0.00247399
-0.00250937
-0.00250561
-0.00246177
-0.00237728
-0.00225184
-0.00208542
-0.00187824
-0.00163073
-0.00134353
-0.00101748
-0.000653626
-0.00025318
0.000182437
0.000651613
0.00115254
0.00168322
0.00224143
0.00282476
0.00343059
0.00405608
0.0046982
0.00535371
0.0060192
0.00669107
0.00736557
0.0080388
0.00870676
0.00936533
0.0100104
0.0106377
0.0112433
0.0118229
0.0123727
0.0128888
0.0133676
0.0138059
0.0142006
0.0145491
0.0148492
0.015099
0.0152974
0.0154437
0.0155376
0.0155798
0.0155713
0.0155139
0.0154101
0.0152631
0.0150766
0.0148551
0.0146039
0.0143288
0.0140361
0.0137328
0.0134265
0.0131251
0.0128367
0.01257
0.0123333
0.0121347
0.0119824
0.0118867
0.0118545
0.00100802
0.000848104
0.000667288
0.000462671
0.000233451
-1.2816e-05
-0.000268635
-0.000527292
-0.000782451
-0.00102824
-0.00125937
-0.00147116
-0.00165955
-0.00182105
-0.00195273
-0.00205218
-0.00211744
-0.00214695
-0.00213955
-0.00209439
-0.0020109
-0.00188879
-0.00172803
-0.00152877
-0.00129138
-0.00101644
-0.00070469
-0.000357079
2.5279e-05
0.000441082
0.000888841
0.00136688
0.00187332
0.0024061
0.00296294
0.00354138
0.00413875
0.00475216
0.00537856
0.00601469
0.00665713
0.00730231
0.00794651
0.0085859
0.00921656
0.00983452
0.0104358
0.0110164
0.0115724
0.0121001
0.0125958
0.013056
0.0134775
0.0138576
0.0141935
0.0144833
0.0147252
0.0149179
0.015061
0.0151541
0.0151978
0.0151931
0.0151419
0.0150463
0.0149093
0.0147346
0.0145264
0.0142894
0.0140291
0.0137513
0.0134624
0.0131692
0.0128786
0.012598
0.0123348
0.0120961
0.0118892
0.0117211
0.0115971
0.0115195
0.00141341
0.00118785
0.000964118
0.000733003
0.000486379
0.000230353
-2.88085e-05
-0.000285867
-0.000535803
-0.00077386
-0.000995698
-0.00119745
-0.00137571
-0.00152753
-0.00165043
-0.00174234
-0.00180157
-0.00182677
-0.00181691
-0.00177125
-0.00168928
-0.00157074
-0.00141558
-0.00122394
-0.000996141
-0.000732695
-0.000434275
-0.000101726
0.000263938
0.000661523
0.00108966
0.0015468
0.0020312
0.00254093
0.00307386
0.00362768
0.00419986
0.00478769
0.00538824
0.00599842
0.00661499
0.00723451
0.00785342
0.00846805
0.00907463
0.00966934
0.0102483
0.0108077
0.0113438
0.0118529
0.0123314
0.012776
0.0131837
0.0135515
0.0138771
0.0141583
0.0143935
0.0145815
0.0147216
0.0148138
0.0148583
0.0148562
0.0148091
0.0147192
0.0145893
0.0144228
0.0142234
0.0139959
0.013745
0.0134762
0.0131954
0.0129084
0.0126218
0.0123418
0.0120749
0.0118274
0.0116054
0.0114153
0.0112567
0.011127
0.00184319
0.00154938
0.00127893
0.00101667
0.000747441
0.000476161
0.000208101
-5.2799e-05
-0.000302701
-0.000537873
-0.000754866
-0.000950579
-0.00112226
-0.00126752
-0.00138432
-0.00147095
-0.00152601
-0.00154839
-0.00153724
-0.00149192
-0.00141202
-0.00129732
-0.00114778
-0.000963537
-0.000744876
-0.000492252
-0.000206269
0.000112313
0.000462577
0.000843438
0.00125364
0.00169176
0.00215619
0.00264513
0.0031566
0.00368841
0.0042382
0.00480337
0.00538118
0.00596866
0.0065627
0.00716002
0.00775718
0.00835066
0.00893679
0.00951188
0.0100722
0.010614
0.0111335
0.0116273
0.0120918
0.0125238
0.0129202
0.0132783
0.0135955
0.0138699
0.0140998
0.0142839
0.0144216
0.0145127
0.0145575
0.0145569
0.0145124
0.0144261
0.0143005
0.0141388
0.0139447
0.0137222
0.0134761
0.0132112
0.0129328
0.0126464
0.0123576
0.0120722
0.0117957
0.0115333
0.0112909
0.0110738
0.0108762
0.0106906
0.00228291
0.00192017
0.00160086
0.0013043
0.00100866
0.000717951
0.00043664
0.000167527
-8.6602e-05
-0.000322943
-0.000538872
-0.000732014
-0.000900249
-0.00104171
-0.00115482
-0.00123824
-0.00129088
-0.00131187
-0.00130053
-0.00125639
-0.00117911
-0.00106856
-0.000924704
-0.000747685
-0.000537772
-0.000295369
-2.10167e-05
0.000284605
0.000620671
0.000986201
0.00138006
0.00180093
0.00224734
0.00271762
0.00320993
0.00372221
0.00425224
0.00479756
0.00535555
0.00592339
0.00649809
0.00707649
0.00765527
0.00823101
0.00880014
0.00935906
0.00990412
0.0104316
0.010938
0.0114197
0.0118732
0.0122954
0.0126832
0.0130338
0.0133447
0.013614
0.0138399
0.0140211
0.014157
0.0142471
0.0142918
0.0142919
0.0142488
0.0141642
0.0140406
0.0138811
0.0136888
0.0134678
0.0132222
0.0129567
0.012676
0.0123851
0.0120891
0.0117931
0.0115018
0.0112199
0.0109527
0.0107049
0.0104654
0.010222
0.00272033
0.00228915
0.00192001
0.0015871
0.00126239
0.000949148
0.00065122
0.000370421
0.0001086
-0.000132274
-0.000350334
-0.000543881
-0.000711389
-0.000851509
-0.000963096
-0.00104519
-0.001097
-0.00111792
-0.00110746
-0.00106529
-0.000991197
-0.0008851
-0.000747022
-0.000577105
-0.000375602
-0.000142879
0.000120583
0.000414179
0.000737173
0.00108869
0.00146769
0.00187299
0.00230323
0.00275689
0.00323223
0.00372735
0.00424014
0.00476827
0.00530926
0.00586039
0.00641879
0.0069814
0.00754502
0.00810628
0.00866173
0.00920781
0.00974092
0.0102574
0.0107538
0.0112264
0.011672
0.0120871
0.0124688
0.0128143
0.0131211
0.013387
0.0136104
0.0137898
0.0139244
0.014014
0.0140585
0.0140587
0.0140158
0.0139315
0.0138081
0.0136482
0.0134551
0.0132322
0.0129837
0.0127136
0.0124264
0.0121267
0.0118191
0.0115081
0.011198
0.0108926
0.0105971
0.0103158
0.0100325
0.00973078
0.00314498
0.00264654
0.0022274
0.00185698
0.00150139
0.00116337
0.000846283
0.000551084
0.000278794
3.06328e-05
-0.000192222
-0.000388698
-0.000557823
-0.000698739
-0.000810722
-0.000893177
-0.000945619
-0.000967676
-0.000959079
-0.000919642
-0.00084927
-0.000747952
-0.000615761
-0.000452851
-0.000259463
-3.59299e-05
0.000217322
0.000499761
0.000810736
0.00114947
0.00151503
0.00190635
0.00232219
0.00276115
0.00322162
0.00370183
0.00419978
0.00471328
0.00523994
0.00577717
0.00632219
0.00687203
0.00742357
0.00797352
0.00851847
0.00905492
0.0095793
0.010088
0.0105774
0.0110441
0.0114845
0.0118953
0.0122736
0.0126163
0.012921
0.0131855
0.0134078
0.0135867
0.013721
0.0138104
0.0138548
0.0138548
0.0138114
0.0137263
0.0136014
0.0134392
0.0132428
0.0130155
0.0127609
0.012483
0.0121858
0.0118736
0.0115506
0.0112209
0.0108883
0.0105563
0.0102298
0.0099128
0.00958461
0.00922474
0.00354781
0.00298369
0.00251491
0.00210641
0.00171882
0.00135448
0.00101636
0.000704685
0.000419739
0.00016207
-6.77719e-05
-0.000269287
-0.000442021
-0.000585576
-0.000699633
-0.000783942
-0.000838315
-0.000862623
-0.000856793
-0.000820796
-0.000754651
-0.000658425
-0.00053224
-0.000376265
-0.000190735
2.40515e-05
0.00026772
0.000539807
0.000839746
0.00116685
0.0015203
0.00189914
0.00230226
0.00272835
0.00317595
0.00364339
0.0041288
0.0046301
0.005145
0.00567103
0.00620547
0.00674546
0.00728791
0.0078296
0.00836715
0.00889709
0.00941586
0.00991985
0.0104054
0.0108691
0.0113072
0.0117166
0.0120939
0.0124364
0.0127412
0.0130061
0.0132291
0.0134088
0.0135438
0.0136338
0.0136784
0.0136781
0.0136339
0.013547
0.0134194
0.0132534
0.0130518
0.0128176
0.0125544
0.0122657
0.0119555
0.0116277
0.0112861
0.0109345
0.0105766
0.0102153
0.00985555
0.0095014
0.00912762
0.00871011
0.00392089
0.00329284
0.00277513
0.00232847
0.00190827
0.00151658
0.00115611
0.00082641
0.00052712
0.000258182
1.95798e-05
-0.000188715
-0.00036673
-0.000514497
-0.000632076
-0.000719548
-0.000777005
-0.000804555
-0.000802315
-0.000770408
-0.000708964
-0.000618131
-0.000498074
-0.000348984
-0.000171084
3.53571e-05
0.000270016
0.000532498
0.000822316
0.00113888
0.00148148
0.00184925
0.00224121
0.00265618
0.0030928
0.00354952
0.00402459
0.00451602
0.00502164
0.00553905
0.00606563
0.00659855
0.0071348
0.0076712
0.00820438
0.00873088
0.00924711
0.00974945
0.0102342
0.0106978
0.0111367
0.0115473
0.0119264
0.012271
0.0125782
0.0128457
0.0130712
0.0132531
0.0133902
0.0134816
0.013527
0.0135268
0.0134815
0.0133924
0.0132612
0.0130901
0.0128817
0.0126388
0.0123648
0.012063
0.0117372
0.011391
0.0110281
0.0106521
0.0102663
0.00987352
0.00947874
0.00908615
0.00866637
0.00819181
0.00425717
0.00356701
0.0030013
0.0025167
0.00206367
0.00164405
0.00126033
0.000911495
0.000596591
0.000315018
6.62413e-05
-0.000150251
-0.000334931
-0.000488233
-0.000610571
-0.000702339
-0.000763893
-0.000795564
-0.000797653
-0.000770426
-0.000714123
-0.000628965
-0.000515162
-0.00037292
-0.000202451
-3.99362e-06
0.00022218
0.000475743
0.00075629
0.00106332
0.00139624
0.00175428
0.00213658
0.00254207
0.00296951
0.00341746
0.00388427
0.00436808
0.00486679
0.00537807
0.00589939
0.00642797
0.00696085
0.00749484
0.00802661
0.00855266
0.0090694
0.00957313
0.0100601
0.0105267
0.0109691
0.0113839
0.0117675
0.0121168
0.0124289
0.0127011
0.0129311
0.0131171
0.0132576
0.0133516
0.0133987
0.0133989
0.0133527
0.0132612
0.013126
0.0129489
0.0127324
0.0124793
0.0121927
0.0118758
0.0115322
0.0111654
0.0107789
0.0103762
0.00996037
0.00953428
0.00910299
0.00867093
0.00820481
0.00767372
0.00455028
0.00379984
0.00318719
0.00266509
0.00217929
0.00173148
0.00132397
0.00095524
0.0006238
0.000328558
6.85045e-05
-0.000157319
-0.000349795
-0.000509732
-0.000637875
-0.000734908
-0.000801437
-0.000838004
-0.00084508
-0.000823067
-0.000772307
-0.000693089
-0.000585662
-0.000450244
-0.000287035
-9.62383e-05
0.000121925
0.000367197
0.000639256
0.000937697
0.00126202
0.00161158
0.00198561
0.00238317
0.00280314
0.00324418
0.00370474
0.00418306
0.00467713
0.00518469
0.00570328
0.00623017
0.0067624
0.00729683
0.0078301
0.00835868
0.00887894
0.00938712
0.00987939
0.0103519
0.010801
0.0112228
0.0116137
0.0119705
0.01229
0.0125693
0.0128059
0.0129979
0.0131435
0.0132416
0.0132914
0.0132929
0.0132463
0.0131525
0.0130129
0.0128294
0.012604
0.0123396
0.0120389
0.0117053
0.0113421
0.0109527
0.0105406
0.0101092
0.00966164
0.00920056
0.00873144
0.00825897
0.00774615
0.00715887
0.0047944
0.00398547
0.00332699
0.002768
0.00224971
0.00177369
0.00134213
0.000953024
0.000604414
0.000294747
2.25782e-05
-0.000213465
-0.000414647
-0.00058212
-0.000716942
-0.000820062
-0.000892323
-0.000934461
-0.000947106
-0.000930788
-0.000885938
-0.000812908
-0.000711979
-0.000583375
-0.000427281
-0.000243861
-3.32825e-05
0.000204267
0.000468551
0.000759263
0.001076
0.00141824
0.00178532
0.00217642
0.00259052
0.0030264
0.00348262
0.00395749
0.0044491
0.00495527
0.00547358
0.00600133
0.00653561
0.00707326
0.0076109
0.00814497
0.00867176
0.00918744
0.00968806
0.0101697
0.0106284
0.0110602
0.0114615
0.0118286
0.0121581
0.0124471
0.0126928
0.012893
0.0130456
0.0131494
0.0132033
0.0132072
0.0131609
0.0130653
0.0129216
0.0127313
0.0124966
0.0122199
0.0119042
0.0115525
0.0111682
0.0107546
0.0103153
0.00985355
0.00937251
0.008875
0.0083668
0.00785302
0.00729302
0.00664958
0.00498411
0.00411842
0.00341528
0.0028201
0.00226976
0.0017657
0.00131004
0.000900318
0.000534136
0.00020952
-7.53824e-05
-0.000322326
-0.000532931
-0.000708671
-0.00085089
-0.00096079
-0.00103943
-0.00108773
-0.00110646
-0.00109626
-0.00105766
-0.000991053
-0.000896744
-0.000774961
-0.000625865
-0.000449581
-0.000246215
-1.58814e-05
0.000241273
0.000525038
0.000835119
0.00117111
0.00153245
0.00191845
0.0023282
0.00276058
0.00321425
0.00368764
0.00417889
0.0046859
0.00520629
0.00573742
0.00627637
0.00681998
0.00736484
0.00790734
0.00844369
0.00896994
0.00948205
0.00997591
0.0104474
0.0108924
0.0113071
0.0116875
0.0120301
0.0123315
0.0125889
0.0127996
0.0129615
0.0130729
0.0131327
0.0131403
0.0130955
0.0129989
0.0128514
0.0126545
0.0124102
0.0121209
0.0117893
0.0114186
0.011012
0.0105728
0.0101047
0.00961116
0.00909523
0.00855991
0.00801144
0.00745539
0.00684756
0.00614768
0.00511436
0.00419356
0.00344692
0.00281635
0.00223449
0.00170273
0.00122307
0.000792678
0.000408713
6.88117e-05
-0.000229257
-0.000487606
-0.000708187
-0.000892774
-0.00104298
-0.00116024
-0.00124581
-0.00130077
-0.00132604
-0.00132237
-0.00129032
-0.00123036
-0.0011428
-0.00102786
-0.000885682
-0.000716336
-0.000519867
-0.000296307
-4.57123e-05
0.00023181
0.000536073
0.000866785
0.00122352
0.00160568
0.00201248
0.00244292
0.00289576
0.0033695
0.0038624
0.0043724
0.00489718
0.00543412
0.00598032
0.00653259
0.0070875
0.00764138
0.00819032
0.00873028
0.00925706
0.0097664
0.010254
0.0107155
0.0111467
0.0115436
0.0119023
0.0122193
0.0124912
0.0127152
0.0128888
0.0130102
0.0130778
0.0130908
0.0130489
0.0129523
0.0128019
0.0125989
0.0123451
0.012043
0.0116952
0.0113046
0.0108747
0.0104089
0.00991084
0.00938406
0.00883187
0.00825742
0.00766747
0.00706809
0.00641157
0.00565456
0.00518032
0.00420603
0.00341705
0.00275191
0.00213917
0.00158013
0.00107674
0.00062575
0.000223943
-0.000131424
-0.000442937
-0.00071305
-0.000944022
-0.00113791
-0.00129658
-0.00142167
-0.00151464
-0.00157672
-0.00160894
-0.00161213
-0.00158694
-0.00153384
-0.00145317
-0.00134513
-0.00120982
-0.00104727
-0.000857439
-0.000640282
-0.000395756
-0.000123861
0.00017533
0.000501646
0.000854779
0.00123426
0.00163941
0.00206936
0.00252297
0.00299884
0.00349529
0.00401035
0.00454173
0.00508686
0.00564283
0.00620644
0.00677422
0.0073424
0.007907
0.00846384
0.00900856
0.00953671
0.0100437
0.0105251
0.0109764
0.0113933
0.0117715
0.0121071
0.0123967
0.012637
0.0128252
0.012959
0.0130368
0.0130574
0.0130201
0.012925
0.0127727
0.0125644
0.0123017
0.0119869
0.0116225
0.0112118
0.0107579
0.0102645
0.00973534
0.00917414
0.0085844
0.00796951
0.00733679
0.0066929
0.00598657
0.00517138
0.00517743
0.00415116
0.003321
0.00262216
0.00197923
0.00139343
0.000866653
0.000395271
-2.4316e-05
-0.000395202
-0.000720315
-0.00100243
-0.00124409
-0.00144763
-0.00161514
-0.00174848
-0.00184925
-0.00191884
-0.00195837
-0.00196876
-0.00195069
-0.00190468
-0.00183106
-0.00173
-0.00160156
-0.00144571
-0.00126233
-0.00105128
-0.000812414
-0.000545624
-0.000250859
7.18334e-05
0.000422273
0.000800115
0.00120482
0.00163562
0.00209148
0.00257112
0.00307294
0.00359503
0.00413516
0.00469078
0.005259
0.00583658
0.00642002
0.00700546
0.00758882
0.00816576
0.00873177
0.00928217
0.0098122
0.0103171
0.010792
0.0112324
0.0116337
0.0119916
0.0123023
0.0125621
0.012768
0.0129173
0.013008
0.0130385
0.013008
0.0129163
0.0127636
0.0125511
0.0122802
0.0119531
0.0115724
0.0111413
0.010663
0.0101412
0.00958
0.00898326
0.00835473
0.00769807
0.00702123
0.00633148
0.00557397
0.00469911
0.00510124
0.00402451
0.00315432
0.00242265
0.00175026
0.00113829
0.000588551
9.70634e-05
-0.000340143
-0.000726501
-0.00106527
-0.00135952
-0.00161208
-0.00182554
-0.0020022
-0.00214412
-0.00225304
-0.00233048
-0.00237766
-0.00239556
-0.0023849
-0.00234622
-0.00227982
-0.00218586
-0.00206434
-0.00191515
-0.0017381
-0.00153295
-0.00129943
-0.00103732
-0.000746444
-0.000426714
-7.8177e-05
0.000298956
0.000704275
0.00113714
0.00159664
0.00208158
0.00259047
0.00312147
0.0036724
0.00424075
0.00482363
0.0054178
0.00601966
0.00662532
0.00723056
0.00783089
0.00842162
0.00899784
0.00955455
0.0100867
0.0105891
0.0110568
0.0114851
0.0118691
0.0122046
0.0124877
0.0127147
0.0128828
0.0129894
0.0130327
0.0130115
0.0129253
0.0127742
0.0125589
0.012281
0.0119425
0.0115459
0.0110944
0.0105914
0.0100408
0.00944666
0.00881334
0.00814478
0.00744498
0.00672255
0.00598542
0.00517506
0.00423862
0.0049475
0.00382175
0.00291266
0.00214908
0.001448
0.000810482
0.00023827
-0.000272965
-0.000727553
-0.00112926
-0.00148165
-0.0017881
-0.0020517
-0.00227528
-0.00246134
-0.0026121
-0.00272949
-0.00281509
-0.00287024
-0.00289595
-0.00289299
-0.00286188
-0.00280292
-0.00271622
-0.00260172
-0.00245924
-0.00228847
-0.00208909
-0.00186071
-0.00160296
-0.00131555
-0.000998242
-0.000650944
-0.000273723
0.00013315
0.000569167
0.00103355
0.00152521
0.00204276
0.00258444
0.00314814
0.00373137
0.00433127
0.00494456
0.00556763
0.00619646
0.00682673
0.0074538
0.00807276
0.00867849
0.0092657
0.009829
0.010363
0.0108622
0.0113215
0.0117358
0.0121002
0.0124105
0.0126626
0.0128531
0.0129791
0.0130385
0.0130295
0.0129515
0.0128041
0.0125881
0.0123047
0.0119558
0.011544
0.0110724
0.0105447
0.00996484
0.0093372
0.00866632
0.00795653
0.00721217
0.00644256
0.00565635
0.00479117
0.00379084
0.00471205
0.00353872
0.00259187
0.00179728
0.00106829
0.000405891
-0.000188255
-0.000718826
-0.0011905
-0.00160737
-0.0019733
-0.00229194
-0.00256666
-0.00280049
-0.00299614
-0.00315601
-0.00328212
-0.00337619
-0.0034396
-0.00347343
-0.00347846
-0.00345521
-0.00340394
-0.00332471
-0.00321739
-0.00308172
-0.00291729
-0.00272365
-0.00250029
-0.00224671
-0.00196246
-0.00164716
-0.00130057
-0.000922604
-0.000513379
-7.32597e-05
0.00039711
0.000896775
0.00142444
0.00197846
0.00255678
0.00315696
0.00377615
0.00441109
0.00505808
0.00571304
0.00637153
0.00702873
0.00767953
0.00831857
0.00894027
0.0095389
0.0101087
0.0106438
0.0111386
0.0115875
0.0119854
0.0123273
0.0126087
0.0128258
0.0129752
0.0130542
0.0130609
0.0129941
0.0128532
0.0126387
0.0123517
0.0119939
0.0115679
0.0110769
0.0105247
0.00991539
0.00925364
0.00854431
0.00779207
0.00700166
0.00618316
0.00534596
0.00442372
0.00335673
0.00439084
0.00317135
0.00218786
0.00136318
0.000607105
-7.94821e-05
-0.000694993
-0.00124445
-0.00173287
-0.00216466
-0.00254399
-0.00287478
-0.00316065
-0.00340483
-0.00361024
-0.00377941
-0.0039145
-0.00401731
-0.00408929
-0.00413156
-0.00414489
-0.0041298
-0.00408651
-0.00401502
-0.00391512
-0.00378645
-0.00362849
-0.00344066
-0.00322233
-0.00297283
-0.00269157
-0.00237802
-0.00203175
-0.00165252
-0.0012403
-0.000795282
-0.000317965
0.000190834
0.000729946
0.00129782
0.0018925
0.00251159
0.00315228
0.00381129
0.00448489
0.00516893
0.00585883
0.00654961
0.00723596
0.00791223
0.00857256
0.00921086
0.00982094
0.0103966
0.0109317
0.0114201
0.0118562
0.0122345
0.01255
0.0127983
0.0129754
0.0130783
0.0131045
0.0130524
0.0129212
0.012711
0.0124226
0.0120578
0.011619
0.0111095
0.0105332
0.00989447
0.00919817
0.00844956
0.00765367
0.00681565
0.00594642
0.00505614
0.00407428
0.00293745
0.00397994
0.0027157
0.00169671
0.000842872
6.05234e-05
-0.00064954
-0.00128582
-0.00185368
-0.00235847
-0.00280492
-0.00319747
-0.00354033
-0.00383733
-0.00409194
-0.00430723
-0.00448589
-0.00463019
-0.00474202
-0.00482287
-0.0048739
-0.00489588
-0.0048893
-0.00485432
-0.0047909
-0.00469872
-0.00457731
-0.00442606
-0.00424423
-0.00403104
-0.00378569
-0.00350739
-0.00319545
-0.00284927
-0.00246844
-0.00205273
-0.00160218
-0.00111712
-0.000598211
-4.64872e-05
0.000536623
0.00114926
0.00178911
0.00245339
0.00313883
0.00384169
0.00455772
0.00528223
0.00601008
0.00673574
0.00745329
0.00815655
0.00883906
0.00949421
0.0101153
0.0106957
0.0112289
0.0117085
0.0121284
0.0124832
0.0127677
0.0129775
0.0131089
0.013159
0.0131257
0.0130078
0.012805
0.0125181
0.0121485
0.0116987
0.011172
0.0105723
0.00990433
0.00917321
0.00838456
0.00754381
0.00665658
0.00573464
0.00478898
0.00374466
0.00253438
0.00347551
0.00216793
0.00111457
0.000232512
-0.000575273
-0.00130809
-0.00196452
-0.00255028
-0.00307105
-0.00353185
-0.00393742
-0.00429222
-0.00460032
-0.00486539
-0.00509068
-0.005279
-0.00543274
-0.00555386
-0.0056439
-0.00570403
-0.00573503
-0.00573732
-0.00571106
-0.00565608
-0.00557201
-0.00545823
-0.00531402
-0.00513849
-0.00493069
-0.00468966
-0.00441444
-0.00410414
-0.00375798
-0.00337536
-0.00295586
-0.00249932
-0.0020059
-0.00147609
-0.000910754
-0.000311191
0.000320859
0.000983171
0.00167302
0.00238716
0.00312183
0.00387272
0.00463504
0.00540347
0.00617227
0.00693526
0.00768589
0.00841734
0.00912256
0.00979437
0.0104255
0.011009
0.0115376
0.0120049
0.0124046
0.012731
0.0129789
0.0131441
0.013223
0.0132131
0.0131127
0.0129212
0.012639
0.0122673
0.0118087
0.0112663
0.0106443
0.00994746
0.00918139
0.00835204
0.00746527
0.00652717
0.00555042
0.0045469
0.00343697
0.00214921
0.0028738
0.00152432
0.000437728
-0.000471617
-0.001304
-0.00205883
-0.00273479
-0.00333792
-0.00387425
-0.00434908
-0.00476744
-0.00513404
-0.00545319
-0.00572875
-0.00596412
-0.00616226
-0.00632565
-0.00645633
-0.00655589
-0.00662548
-0.00666588
-0.00667749
-0.00666037
-0.0066143
-0.00653878
-0.00643309
-0.00629635
-0.00612753
-0.0059255
-0.00568912
-0.00541724
-0.00510878
-0.00476276
-0.00437835
-0.00395493
-0.00349214
-0.00298993
-0.0024486
-0.00186885
-0.00125179
-0.000599048
8.72751e-05
0.000804531
0.00154952
0.00231847
0.00310703
0.00391031
0.00472285
0.00553867
0.00635132
0.00715392
0.00793924
0.00869976
0.00942776
0.0101155
0.0107551
0.011339
0.0118598
0.0123106
0.0126849
0.012977
0.0131818
0.0132951
0.0133138
0.0132357
0.0130598
0.012786
0.0124155
0.0119506
0.0113946
0.0107515
0.0100266
0.0092257
0.0083551
0.00742116
0.00643048
0.00539671
0.00433266
0.0031537
0.00178402
0.00217119
0.000781225
-0.000337448
-0.00127313
-0.00212926
-0.00290536
-0.00360022
-0.0042202
-0.00477164
-0.00526016
-0.00569106
-0.0060693
-0.00639942
-0.00668546
-0.00693099
-0.0071391
-0.00731237
-0.00745288
-0.00756227
-0.00764171
-0.00769194
-0.00771332
-0.00770584
-0.00766919
-0.00760276
-0.0075057
-0.00737697
-0.00721538
-0.00701964
-0.00678838
-0.00652028
-0.00621403
-0.00586842
-0.0054824
-0.00505514
-0.00458603
-0.00407482
-0.00352157
-0.00292678
-0.0022914
-0.00161687
-0.000905166
-0.000158827
0.000619009
0.00142459
0.00225356
0.00310091
0.00396105
0.00482779
0.00569442
0.0065537
0.00739798
0.00821925
0.00900925
0.00975956
0.0104617
0.0111074
0.0116884
0.0121971
0.0126261
0.012969
0.0132198
0.0133737
0.0134269
0.0133766
0.0132211
0.0129602
0.0125947
0.0121266
0.0115593
0.010897
0.010145
0.00930943
0.00839717
0.00741499
0.00637001
0.00527691
0.00414947
0.00289775
0.0014413
0.00136414
-6.4859e-05
-0.00121447
-0.00217555
-0.00305458
-0.0038512
-0.00456431
-0.00520058
-0.00576669
-0.00626854
-0.00671172
-0.00710142
-0.00744241
-0.00773892
-0.00799467
-0.00821288
-0.00839622
-0.00854684
-0.0086664
-0.00875607
-0.00881657
-0.00884822
-0.00885092
-0.00882427
-0.00876754
-0.00867973
-0.00855966
-0.00840596
-0.00821713
-0.00799163
-0.00772789
-0.00742437
-0.00707965
-0.00669242
-0.00626159
-0.00578632
-0.00526609
-0.00470075
-0.00409055
-0.00343622
-0.00273903
-0.00200077
-0.00122386
-0.000411335
0.000433094
0.00130506
0.0021995
0.0031107
0.00403228
0.00495724
0.005878
0.00678649
0.0076742
0.00853226
0.00935162
0.0101231
0.0108375
0.011486
0.0120598
0.0125509
0.0129518
0.0132558
0.0134572
0.0135514
0.0135349
0.0134056
0.0131625
0.0128063
0.0123388
0.0117631
0.0110837
0.0103059
0.00943629
0.00848215
0.00745073
0.00634972
0.00519488
0.00400104
0.00267257
0.00112408
0.00044924
-0.00101734
-0.00219673
-0.00318226
-0.00408335
-0.00489974
-0.00563044
-0.00628246
-0.00686277
-0.00737759
-0.00783276
-0.00823372
-0.00858546
-0.00889239
-0.00915841
-0.00938683
-0.00958042
-0.00974141
-0.00987147
-0.00997177
-0.010043
-0.0100854
-0.0100989
-0.0100829
-0.0100365
-0.00995868
-0.00984801
-0.00970295
-0.00952181
-0.00930283
-0.0090442
-0.00874414
-0.00840097
-0.00801311
-0.00757921
-0.00709815
-0.00656914
-0.00599175
-0.00536599
-0.00469235
-0.00397184
-0.00320608
-0.00239732
-0.00154848
-0.000663172
0.000254251
0.0011987
0.00216434
0.00314462
0.00413229
0.00511941
0.0060975
0.00705749
0.00798995
0.0088851
0.009733
0.0105236
0.0112472
0.0118941
0.0124552
0.0129221
0.0132871
0.0135437
0.0136862
0.0137105
0.0136136
0.0133942
0.0130524
0.0125897
0.0120091
0.0113151
0.0105132
0.00961046
0.00861441
0.00753287
0.00637412
0.00515507
0.00389165
0.00248217
0.000835984
-0.000576786
-0.0020795
-0.00328752
-0.00429657
-0.00521886
-0.00605428
-0.00680193
-0.00746913
-0.00806318
-0.00859057
-0.00905741
-0.00946941
-0.00983174
-0.010149
-0.0104253
-0.010664
-0.010868
-0.0110396
-0.0111805
-0.0112918
-0.0113743
-0.011428
-0.0114528
-0.0114481
-0.0114129
-0.0113458
-0.0112453
-0.0111098
-0.0109372
-0.0107257
-0.0104731
-0.0101774
-0.00983659
-0.0094489
-0.00901264
-0.00852641
-0.00798909
-0.00739997
-0.00675876
-0.00606567
-0.00532146
-0.00452751
-0.00368587
-0.00279929
-0.00187128
-0.000906116
9.10961e-05
0.00111445
0.00215724
0.00321196
0.00427037
0.00532351
0.00636184
0.00737525
0.00835326
0.0092851
0.0101599
0.0109668
0.0116952
0.012335
0.0128766
0.0133113
0.0136313
0.0138303
0.013903
0.0138458
0.0136566
0.0133349
0.0128819
0.0123005
0.0115951
0.0107714
0.00983661
0.00879887
0.00766647
0.00644833
0.00516256
0.00382625
0.00233126
0.000581306
-0.00171709
-0.00325448
-0.00449001
-0.00552164
-0.00646431
-0.00731801
-0.00808196
-0.00876378
-0.00937108
-0.00991063
-0.0103888
-0.0108116
-0.0111843
-0.0115118
-0.0117983
-0.0120474
-0.0122619
-0.0124443
-0.0125963
-0.012719
-0.0128131
-0.0128787
-0.0129155
-0.0129228
-0.0128994
-0.0128439
-0.0127547
-0.0126296
-0.0124666
-0.0122635
-0.012018
-0.0117277
-0.0113904
-0.0110039
-0.0105662
-0.0100756
-0.00953071
-0.00893042
-0.00827415
-0.00756176
-0.00679374
-0.00597119
-0.0050959
-0.00417043
-0.00319811
-0.00218316
-0.00113061
-4.64186e-05
0.00106257
0.00218865
0.00332324
0.00445699
0.00557979
0.00668092
0.00774913
0.00877279
0.00974007
0.0106391
0.0114581
0.0121859
0.0128116
0.0133253
0.0137182
0.0139826
0.0141123
0.0141028
0.013951
0.013656
0.0132185
0.0126411
0.011928
0.0110851
0.01012
0.00904106
0.00785729
0.00657818
0.00522315
0.00381054
0.00222526
0.000365097
-0.00297465
-0.00454532
-0.00580724
-0.00686055
-0.00782279
-0.00869404
-0.00947363
-0.0101695
-0.0107895
-0.0113408
-0.01183
-0.0122632
-0.0126461
-0.0129837
-0.0132803
-0.0135396
-0.0137648
-0.0139581
-0.0141214
-0.0142558
-0.014362
-0.01444
-0.0144894
-0.0145094
-0.0144987
-0.0144557
-0.0143785
-0.014265
-0.0141127
-0.0139193
-0.013682
-0.0133984
-0.0130657
-0.0126816
-0.0122436
-0.0117498
-0.0111983
-0.0105877
-0.009917
-0.00918577
-0.00839412
-0.00754284
-0.00663343
-0.0056682
-0.00465028
-0.00358371
-0.00247348
-0.00132554
-0.000146809
0.00105481
0.00227045
0.00349035
0.00470387
0.00589965
0.00706564
0.00818934
0.00925788
0.0102583
0.0111776
0.0120033
0.0127233
0.0133263
0.0138021
0.0141418
0.0143381
0.0143852
0.0142793
0.0140185
0.013603
0.013035
0.0123186
0.0114599
0.0104664
0.00934723
0.00811178
0.00677026
0.00534345
0.00385101
0.00217047
0.000193256
-0.00435233
-0.00595489
-0.00724213
-0.00831626
-0.00929727
-0.0101854
-0.01098
-0.0116893
-0.0123215
-0.012884
-0.0133837
-0.013827
-0.0142197
-0.0145671
-0.0148737