/*--------------------------------*- C++ -*----------------------------------*\
  =========                 |
  \\      /  F ield         | OpenFOAM: The Open Source CFD Toolbox
   \\    /   O peration     | Website:  https://openfoam.org
    \\  /    A nd           | Version:  7
     \\/     M anipulation  |
\*---------------------------------------------------------------------------*/
FoamFile
{
    version     2.0;
    format      ascii;
    class       volScalarField;
    location    "2.4";
    object      p;
}
// * * * * * * * * * * * * * * * * * * * * * * * * * * * * * * * * * * * * * //

dimensions      [0 2 -2 0 0 0 0];

internalField   nonuniform List<scalar> 
6400
(
1.1148e-06
-1.32261e-06
-6.54351e-05
-0.000187968
-0.000353912
-0.000549873
-0.000764175
-0.000986939
-0.00121007
-0.00142713
-0.00163303
-0.00182384
-0.00199655
-0.00214888
-0.00227914
-0.0023861
-0.00246888
-0.00252686
-0.00255963
-0.00256689
-0.00254847
-0.00250424
-0.00243415
-0.00233818
-0.00221635
-0.00206874
-0.0018955
-0.00169683
-0.00147305
-0.00122458
-0.000952001
-0.00065603
-0.000337582
2.22781e-06
0.000362063
0.000740353
0.00113528
0.00154477
0.00196651
0.0023979
0.00283613
0.00327814
0.00372069
0.00416033
0.0045935
0.00501651
0.00542562
0.0058171
0.00618725
0.00653248
0.00684938
0.00713475
0.00738571
0.0075997
0.00777458
0.00790869
0.00800085
0.00805044
0.00805742
0.00802233
0.00794636
0.0078313
0.00767957
0.0074942
0.00727881
0.00703758
0.00677525
0.00649706
0.00620872
0.0059164
0.0056267
0.0053466
0.00508346
0.00484492
0.00463883
0.00447293
0.00435411
0.00428751
0.00427507
0.00430398
4.92721e-06
1.87884e-06
-5.47801e-05
-0.000158662
-0.000297622
-0.000462174
-0.000643362
-0.000833286
-0.00102508
-0.00121305
-0.00139254
-0.00155984
-0.00171198
-0.00184666
-0.0019621
-0.00205695
-0.00213019
-0.00218108
-0.00220907
-0.00221376
-0.00219487
-0.00215219
-0.00208561
-0.00199504
-0.0018805
-0.00174203
-0.00157977
-0.00139391
-0.00118478
-0.000952786
-0.000698486
-0.000422589
-0.000125978
0.00019028
0.000524912
0.000876432
0.00124313
0.00162306
0.00201405
0.00241371
0.00281941
0.00322834
0.00363748
0.00404369
0.00444367
0.00483407
0.00521145
0.00557242
0.00591361
0.00623177
0.0065238
0.00678683
0.00701826
0.00721582
0.00737761
0.00750217
0.00758849
0.00763609
0.00764499
0.00761579
0.00754963
0.00744824
0.0073139
0.00714944
0.00695824
0.00674418
0.0065116
0.00626531
0.00601053
0.00575282
0.0054981
0.00525251
0.00502244
0.00481433
0.00463458
0.0044892
0.00438309
0.00431975
0.00430372
0.00433282
6.95156e-05
5.84979e-05
1.36564e-06
-9.47146e-05
-0.000219707
-0.000366098
-0.000526823
-0.000695327
-0.000865814
-0.00103334
-0.00119376
-0.00134367
-0.0014803
-0.00160146
-0.0017054
-0.00179076
-0.00185649
-0.00190178
-0.00192605
-0.00192882
-0.00190975
-0.00186859
-0.00180517
-0.00171939
-0.00161121
-0.00148066
-0.00132784
-0.00115294
-0.000956246
-0.000738148
-0.000499177
-0.000240004
3.85349e-05
0.000335427
0.000649471
0.000979262
0.00132319
0.00167943
0.00204593
0.00242045
0.00280053
0.00318352
0.00356663
0.00394691
0.00432127
0.00468659
0.00503968
0.00537737
0.00569653
0.00599414
0.00626734
0.00651348
0.00673015
0.00691527
0.00706711
0.00718435
0.00726609
0.00731193
0.00732194
0.00729672
0.00723741
0.00714566
0.00702363
0.00687403
0.00670001
0.00650522
0.00629372
0.00606996
0.00583875
0.00560519
0.00537462
0.00515259
0.00494471
0.00475661
0.00459376
0.00446125
0.00436316
0.00430275
0.00428729
0.0043209
0.000193403
0.000162831
9.64217e-05
-6.39035e-07
-0.000121228
-0.000259099
-0.000408399
-0.000563698
-0.000720137
-0.000873495
-0.00102018
-0.00115718
-0.00128202
-0.00139269
-0.00148756
-0.00156537
-0.0016251
-0.00166596
-0.00168734
-0.00168877
-0.00166988
-0.00163038
-0.00157008
-0.00148884
-0.00138659
-0.00126333
-0.00111914
-0.000954155
-0.000768632
-0.000562924
-0.000337514
-9.30234e-05
0.00016977
0.000449923
0.000746308
0.00105761
0.00138231
0.00171869
0.00206482
0.00241858
0.00277766
0.00313955
0.00350162
0.00386105
0.00421496
0.00456037
0.00489428
0.00521367
0.00551559
0.00579719
0.00605576
0.00628878
0.00649401
0.00666947
0.00681354
0.00692499
0.00700299
0.00704719
0.00705768
0.00703506
0.00698044
0.00689539
0.00678202
0.00664289
0.006481
0.00629979
0.0061031
0.00589509
0.00568022
0.00546323
0.00524902
0.00504261
0.00484908
0.00467346
0.00452061
0.00439513
0.00430077
0.00424093
0.00422394
0.00425604
0.000362879
0.00030351
0.000220959
0.000117017
-4.98453e-06
-0.000139929
-0.00028297
-0.000429728
-0.000576235
-0.000718988
-0.000854959
-0.000981587
-0.00109673
-0.00119863
-0.00128586
-0.00135725
-0.0014119
-0.00144907
-0.00146818
-0.00146875
-0.00145041
-0.00141288
-0.00135592
-0.00127938
-0.00118316
-0.00106722
-0.000931582
-0.000776364
-0.000601762
-0.00040808
-0.000195743
3.46921e-05
0.000282517
0.000546866
0.000826696
0.00112078
0.00142771
0.00174586
0.00207343
0.0024084
0.0027486
0.00309165
0.00343503
0.0037761
0.00411209
0.00444017
0.00475745
0.00506108
0.00534822
0.00561615
0.00586226
0.00608416
0.00627968
0.00644694
0.0065844
0.00669087
0.00676558
0.00680818
0.00681879
0.00679799
0.00674685
0.00666689
0.00656013
0.006429
0.0062764
0.00610557
0.00592014
0.00572403
0.00552141
0.00531666
0.00511432
0.00491897
0.00473523
0.00456763
0.00442056
0.00429817
0.00420398
0.00414137
0.00411817
0.00414043
0.00056552
0.000471592
0.000367827
0.000252306
0.000124172
-1.24588e-05
-0.000153609
-0.00029586
-0.000436081
-0.00057146
-0.00069954
-0.000818223
-0.000925738
-0.00102062
-0.00110165
-0.00116786
-0.00121845
-0.00125276
-0.00127027
-0.00127055
-0.00125323
-0.00121802
-0.00116468
-0.00109304
-0.00100295
-0.000894345
-0.000767203
-0.000621583
-0.000457627
-0.000275576
-7.57866e-05
0.000141256
0.000374925
0.00062444
0.00088885
0.00116702
0.00145765
0.00175921
0.00207002
0.00238817
0.00271159
0.00303803
0.00336509
0.00369022
0.00401078
0.00432404
0.00462724
0.00491759
0.00519236
0.00544891
0.00568472
0.00589746
0.00608502
0.00624557
0.00637761
0.00647997
0.00655189
0.00659305
0.00660353
0.00658391
0.0065352
0.00645888
0.00635688
0.00623154
0.00608562
0.00592222
0.00574479
0.00555702
0.00536285
0.00516636
0.00497177
0.00478329
0.00460515
0.00444145
0.0042962
0.00417313
0.00407557
0.0040067
0.00397289
0.00397869
0.000790299
0.000658463
0.000530064
0.000399363
0.000261308
0.000119173
-2.37949e-05
-0.000165047
-0.000302227
-0.000433174
-0.000555991
-0.000669043
-0.000770949
-0.000860552
-0.000936898
-0.000999201
-0.00104681
-0.00107919
-0.00109588
-0.00109649
-0.00108071
-0.00104824
-0.000998846
-0.00093232
-0.000848499
-0.000747262
-0.000628542
-0.00049234
-0.000338731
-0.000167889
1.99082e-05
0.000224259
0.000444624
0.000680314
0.000930475
0.00119408
0.00146991
0.00175656
0.00205243
0.00235573
0.0026645
0.00297658
0.00328965
0.00360129
0.00390892
0.00420989
0.00450151
0.00478108
0.00504591
0.0052934
0.00552109
0.00572667
0.00590805
0.00606343
0.0061913
0.00629051
0.00636028
0.00640026
0.00641052
0.00639159
0.00634444
0.00627049
0.00617159
0.00605001
0.00590838
0.0057497
0.00557722
0.0053945
0.00520524
0.00501329
0.00482259
0.00463706
0.0044606
0.00429697
0.00414981
0.00402253
0.00391822
0.00383987
0.00379177
0.00377647
0.0010275
0.0008561
0.000700851
0.000552382
0.000401565
0.000250971
0.000103237
-3.98745e-05
-0.000176716
-0.00030574
-0.000425584
-0.000535074
-0.000633216
-0.00071918
-0.000792273
-0.000851922
-0.000897643
-0.000929021
-0.000945694
-0.000947341
-0.000933673
-0.000904423
-0.000859348
-0.000798224
-0.000720856
-0.000627076
-0.000516766
-0.000389859
-0.000246364
-8.63727e-05
8.99202e-05
0.000282204
0.000490033
0.000712819
0.000949805
0.00120007
0.00146249
0.00173576
0.0020184
0.00230869
0.00260477
0.00290458
0.00320587
0.00350628
0.00380331
0.00409436
0.0043768
0.00464793
0.00490512
0.00514578
0.00536744
0.00556781
0.00574478
0.00589654
0.00602155
0.00611862
0.00618696
0.00622617
0.00623628
0.00621776
0.00617153
0.00609895
0.0060018
0.00588227
0.00574289
0.00558655
0.0054164
0.00523581
0.00504833
0.00485763
0.0046674
0.00448133
0.00430305
0.00413606
0.00398366
0.00384898
0.00373492
0.00364427
0.00357902
0.00353949
0.00126867
0.00105712
0.000873742
0.000705747
0.000540114
0.000378839
0.000224045
7.67908e-05
-6.19283e-05
-0.000191138
-0.000309981
-0.00041773
-0.000513773
-0.000597604
-0.000668802
-0.000727009
-0.000771916
-0.000803244
-0.000820735
-0.00082414
-0.000813213
-0.000787712
-0.000747393
-0.000692015
-0.000621347
-0.000535177
-0.000433326
-0.000315661
-0.000182111
-3.26854e-05
0.000132515
0.000313274
0.00050925
0.000719955
0.000944738
0.00118278
0.00143306
0.00169438
0.00196534
0.00224433
0.00252955
0.00281902
0.00311058
0.00340189
0.00369052
0.0039739
0.0042494
0.00451435
0.00476612
0.00500209
0.00521978
0.00541686
0.00559119
0.0057409
0.00586441
0.00596047
0.00602823
0.00606723
0.00607744
0.00605926
0.00601356
0.00594162
0.00584516
0.00572629
0.00558746
0.00543146
0.00526134
0.00508035
0.00489192
0.00469955
0.00450676
0.00431706
0.00413387
0.00396044
0.00379985
0.00365495
0.00352853
0.00342319
0.00333858
0.0032728
0.00150649
0.00125486
0.00104273
0.000854091
0.000672215
0.000498629
0.000335025
0.000181824
3.94266e-05
-9.17259e-05
-0.000211256
-0.000318861
-0.000414301
-0.000497386
-0.00056796
-0.000625887
-0.000671035
-0.000703266
-0.000722428
-0.00072835
-0.000720834
-0.000699661
-0.000664588
-0.000615355
-0.000551696
-0.000473349
-0.000380072
-0.00027166
-0.000147959
-8.88533e-06
0.000145556
0.000315254
0.000499972
0.000699328
0.000912782
0.00113961
0.00137892
0.00162959
0.00189031
0.00215958
0.00243565
0.00271662
0.00300036
0.00328461
0.00356693
0.00384477
0.00411551
0.00437647
0.00462497
0.00485837
0.00507414
0.00526987
0.00544336
0.00559268
0.00571614
0.00581244
0.00588062
0.00592015
0.00593091
0.00591324
0.00586792
0.00579616
0.00569961
0.00558029
0.00544061
0.00528326
0.00511122
0.00492766
0.00473587
0.00453926
0.00434123
0.00414514
0.00395425
0.00377165
0.00360024
0.00344264
0.00330159
0.00317956
0.00307394
0.00298067
0.00173449
0.00144327
0.00120223
0.000992314
0.000793263
0.000606217
0.000432501
0.000271959
0.000124441
-1.0105e-05
-0.000131754
-0.000240606
-0.000336776
-0.000420378
-0.000491516
-0.000550269
-0.000596685
-0.000630766
-0.000652466
-0.000661692
-0.000658293
-0.000642073
-0.000612788
-0.000570157
-0.000513876
-0.000443631
-0.000359113
-0.000260038
-0.000146164
-1.73104e-05
0.000126623
0.000285633
0.000459594
0.000648237
0.000851132
0.00106767
0.00129705
0.00153826
0.00179008
0.00205108
0.00231959
0.00259377
0.00287152
0.00315062
0.00342863
0.00370301
0.0039711
0.0042302
0.00447757
0.00471052
0.00492641
0.00512278
0.00529732
0.00544797
0.00557297
0.00567088
0.00574066
0.00578165
0.00579365
0.00577688
0.00573205
0.00566028
0.00556313
0.00544258
0.00530095
0.00514088
0.00496528
0.00477725
0.00458003
0.00437694
0.00417128
0.00396634
0.00376527
0.00357106
0.00338646
0.00321398
0.00305632
0.00291596
0.00278805
0.00266652
0.00194688
0.00161682
0.00134704
0.00111558
0.000898809
0.000697539
0.000512777
0.00034384
0.000190067
5.0942e-05
-7.40297e-05
-0.00018533
-0.00028341
-0.000368676
-0.00044148
-0.000502113
-0.000550793
-0.00058766
-0.000612774
-0.000626112
-0.000627571
-0.000616972
-0.000594068
-0.000558555
-0.000510088
-0.000448295
-0.000372795
-0.000283221
-0.000179237
-6.05575e-05
7.30253e-05
0.000221623
0.000385226
0.000563684
0.000756681
0.00096372
0.0011841
0.00141693
0.00166106
0.00191514
0.00217757
0.00244655
0.00272005
0.00299582
0.00327144
0.00354436
0.00381187
0.00407122
0.0043196
0.00455421
0.00477234
0.00497139
0.00514893
0.00530279
0.00543104
0.00553213
0.00560487
0.00564847
0.00566261
0.0056474
0.00560342
0.00553172
0.00543378
0.00531149
0.00516712
0.00500325
0.00482275
0.00462868
0.00442422
0.00421267
0.0039973
0.00378132
0.00356785
0.00335984
0.00315995
0.00297062
0.00279463
0.00263449
0.00248327
0.00233297
0.00213838
0.0017704
0.00147229
0.00121929
0.000984558
0.000768605
0.000572163
0.000394056
0.000233148
8.84899e-05
-4.08099e-05
-0.000155592
-0.000256625
-0.000344593
-0.000420087
-0.000483598
-0.000535507
-0.000576087
-0.000605495
-0.000623775
-0.000630864
-0.000626598
-0.000610722
-0.000582905
-0.000542755
-0.000489837
-0.000423696
-0.000343874
-0.000249933
-0.000141481
-1.81936e-05
0.00012016
0.000273694
0.000442378
0.000626017
0.000824231
0.00103643
0.00126182
0.00149934
0.00174773
0.00200546
0.00227075
0.0025416
0.00281579
0.00309088
0.00336429
0.00363325
0.00389495
0.00414647
0.00438492
0.00460745
0.00481131
0.00499395
0.005153
0.0052864
0.00539241
0.00546968
0.00551728
0.00553472
0.00552197
0.00547951
0.00540826
0.0053096
0.00518537
0.00503775
0.00486931
0.00468285
0.00448143
0.00426823
0.00404651
0.00381957
0.00359061
0.00336276
0.00313896
0.00292188
0.00271393
0.00251804
0.00233686
0.00216144
0.00198195
0.00230414
0.00189927
0.0015734
0.00129909
0.00104637
0.000815515
0.000606995
0.000419173
0.000250463
9.95099e-05
-3.4952e-05
-0.000154103
-0.000259011
-0.000350624
-0.00042976
-0.000497097
-0.000553174
-0.000598383
-0.00063297
-0.000657042
-0.000670567
-0.000673391
-0.000665245
-0.000645765
-0.000614508
-0.000570972
-0.000514617
-0.000444891
-0.000361249
-0.000263184
-0.00015025
-2.20888e-05
0.00012154
0.000280735
0.000455427
0.000645358
0.000850056
0.00106882
0.0013007
0.00154451
0.00179876
0.00206175
0.0023315
0.00260577
0.00288212
0.00315792
0.00343035
0.00369649
0.00395332
0.00419782
0.00442699
0.00463793
0.00482787
0.00499428
0.0051349
0.0052478
0.00533142
0.00538465
0.00540681
0.00539773
0.00535773
0.00528759
0.00518862
0.00506253
0.00491147
0.00473796
0.00454478
0.00433498
0.00411177
0.00387844
0.00363831
0.00339464
0.00315062
0.00290923
0.00267321
0.00244502
0.00222779
0.00202437
0.00182392
0.0016148
0.00243964
0.00199898
0.00164604
0.00135078
0.00108024
0.000834457
0.000613653
0.000415755
0.000238753
8.09056e-05
-5.94081e-05
-0.000183689
-0.000293291
-0.000389411
-0.000473078
-0.00054515
-0.000606308
-0.000657054
-0.000697716
-0.00072845
-0.000749252
-0.00075997
-0.000760315
-0.000749883
-0.000728174
-0.000694612
-0.000648568
-0.000589386
-0.000516409
-0.000429008
-0.000326609
-0.000208721
-7.4968e-05
7.48838e-05
0.000240899
0.000422945
0.000620674
0.000833493
0.00106056
0.00130074
0.00155266
0.00181463
0.00208469
0.00236063
0.00263997
0.00292003
0.00319791
0.0034706
0.00373495
0.00398779
0.00422594
0.00444631
0.00464594
0.00482206
0.00497219
0.00509416
0.00518621
0.00524697
0.00527559
0.00527169
0.00523539
0.00516737
0.00506878
0.00494125
0.00478686
0.00460808
0.00440769
0.00418877
0.00395454
0.00370837
0.00345364
0.00319373
0.00293191
0.00267129
0.0024147
0.00216474
0.0019248
0.00169799
0.00147162
0.00123233
0.0025406
0.00206532
0.0016861
0.00137038
0.00108232
0.000821723
0.000588578
0.000380394
0.000194752
2.95433e-05
-0.000117193
-0.000247263
-0.000362292
-0.000463712
-0.00055275
-0.00063043
-0.000697564
-0.000754753
-0.000802394
-0.000840688
-0.000869648
-0.000889115
-0.000898775
-0.000898178
-0.000886758
-0.000863857
-0.000828751
-0.000780675
-0.000718851
-0.000642521
-0.000550976
-0.000443584
-0.000319826
-0.000179325
-2.18756e-05
0.000152527
0.000343663
0.000551058
0.000773972
0.00101138
0.00126194
0.00152405
0.00179576
0.00207486
0.00235885
0.00264499
0.0029303
0.00321166
0.00348578
0.00374931
0.00399889
0.00423121
0.00444306
0.00463145
0.00479361
0.00492712
0.00502994
0.00510046
0.00513758
0.00514067
0.00510969
0.00504511
0.00494794
0.00481971
0.00466241
0.00447848
0.0042707
0.00404215
0.00379615
0.00353614
0.00326562
0.00298811
0.00270701
0.00242562
0.00214695
0.00187373
0.00160972
0.00135835
0.00110511
0.000834918
0.00260298
0.00209429
0.00168965
0.00135406
0.00104889
0.000773705
0.000528285
0.000309723
0.00011521
-5.77206e-05
-0.000211354
-0.000347791
-0.000468911
-0.000576369
-0.00067158
-0.000755716
-0.000829708
-0.000894248
-0.000949793
-0.000996574
-0.00103462
-0.00106375
-0.00108362
-0.00109372
-0.00109342
-0.00108197
-0.00105855
-0.00102226
-0.00097221
-0.000907501
-0.000827279
-0.000730764
-0.000617285
-0.000486311
-0.000337487
-0.000170661
1.40839e-05
0.000216406
0.000435676
0.000670966
0.000921028
0.00118429
0.00145886
0.00174252
0.00203274
0.00232674
0.00262145
0.00291361
0.00319979
0.00347646
0.00374003
0.00398696
0.00421378
0.00441719
0.00459416
0.00474194
0.0048582
0.00494103
0.00498903
0.00500132
0.00497761
0.00491816
0.00482382
0.00469597
0.00453653
0.00434789
0.00413281
0.00389445
0.00363617
0.00336154
0.00307422
0.0027779
0.00247619
0.00217261
0.00187037
0.00157246
0.00128301
0.00100585
0.000724658
0.000422617
0.00262289
0.00208207
0.00165294
0.00129814
0.000976349
0.00068691
0.000429376
0.000200442
-3.08588e-06
-0.000184016
-0.000344949
-0.000488265
-0.000616089
-0.000730283
-0.000832436
-0.000923859
-0.00100559
-0.0010784
-0.00114279
-0.00119903
-0.00124713
-0.0012869
-0.00131794
-0.0013397
-0.00135146
-0.00135237
-0.00134148
-0.00131781
-0.0012803
-0.00122792
-0.00115965
-0.00107457
-0.000971831
-0.000850748
-0.0007108
-0.000551676
-0.00037331
-0.000175903
4.00451e-05
0.000273715
0.000523949
0.000789246
0.00106775
0.00135725
0.00165522
0.00195879
0.00226482
0.00256992
0.0028705
0.00316283
0.00344309
0.00370745
0.00395217
0.00417362
0.00436844
0.00453354
0.00466623
0.00476427
0.00482591
0.00484998
0.00483589
0.00478367
0.00469394
0.00456796
0.00440751
0.00421493
0.00399299
0.00374488
0.00347408
0.00318429
0.00287936
0.00256318
0.00223965
0.00191252
0.00158529
0.00126124
0.000944945
0.000640675
0.000330286
-4.80193e-06
0.00259663
0.00202502
0.00157238
0.0011991
0.000861258
0.000557967
0.000288554
4.93233e-05
-0.000163293
-0.000352438
-0.000521017
-0.000671677
-0.000806778
-0.000928377
-0.00103822
-0.00113776
-0.00122811
-0.00131013
-0.00138435
-0.00145104
-0.00151023
-0.00156168
-0.00160496
-0.00163943
-0.00166428
-0.00167856
-0.00168122
-0.00167113
-0.00164708
-0.0016079
-0.0015524
-0.0014795
-0.00138816
-0.00127754
-0.00114692
-0.000995841
-0.000824056
-0.000631615
-0.000418875
-0.00018653
6.43681e-05
0.000332398
0.000615758
0.000912265
0.00121937
0.00153416
0.00185341
0.00217359
0.00249095
0.00280153
0.00310128
0.00338606
0.00365182
0.00389458
0.00411058
0.00429637
0.00444884
0.00456537
0.00464383
0.00468267
0.00468099
0.00463851
0.00455563
0.0044334
0.00427347
0.0040781
0.00385007
0.00359261
0.00330931
0.00300405
0.00268089
0.00234399
0.00199751
0.00164556
0.00129195
0.000940291
0.000595672
0.000262865
-7.81486e-05
-0.000447767
0.00252066
0.00191964
0.00144456
0.00105357
0.000700311
0.000383631
0.000102632
-0.000146765
-0.000368492
-0.000566023
-0.000742553
-0.000900989
-0.00104391
-0.00117357
-0.00129185
-0.00140032
-0.0015002
-0.00159238
-0.00167743
-0.00175565
-0.00182702
-0.00189128
-0.00194793
-0.00199626
-0.00203536
-0.00206417
-0.00208152
-0.00208612
-0.00207664
-0.00205171
-0.00201
-0.00195021
-0.00187116
-0.00177178
-0.00165119
-0.00150872
-0.00134395
-0.00115676
-0.000947349
-0.000716257
-0.000464415
-0.000193146
9.58165e-05
0.000400329
0.00071784
0.0010454
0.0013797
0.00171708
0.00205362
0.00238513
0.00270728
0.00301564
0.00330578
0.00357336
0.00381419
0.00402437
0.00420037
0.00433908
0.00443796
0.00449505
0.00450903
0.00447929
0.00440594
0.00428979
0.00413234
0.00393575
0.00370278
0.0034367
0.00314123
0.00282045
0.00247865
0.00212029
0.00174988
0.00137189
0.000990518
0.000609755
0.000235262
-0.00012764
-0.000500909
-0.00090684
0.00239158
0.00176264
0.0012662
0.000858365
0.000490353
0.00016079
-0.000131457
-0.000390847
-0.000621673
-0.000827725
-0.00101248
-0.00117911
-0.00133038
-0.00146874
-0.0015962
-0.00171444
-0.00182476
-0.00192809
-0.00202504
-0.00211589
-0.0022006
-0.00227888
-0.00235013
-0.00241358
-0.00246822
-0.00251286
-0.00254618
-0.00256677
-0.00257312
-0.00256371
-0.00253699
-0.0024915
-0.00242583
-0.00233873
-0.00222911
-0.00209608
-0.00193903
-0.00175763
-0.00155192
-0.00132226
-0.00106943
-0.000794645
-0.000499541
-0.000186203
0.000142831
0.00048459
0.000835686
0.00119234
0.00155045
0.0019056
0.00225318
0.00258842
0.00290652
0.00320269
0.00347229
0.00371094
0.0039146
0.00407965
0.00420303
0.0042823
0.00431571
0.00430223
0.00424161
0.00413439
0.00398186
0.00378606
0.0035497
0.00327611
0.00296913
0.00263304
0.00227242
0.00189205
0.00149684
0.00109166
0.00068116
0.000269758
-0.000136255
-0.000530947
-0.000938317
-0.00138266
0.00220618
0.00155085
0.00103423
0.000610422
0.00022838
-0.000113516
-0.00041664
-0.000685823
-0.000925708
-0.0011404
-0.00133365
-0.00150885
-0.00166901
-0.0018167
-0.00195409
-0.00208296
-0.00220466
-0.00232018
-0.00243013
-0.00253479
-0.00263408
-0.00272765
-0.00281485
-0.0028948
-0.00296637
-0.00302827
-0.00307904
-0.00311708
-0.00314074
-0.00314829
-0.00313801
-0.00310822
-0.0030573
-0.00298377
-0.00288631
-0.00276383
-0.00261547
-0.00244071
-0.00223935
-0.00201157
-0.001758
-0.00147968
-0.00117813
-0.00085537
-0.000513885
-0.000156658
0.000212865
0.000590796
0.000972848
0.00135439
0.0017305
0.00209607
0.00244587
0.00277466
0.00307731
0.00334887
0.00358474
0.00378073
0.0039332
0.00403915
0.0040963
0.00410314
0.00405902
0.00396412
0.00381949
0.00362699
0.00338927
0.00310969
0.00279222
0.00244136
0.00206197
0.00165924
0.00123848
0.000805048
0.000364058
-7.9563e-05
-0.000518836
-0.000947165
-0.00139071
-0.00187587
0.00196141
0.0012813
0.000745727
0.000306874
-8.84415e-05
-0.000442095
-0.000755698
-0.00103445
-0.00128334
-0.00150676
-0.00170875
-0.00189293
-0.00206249
-0.00222017
-0.00236826
-0.00250863
-0.00264269
-0.00277147
-0.00289558
-0.00301527
-0.00313046
-0.0032407
-0.00334529
-0.00344323
-0.00353329
-0.00361404
-0.00368386
-0.00374101
-0.00378364
-0.00380984
-0.00381767
-0.00380523
-0.00377068
-0.00371229
-0.0036285
-0.00351797
-0.0033796
-0.00321261
-0.00301657
-0.00279146
-0.00253767
-0.00225609
-0.00194808
-0.00161555
-0.00126092
-0.000887146
-0.000497723
-9.66319e-05
0.000311677
0.000722338
0.00113014
0.00152959
0.00191504
0.00228074
0.00262101
0.0029303
0.00320337
0.00343539
0.00362207
0.00375975
0.00384556
0.00387742
0.00385417
0.0037756
0.00364242
0.00345628
0.00321974
0.00293616
0.00260963
0.00224487
0.00184708
0.00142184
0.000974935
0.000512254
3.94446e-05
-0.000438016
-0.00091239
-0.00137635
-0.00185836
-0.0023871
0.00165438
0.00095121
0.000397953
-5.49712e-05
-0.000462771
-0.000827575
-0.00115124
-0.00143932
-0.00169714
-0.0019294
-0.00214037
-0.00233392
-0.00251341
-0.00268174
-0.00284132
-0.00299409
-0.00314152
-0.00328467
-0.00342415
-0.00356019
-0.00369265
-0.00382104
-0.00394455
-0.0040621
-0.00417233
-0.00427366
-0.00436434
-0.00444244
-0.00450592
-0.00455266
-0.00458052
-0.00458735
-0.00457106
-0.00452968
-0.00446137
-0.00436451
-0.00423774
-0.00408001
-0.00389061
-0.00366927
-0.00341615
-0.00313191
-0.00281774
-0.00247539
-0.00210718
-0.00171604
-0.00130545
-0.000879465
-0.000442695
-2.23104e-07
0.000442437
0.000879419
0.0013046
0.00171172
0.00209448
0.00244668
0.00276239
0.00303604
0.0032626
0.00343768
0.00355769
0.00361992
0.0036226
0.00356502
0.00344751
0.00327143
0.00303918
0.00275411
0.00242041
0.00204303
0.00162751
0.00117986
0.000706393
0.000213574
-0.000292357
-0.000805312
-0.00131672
-0.00181847
-0.00234148
-0.00291685
0.00128244
0.000557977
-1.16228e-05
-0.000477608
-0.000897072
-0.0012724
-0.00160569
-0.00190285
-0.00216952
-0.0024107
-0.00263091
-0.00283422
-0.00302419
-0.00320385
-0.00337573
-0.00354182
-0.00370368
-0.00386235
-0.00401846
-0.00417221
-0.00432341
-0.0044715
-0.00461559
-0.00475448
-0.00488669
-0.0050105
-0.005124
-0.00522507
-0.00531149
-0.00538091
-0.00543096
-0.00545924
-0.0054634
-0.00544119
-0.00539048
-0.00530937
-0.00519617
-0.00504954
-0.00486847
-0.00465239
-0.00440119
-0.00411526
-0.00379559
-0.00344372
-0.00306184
-0.00265278
-0.00222
-0.00176761
-0.00130033
-0.000823463
-0.000342808
0.00013538
0.000604506
0.00105774
0.00148814
0.0018888
0.00225302
0.0025744
0.00284709
0.00306587
0.00322632
0.00332497
0.00335936
0.00332817
0.00323125
0.0030696
0.00284541
0.00256195
0.0022235
0.00183522
0.00140302
0.000933355
0.000433121
-9.05966e-05
-0.0006309
-0.00118103
-0.0017315
-0.00227333
-0.00284009
-0.00346552
0.000843105
9.92272e-05
-0.000485321
-0.000963319
-0.0013936
-0.0017788
-0.00212126
-0.00242724
-0.00270269
-0.00295288
-0.00318258
-0.00339606
-0.00359706
-0.00378875
-0.00397373
-0.00415412
-0.00433147
-0.00450686
-0.00468092
-0.0048538
-0.00502528
-0.00519471
-0.00536112
-0.0055232
-0.00567934
-0.00582768
-0.00596613
-0.00609239
-0.00620403
-0.00629849
-0.00637314
-0.00642533
-0.00645243
-0.00645187
-0.00642123
-0.00635827
-0.00626098
-0.00612768
-0.00595702
-0.00574809
-0.00550047
-0.00521425
-0.00489013
-0.00452943
-0.00413415
-0.00370697
-0.00325131
-0.00277126
-0.00227165
-0.00175795
-0.00123626
-0.000713204
-0.000195868
0.000308329
0.000791766
0.00124677
0.00166577
0.00204151
0.00236717
0.00263659
0.00284442
0.0029863
0.00305897
0.00306037
0.00298976
0.00284768
0.00263603
0.00235794
0.00201775
0.00162081
0.0011734
0.000682461
0.000155497
-0.000399721
-0.000975573
-0.00156456
-0.00215619
-0.00274054
-0.00335406
-0.00403326
0.000334169
-0.000427182
-0.00102523
-0.00151416
-0.00195437
-0.00234878
-0.00269996
-0.00301449
-0.00329863
-0.00355792
-0.00379736
-0.00402144
-0.00423403
-0.00443844
-0.00463739
-0.00483303
-0.00502698
-0.00522033
-0.00541368
-0.00560718
-0.00580053
-0.00599302
-0.00618359
-0.00637081
-0.00655296
-0.00672801
-0.0068937
-0.00704755
-0.00718691
-0.00730899
-0.00741091
-0.00748973
-0.00754252
-0.00756641
-0.00755864
-0.00751662
-0.00743796
-0.00732062
-0.00716286
-0.00696341
-0.00672147
-0.00643678
-0.00610972
-0.00574133
-0.00533334
-0.00488826
-0.00440938
-0.00390077
-0.00336728
-0.00281456
-0.00224895
-0.00167744
-0.00110763
-0.000547523
-5.46895e-06
0.000510036
0.000990514
0.0014277
0.00181375
0.00214143
0.00240433
0.00259706
0.0027154
0.00275644
0.00271871
0.00260218
0.00240834
0.00214014
0.00180189
0.00139912
0.000938462
0.000427386
-0.000125973
-0.000713092
-0.00132556
-0.00195507
-0.00259004
-0.00321949
-0.00388295
-0.00462
-0.000246344
-0.00102314
-0.00163319
-0.00213193
-0.00258119
-0.00298411
-0.00334354
-0.00366635
-0.0039591
-0.00422758
-0.00447703
-0.00471211
-0.00493686
-0.0051547
-0.00536846
-0.00558035
-0.00579203
-0.00600459
-0.00621863
-0.00643426
-0.00665112
-0.00686846
-0.00708511
-0.00729952
-0.00750985
-0.00771392
-0.00790929
-0.0080933
-0.00826306
-0.00841556
-0.00854763
-0.00865607
-0.00873762
-0.00878908
-0.00880731
-0.00878936
-0.00873245
-0.0086341
-0.00849218
-0.00830498
-0.00807128
-0.00779044
-0.00746244
-0.00708795
-0.00666843
-0.00620613
-0.00570415
-0.00516646
-0.00459793
-0.00400429
-0.00339211
-0.00276875
-0.00214227
-0.00152129
-0.000914913
-0.000332506
0.000216469
0.000722667
0.00117709
0.00157131
0.00189772
0.00214974
0.00232204
0.00241068
0.00241332
0.00232923
0.00215939
0.00190641
0.00157453
0.00116943
0.000698067
0.000168444
-0.00041062
-0.0010298
-0.00167982
-0.00235147
-0.00303198
-0.00370921
-0.00442606
-0.00522533
-0.000900127
-0.00169028
-0.00231079
-0.00281819
-0.00327557
-0.00368632
-0.00405351
-0.00438432
-0.0046856
-0.00496336
-0.00522306
-0.00546955
-0.00570702
-0.00593902
-0.00616844
-0.00639757
-0.0066281
-0.00686113
-0.00709727
-0.00733657
-0.00757865
-0.00782267
-0.00806736
-0.0083111
-0.00855188
-0.00878738
-0.00901501
-0.00923188
-0.0094349
-0.0096208
-0.00978615
-0.00992744
-0.0100411
-0.0101235
-0.0101712
-0.0101808
-0.0101492
-0.0100733
-0.00995055
-0.00977885
-0.00955646
-0.00928227
-0.00895583
-0.0085774
-0.00814805
-0.00766972
-0.00714525
-0.00657846
-0.00597415
-0.0053381
-0.00467705
-0.00399868
-0.00331149
-0.00262475
-0.00194831
-0.00129244
-0.000667661
-8.44849e-05
0.000446826
0.000916519
0.00131563
0.00163622
0.00187167
0.00201686
0.00206837
0.00202461
0.00188588
0.00165438
0.00133417
0.000930987
0.00045211
-9.39283e-05
-0.000697589
-0.00134868
-0.002037
-0.00275234
-0.0034806
-0.00420843
-0.00498228
-0.00584848
-0.00162858
-0.00242994
-0.00305932
-0.00357422
-0.00403879
-0.00445666
-0.00483112
-0.00516965
-0.00547935
-0.00576647
-0.00603667
-0.00629497
-0.00654572
-0.00679255
-0.00703848
-0.00728583
-0.00753632
-0.0077911
-0.00805073
-0.00831527
-0.00858426
-0.00885681
-0.00913157
-0.0094068
-0.00968037
-0.00994982
-0.0102124
-0.0104649
-0.0107042
-0.0109267
-0.0111286
-0.0113062
-0.0114555
-0.0115726
-0.0116536
-0.0116946
-0.0116921
-0.0116425
-0.0115428
-0.0113903
-0.0111828
-0.0109186
-0.0105967
-0.0102171
-0.00978017
-0.00928758
-0.00874182
-0.00814646
-0.00750615
-0.00682667
-0.00611487
-0.00537868
-0.00462705
-0.00386982
-0.00311762
-0.00238167
-0.00167359
-0.00100513
-0.000387945
0.000166757
0.000648482
0.00104778
0.00135652
0.0015682
0.00167813
0.00168365
0.00158423
0.00138149
0.00107917
0.00068301
0.000200552
-0.000359147
-0.000985803
-0.0016683
-0.00239542
-0.00315588
-0.00393411
-0.0047154
-0.00555008
-0.00648823
-0.00243281
-0.00324316
-0.00387981
-0.00440101
-0.00487183
-0.00529609
-0.00567734
-0.00602329
-0.00634129
-0.00663783
-0.00691876
-0.00718925
-0.00745378
-0.00771613
-0.00797936
-0.00824588
-0.00851744
-0.0087952
-0.00907971
-0.00937101
-0.00966862
-0.00997156
-0.0102784
-0.0105873
-0.0108961
-0.011202
-0.0115022
-0.0117934
-0.0120721
-0.0123344
-0.0125764
-0.012794
-0.0129828
-0.0131385
-0.0132568
-0.0133334
-0.0133641
-0.0133451
-0.0132727
-0.0131436
-0.0129549
-0.0127046
-0.012391
-0.0120134
-0.0115719
-0.0110674
-0.0105022
-0.00987939
-0.00920349
-0.00848014
-0.00771623
-0.00691989
-0.00610044
-0.0052683
-0.00443483
-0.00361223
-0.00281325
-0.00205098
-0.00133854
-0.00068875
-0.000113791
0.000375161
0.00076828
0.00105743
0.00123643
0.00130133
0.00125055
0.00108493
0.000807775
0.000424701
-5.65616e-05
-0.000626455
-0.00127393
-0.00198689
-0.00275302
-0.00355985
-0.00439023
-0.00522792
-0.00612741
-0.00714284
-0.00331357
-0.00413068
-0.00477296
-0.00529928
-0.00577539
-0.00620532
-0.00659283
-0.00694589
-0.00727207
-0.00757807
-0.0078699
-0.00815292
-0.00843173
-0.00871021
-0.00899151
-0.00927809
-0.00957176
-0.00987367
-0.0101844
-0.010504
-0.0108318
-0.011167
-0.0115079
-0.0118527
-0.012199
-0.0125441
-0.0128847
-0.0132175
-0.0135387
-0.0138443
-0.01413
-0.0143913
-0.0146235
-0.014822
-0.014982
-0.0150986
-0.0151672
-0.0151834
-0.0151429
-0.0150417
-0.0148766
-0.0146445
-0.0143434
-0.0139717
-0.013529