/*--------------------------------*- C++ -*----------------------------------*\
  =========                 |
  \\      /  F ield         | OpenFOAM: The Open Source CFD Toolbox
   \\    /   O peration     | Website:  https://openfoam.org
    \\  /    A nd           | Version:  7
     \\/     M anipulation  |
\*---------------------------------------------------------------------------*/
FoamFile
{
    version     2.0;
    format      ascii;
    class       volVectorField;
    location    "0.15";
    object      U;
}
// * * * * * * * * * * * * * * * * * * * * * * * * * * * * * * * * * * * * * //

dimensions      [0 1 -1 0 0 0 0];

internalField   nonuniform List<vector> 
6400
(
(6.47832e-06 -6.23044e-06 0)
(1.33543e-05 -3.96265e-06 0)
(5.9403e-06 2.33271e-06 0)
(-1.9218e-05 8.69956e-06 0)
(-6.08128e-05 1.40356e-05 0)
(-0.00011594 1.81115e-05 0)
(-0.000181494 2.10333e-05 0)
(-0.000254643 2.30095e-05 0)
(-0.000333019 2.42549e-05 0)
(-0.000414742 2.49589e-05 0)
(-0.000498376 2.5277e-05 0)
(-0.000582865 2.53297e-05 0)
(-0.000667449 2.52063e-05 0)
(-0.000751601 2.49697e-05 0)
(-0.000834958 2.46616e-05 0)
(-0.000917272 2.43085e-05 0)
(-0.000998367 2.39253e-05 0)
(-0.00107811 2.35192e-05 0)
(-0.00115639 2.30921e-05 0)
(-0.00123312 2.26434e-05 0)
(-0.00130819 2.21709e-05 0)
(-0.00138151 2.16721e-05 0)
(-0.00145297 2.11444e-05 0)
(-0.00152247 2.05851e-05 0)
(-0.0015899 1.99921e-05 0)
(-0.00165512 1.93631e-05 0)
(-0.00171803 1.86963e-05 0)
(-0.00177849 1.79899e-05 0)
(-0.00183638 1.72426e-05 0)
(-0.00189156 1.64532e-05 0)
(-0.00194389 1.56205e-05 0)
(-0.00199324 1.47437e-05 0)
(-0.00203946 1.38219e-05 0)
(-0.00208242 1.28544e-05 0)
(-0.00212196 1.18407e-05 0)
(-0.00215796 1.07805e-05 0)
(-0.00219026 9.67369e-06 0)
(-0.00221873 8.52039e-06 0)
(-0.00224322 7.321e-06 0)
(-0.0022636 6.07617e-06 0)
(-0.00227974 4.78687e-06 0)
(-0.0022915 3.45431e-06 0)
(-0.00229876 2.08009e-06 0)
(-0.0023014 6.66147e-07 0)
(-0.0022993 -7.85278e-07 0)
(-0.00229238 -2.27144e-06 0)
(-0.00228053 -3.78921e-06 0)
(-0.00226367 -5.33507e-06 0)
(-0.00224173 -6.90508e-06 0)
(-0.00221466 -8.49489e-06 0)
(-0.0021824 -1.00998e-05 0)
(-0.00214494 -1.17147e-05 0)
(-0.00210226 -1.33343e-05 0)
(-0.00205436 -1.49527e-05 0)
(-0.00200127 -1.65641e-05 0)
(-0.00194303 -1.81622e-05 0)
(-0.0018797 -1.97409e-05 0)
(-0.00181137 -2.12937e-05 0)
(-0.00173814 -2.2814e-05 0)
(-0.00166012 -2.42952e-05 0)
(-0.00157748 -2.57299e-05 0)
(-0.00149038 -2.71101e-05 0)
(-0.00139902 -2.84263e-05 0)
(-0.00130366 -2.96661e-05 0)
(-0.00120458 -3.08133e-05 0)
(-0.00110214 -3.18452e-05 0)
(-0.000996801 -3.27303e-05 0)
(-0.000889131 -3.34247e-05 0)
(-0.00077987 -3.38688e-05 0)
(-0.000669973 -3.39824e-05 0)
(-0.000560668 -3.36612e-05 0)
(-0.000453524 -3.2772e-05 0)
(-0.000350521 -3.11493e-05 0)
(-0.000254108 -2.85928e-05 0)
(-0.000167249 -2.48698e-05 0)
(-9.34207e-05 -1.97386e-05 0)
(-3.64499e-05 -1.3038e-05 0)
(-3.43218e-08 -4.92084e-06 0)
(1.36533e-05 3.47209e-06 0)
(7.35162e-06 7.3515e-06 0)
(4.28079e-06 -1.3485e-05 0)
(-3.75824e-06 4.08844e-06 0)
(-4.76441e-05 3.51976e-05 0)
(-0.00013035 6.70688e-05 0)
(-0.000249627 9.51094e-05 0)
(-0.000400467 0.000117797 0)
(-0.000576751 0.000135066 0)
(-0.000772411 0.000147506 0)
(-0.000982029 0.000155935 0)
(-0.00120106 0.00016119 0)
(-0.00142585 0.000164027 0)
(-0.00165359 0.000165082 0)
(-0.00188217 0.000164862 0)
(-0.00211003 0.000163745 0)
(-0.00233606 0.000162004 0)
(-0.00255945 0.000159823 0)
(-0.00277959 0.00015732 0)
(-0.00299603 0.000154565 0)
(-0.00320839 0.000151596 0)
(-0.00341634 0.000148426 0)
(-0.00361957 0.00014506 0)
(-0.00381779 0.000141492 0)
(-0.00401068 0.000137714 0)
(-0.00419795 0.000133718 0)
(-0.00437928 0.000129495 0)
(-0.00455435 0.000125036 0)
(-0.00472282 0.000120334 0)
(-0.00488435 0.00011538 0)
(-0.00503861 0.000110169 0)
(-0.00518524 0.000104697 0)
(-0.00532389 9.8958e-05 0)
(-0.00545419 9.29496e-05 0)
(-0.00557579 8.66689e-05 0)
(-0.00568834 8.01141e-05 0)
(-0.00579146 7.32845e-05 0)
(-0.0058848 6.61805e-05 0)
(-0.005968 5.88036e-05 0)
(-0.00604072 5.11569e-05 0)
(-0.0061026 4.32446e-05 0)
(-0.00615332 3.50726e-05 0)
(-0.00619254 2.66486e-05 0)
(-0.00621995 1.79818e-05 0)
(-0.00623525 9.08332e-06 0)
(-0.00623817 -3.36294e-08 0)
(-0.00622843 -9.35365e-06 0)
(-0.00620581 -1.88593e-05 0)
(-0.00617009 -2.85309e-05 0)
(-0.00612108 -3.83464e-05 0)
(-0.00605863 -4.82817e-05 0)
(-0.00598262 -5.83103e-05 0)
(-0.00589296 -6.84039e-05 0)
(-0.00578962 -7.8532e-05 0)
(-0.00567257 -8.86622e-05 0)
(-0.00554188 -9.87606e-05 0)
(-0.00539761 -0.000108792 0)
(-0.00523991 -0.000118718 0)
(-0.00506895 -0.000128503 0)
(-0.00488498 -0.000138106 0)
(-0.00468827 -0.000147485 0)
(-0.00447918 -0.000156597 0)
(-0.00425812 -0.000165392 0)
(-0.00402556 -0.000173814 0)
(-0.0037821 -0.000181793 0)
(-0.0035284 -0.000189243 0)
(-0.00326529 -0.000196045 0)
(-0.0029938 -0.000202045 0)
(-0.00271518 -0.000207032 0)
(-0.00243102 -0.000210727 0)
(-0.00214336 -0.000212761 0)
(-0.00185475 -0.000212664 0)
(-0.00156843 -0.000209851 0)
(-0.00128843 -0.000203617 0)
(-0.00101967 -0.000193151 0)
(-0.000768051 -0.000177568 0)
(-0.000540358 -0.000155993 0)
(-0.000344089 -0.000127753 0)
(-0.000186804 -9.28125e-05 0)
(-7.48883e-05 -5.26227e-05 0)
(-1.20114e-05 -1.21024e-05 0)
(3.46685e-06 1.3599e-05 0)
(-2.23279e-06 -6.19037e-06 0)
(-3.53093e-05 4.79224e-05 0)
(-0.000124776 0.000124332 0)
(-0.000268289 0.000201881 0)
(-0.000461543 0.000271378 0)
(-0.000698319 0.000329052 0)
(-0.000970848 0.000374147 0)
(-0.00127117 0.000407543 0)
(-0.00159198 0.000430854 0)
(-0.00192694 0.000445916 0)
(-0.00227085 0.000454499 0)
(-0.00261957 0.000458159 0)
(-0.00296989 0.000458177 0)
(-0.0033194 0.000455549 0)
(-0.00366632 0.000451011 0)
(-0.0040093 0.000445084 0)
(-0.00434732 0.000438113 0)
(-0.00467958 0.000430318 0)
(-0.00500545 0.000421826 0)
(-0.00532435 0.000412703 0)
(-0.00563577 0.000402976 0)
(-0.0059392 0.000392649 0)
(-0.00623417 0.000381714 0)
(-0.00652018 0.000370155 0)
(-0.00679675 0.000357956 0)
(-0.00706337 0.000345101 0)
(-0.00731954 0.000331572 0)
(-0.00756474 0.000317356 0)
(-0.00779847 0.000302442 0)
(-0.00802018 0.000286818 0)
(-0.00822937 0.000270478 0)
(-0.00842549 0.000253415 0)
(-0.00860802 0.000235625 0)
(-0.00877643 0.000217107 0)
(-0.0089302 0.000197864 0)
(-0.00906879 0.000177898 0)
(-0.00919171 0.000157218 0)
(-0.00929845 0.000135834 0)
(-0.00938851 0.000113761 0)
(-0.00946141 9.10178e-05 0)
(-0.0095167 6.76267e-05 0)
(-0.00955393 4.36152e-05 0)
(-0.00957269 1.90155e-05 0)
(-0.00957258 -6.13507e-06 0)
(-0.00955325 -3.17937e-05 0)
(-0.00951438 -5.79121e-05 0)
(-0.00945568 -8.44366e-05 0)
(-0.00937689 -0.000111308 0)
(-0.00927784 -0.00013846 0)
(-0.00915836 -0.000165824 0)
(-0.00901837 -0.000193322 0)
(-0.00885782 -0.000220875 0)
(-0.00867674 -0.000248396 0)
(-0.00847523 -0.000275795 0)
(-0.00825342 -0.000302977 0)
(-0.00801155 -0.000329846 0)
(-0.00774991 -0.000356298 0)
(-0.00746888 -0.000382226 0)
(-0.00716892 -0.000407519 0)
(-0.00685056 -0.000432051 0)
(-0.00651446 -0.000455687 0)
(-0.00616136 -0.000478263 0)
(-0.00579217 -0.000499581 0)
(-0.00540794 -0.000519389 0)
(-0.00500997 -0.000537356 0)
(-0.00459983 -0.000553046 0)
(-0.00417948 -0.000565879 0)
(-0.00375134 -0.000575095 0)
(-0.00331849 -0.000579721 0)
(-0.00288473 -0.000578537 0)
(-0.00245482 -0.000570064 0)
(-0.00203457 -0.000552581 0)
(-0.00163096 -0.000524193 0)
(-0.00125211 -0.000482965 0)
(-0.000907196 -0.000427195 0)
(-0.000606018 -0.000355917 0)
(-0.000358128 -0.000269828 0)
(-0.000171322 -0.000172798 0)
(-5.17398e-05 -7.47446e-05 0)
(-4.73414e-06 7.3904e-08 0)
(-8.77476e-06 1.90388e-05 0)
(-6.80607e-05 0.000131191 0)
(-0.000204538 0.000268227 0)
(-0.000407795 0.000404033 0)
(-0.000670304 0.000525847 0)
(-0.000984513 0.000627883 0)
(-0.00134141 0.00070869 0)
(-0.0017318 0.000769397 0)
(-0.00214715 0.000812448 0)
(-0.00258 0.000840784 0)
(-0.00302409 0.000857347 0)
(-0.00347433 0.000864794 0)
(-0.00392674 0.000865362 0)
(-0.00437824 0.000860825 0)
(-0.00482648 0.000852528 0)
(-0.00526967 0.000841438 0)
(-0.00570643 0.000828218 0)
(-0.00613566 0.000813299 0)
(-0.00655646 0.000796947 0)
(-0.00696804 0.000779311 0)
(-0.00736968 0.000760464 0)
(-0.00776072 0.000740434 0)
(-0.00814049 0.00071922 0)
(-0.00850836 0.000696808 0)
(-0.00886368 0.000673176 0)
(-0.0092058 0.000648302 0)
(-0.00953407 0.000622164 0)
(-0.00984784 0.000594742 0)
(-0.0101464 0.000566021 0)
(-0.0104292 0.000535987 0)
(-0.0106955 0.000504629 0)
(-0.0109447 0.000471943 0)
(-0.011176 0.000437926 0)
(-0.0113889 0.00040258 0)
(-0.0115827 0.000365912 0)
(-0.0117567 0.000327934 0)
(-0.0119103 0.000288665 0)
(-0.012043 0.000248128 0)
(-0.0121541 0.000206353 0)
(-0.012243 0.000163379 0)
(-0.0123091 0.000119251 0)
(-0.0123521 7.40221e-05 0)
(-0.0123712 2.77542e-05 0)
(-0.0123662 -1.94811e-05 0)
(-0.0123366 -6.76033e-05 0)
(-0.0122819 -0.000116522 0)
(-0.012202 -0.000166137 0)
(-0.0120964 -0.000216338 0)
(-0.011965 -0.000267004 0)
(-0.0118077 -0.000318007 0)
(-0.0116243 -0.000369206 0)
(-0.0114148 -0.000420453 0)
(-0.0111793 -0.000471591 0)
(-0.010918 -0.000522456 0)
(-0.010631 -0.000572874 0)
(-0.0103187 -0.000622666 0)
(-0.00998142 -0.000671643 0)
(-0.00961975 -0.000719608 0)
(-0.00923425 -0.000766348 0)
(-0.00882563 -0.000811633 0)
(-0.00839475 -0.000855201 0)
(-0.00794259 -0.000896743 0)
(-0.00747031 -0.00093588 0)
(-0.00697931 -0.000972131 0)
(-0.00647127 -0.00100487 0)
(-0.0059482 -0.00103328 0)
(-0.00541261 -0.0010563 0)
(-0.0048676 -0.00107252 0)
(-0.00431701 -0.00108021 0)
(-0.00376558 -0.00107719 0)
(-0.00321915 -0.00106089 0)
(-0.00268475 -0.00102839 0)
(-0.00217068 -0.000976528 0)
(-0.00168653 -0.000902244 0)
(-0.00124292 -0.000803003 0)
(-0.000851141 -0.000677629 0)
(-0.000522171 -0.000527596 0)
(-0.000265311 -0.000358925 0)
(-9.04546e-05 -0.000185245 0)
(-1.24892e-05 -3.55309e-05 0)
(-1.43929e-05 6.14695e-05 0)
(-9.76491e-05 0.000252611 0)
(-0.000277988 0.000463906 0)
(-0.000536513 0.000667646 0)
(-0.000861866 0.000849188 0)
(-0.00124485 0.00100156 0)
(-0.00167525 0.00112297 0)
(-0.00214288 0.00121493 0)
(-0.00263837 0.00128077 0)
(-0.00315351 0.00132459 0)
(-0.00368133 0.00135057 0)
(-0.00421614 0.00136254 0)
(-0.00475338 0.0013638 0)
(-0.0052895 0.00135698 0)
(-0.00582172 0.0013441 0)
(-0.00634792 0.00132667 0)
(-0.00686641 0.00130571 0)
(-0.00737582 0.00128193 0)
(-0.00787505 0.00125575 0)
(-0.00836311 0.00122744 0)
(-0.0088391 0.00119713 0)
(-0.00930221 0.0011649 0)
(-0.00975163 0.00113076 0)
(-0.0101866 0.00109471 0)
(-0.0106063 0.00105672 0)
(-0.01101 0.00101677 0)
(-0.011397 0.000974839 0)
(-0.0117664 0.000930907 0)
(-0.0121174 0.000884954 0)
(-0.0124494 0.000836966 0)
(-0.0127616 0.000786935 0)
(-0.0130531 0.000734857 0)
(-0.0133232 0.000680737 0)
(-0.0135713 0.000624582 0)
(-0.0137964 0.000566409 0)
(-0.013998 0.000506243 0)
(-0.0141753 0.000444117 0)
(-0.0143276 0.000380071 0)
(-0.0144542 0.000314159 0)
(-0.0145546 0.000246442 0)
(-0.014628 0.000176994 0)
(-0.0146738 0.000105902 0)
(-0.0146917 3.32649e-05 0)
(-0.0146809 -4.08045e-05 0)
(-0.0146412 -0.00011618 0)
(-0.014572 -0.000192719 0)
(-0.0144731 -0.000270266 0)
(-0.0143441 -0.00034865 0)
(-0.0141848 -0.000427686 0)
(-0.0139952 -0.000507173 0)
(-0.013775 -0.000586896 0)
(-0.0135243 -0.000666628 0)
(-0.0132433 -0.000746127 0)
(-0.0129321 -0.000825139 0)
(-0.0125911 -0.000903401 0)
(-0.0122205 -0.000980633 0)
(-0.0118209 -0.00105655 0)
(-0.0113929 -0.00113083 0)
(-0.0109372 -0.00120316 0)
(-0.0104547 -0.00127317 0)
(-0.00994645 -0.00134044 0)
(-0.00941355 -0.0014045 0)
(-0.00885744 -0.00146474 0)
(-0.00827974 -0.0015204 0)
(-0.00768246 -0.00157052 0)
(-0.00706797 -0.00161382 0)
(-0.0064392 -0.00164865 0)
(-0.00579974 -0.00167293 0)
(-0.005154 -0.00168401 0)
(-0.00450738 -0.00167868 0)
(-0.00386644 -0.00165319 0)
(-0.00323902 -0.00160329 0)
(-0.00263431 -0.00152456 0)
(-0.00206281 -0.00141273 0)
(-0.00153615 -0.00126441 0)
(-0.00106674 -0.00107809 0)
(-0.000666922 -0.000855648 0)
(-0.000347808 -0.000604317 0)
(-0.000123584 -0.00033944 0)
(-1.8726e-05 -9.07087e-05 0)
(-1.8858e-05 0.000118397 0)
(-0.000122543 0.000407996 0)
(-0.000341356 0.000706438 0)
(-0.000648672 0.00098682 0)
(-0.00102929 0.0012342 0)
(-0.00147217 0.00144137 0)
(-0.00196583 0.00160676 0)
(-0.00249917 0.00173256 0)
(-0.00306217 0.00182311 0)
(-0.00364606 0.00188376 0)
(-0.00424341 0.00191998 0)
(-0.00484812 0.00193683 0)
(-0.00545526 0.0019387 0)
(-0.00606093 0.00192914 0)
(-0.00666208 0.00191092 0)
(-0.00725631 0.00188608 0)
(-0.0078417 0.00185608 0)
(-0.0084167 0.0018219 0)
(-0.00898 0.00178418 0)
(-0.00953047 0.00174332 0)
(-0.0100671 0.00169953 0)
(-0.0105889 0.00165293 0)
(-0.0110949 0.00160357 0)
(-0.0115843 0.00155145 0)
(-0.0120562 0.00149658 0)
(-0.0125097 0.00143892 0)
(-0.0129439 0.00137846 0)
(-0.0133581 0.00131518 0)
(-0.0137513 0.00124906 0)
(-0.0141227 0.00118009 0)
(-0.0144714 0.00110827 0)
(-0.0147966 0.0010336 0)
(-0.0150974 0.000956091 0)
(-0.0153732 0.000875766 0)
(-0.0156229 0.000792652 0)
(-0.0158459 0.00070679 0)
(-0.0160414 0.000618232 0)
(-0.0162086 0.000527041 0)
(-0.0163469 0.000433296 0)
(-0.0164554 0.000337088 0)
(-0.0165336 0.000238525 0)
(-0.0165808 0.000137732 0)
(-0.0165965 3.48504e-05 0)
(-0.0165801 -6.99585e-05 0)
(-0.0165312 -0.000176515 0)
(-0.0164492 -0.000284621 0)
(-0.016334 -0.000394056 0)
(-0.0161851 -0.000504582 0)
(-0.0160023 -0.000615937 0)
(-0.0157856 -0.000727843 0)
(-0.0155349 -0.000840002 0)
(-0.0152502 -0.000952094 0)
(-0.0149316 -0.00106379 0)
(-0.0145794 -0.00117472 0)
(-0.014194 -0.00128454 0)
(-0.0137758 -0.00139284 0)
(-0.0133253 -0.00149923 0)
(-0.0128433 -0.00160326 0)
(-0.0123305 -0.00170449 0)
(-0.0117881 -0.00180239 0)
(-0.0112171 -0.00189637 0)
(-0.0106188 -0.00198576 0)
(-0.0099949 -0.00206969 0)
(-0.00934718 -0.00214711 0)
(-0.00867789 -0.00221666 0)
(-0.00798967 -0.00227656 0)
(-0.00728577 -0.00232455 0)
(-0.00657013 -0.00235776 0)
(-0.00584757 -0.00237262 0)
(-0.00512392 -0.00236482 0)
(-0.00440624 -0.00232933 0)
(-0.00370292 -0.0022606 0)
(-0.00302372 -0.00215282 0)
(-0.0023798 -0.00200049 0)
(-0.00178357 -0.00179921 0)
(-0.00124848 -0.00154685 0)
(-0.000788261 -0.00124512 0)
(-0.000416027 -0.000901376 0)
(-0.000150132 -0.000530949 0)
(-2.33882e-05 -0.000161679 0)
(-2.22601e-05 0.000187056 0)
(-0.000142597 0.000592052 0)
(-0.000393726 0.000989298 0)
(-0.000742575 0.00135416 0)
(-0.00117044 0.0016726 0)
(-0.00166445 0.0019381 0)
(-0.0022118 0.0021499 0)
(-0.00280051 0.00231119 0)
(-0.00341995 0.00242758 0)
(-0.00406092 0.00250575 0)
(-0.00471566 0.00255254 0)
(-0.00537778 0.00257429 0)
(-0.0060421 0.0025765 0)
(-0.00670452 0.00256368 0)
(-0.00736178 0.00253936 0)
(-0.0080113 0.00250617 0)
(-0.008651 0.00246599 0)
(-0.00927917 0.00242011 0)
(-0.00989438 0.0023694 0)
(-0.0104954 0.00231439 0)
(-0.0110809 0.0022554 0)
(-0.0116501 0.00219261 0)
(-0.0122018 0.00212609 0)
(-0.0127351 0.00205589 0)
(-0.0132489 0.00198201 0)
(-0.0137425 0.00190444 0)
(-0.0142147 0.00182316 0)
(-0.0146647 0.00173816 0)
(-0.0150916 0.00164943 0)
(-0.0154944 0.00155697 0)
(-0.0158722 0.00146078 0)
(-0.0162242 0.00136087 0)
(-0.0165494 0.00125727 0)
(-0.016847 0.00115 0)
(-0.0171161 0.00103913 0)
(-0.0173559 0.000924698 0)
(-0.0175656 0.000806787 0)
(-0.0177444 0.000685486 0)
(-0.0178914 0.0005609 0)
(-0.0180061 0.000433157 0)
(-0.0180877 0.000302401 0)
(-0.0181355 0.000168801 0)
(-0.018149 3.25439e-05 0)
(-0.0181276 -0.000106156 0)
(-0.0180708 -0.000247061 0)
(-0.0179781 -0.000389909 0)
(-0.0178493 -0.000534412 0)
(-0.017684 -0.000680256 0)
(-0.017482 -0.000827101 0)
(-0.0172431 -0.000974582 0)
(-0.0169674 -0.00112231 0)
(-0.016655 -0.00126986 0)
(-0.0163059 -0.00141681 0)
(-0.0159204 -0.0015627 0)
(-0.015499 -0.00170703 0)
(-0.0150422 -0.0018493 0)
(-0.0145505 -0.00198898 0)
(-0.0140248 -0.0021255 0)
(-0.013466 -0.00225825 0)
(-0.0128751 -0.00238656 0)
(-0.0122534 -0.00250964 0)
(-0.0116024 -0.00262659 0)
(-0.0109238 -0.00273629 0)
(-0.0102196 -0.00283733 0)
(-0.00949224 -0.00292795 0)
(-0.00874454 -0.00300586 0)
(-0.00797998 -0.00306812 0)
(-0.00720275 -0.00311107 0)
(-0.00641796 -0.00313017 0)
(-0.00563175 -0.00311996 0)
(-0.0048515 -0.00307415 0)
(-0.00408599 -0.00298579 0)
(-0.00334541 -0.00284763 0)
(-0.00264146 -0.00265282 0)
(-0.00198725 -0.00239574 0)
(-0.00139724 -0.00207328 0)
(-0.00088657 -0.00168634 0)
(-0.000470348 -0.00124148 0)
(-0.000170587 -0.000752758 0)
(-2.67302e-05 -0.000244785 0)
(-2.47866e-05 0.000264899 0)
(-0.000158298 0.000799448 0)
(-0.000435746 0.00130567 0)
(-0.00081898 0.00176194 0)
(-0.00128634 0.00215602 0)
(-0.00182321 0.0024828 0)
(-0.00241554 0.00274282 0)
(-0.00305047 0.00294071 0)
(-0.00371679 0.00308354 0)
(-0.00440491 0.00317949 0)
(-0.00510681 0.00323685 0)
(-0.00581589 0.00326329 0)
(-0.00652683 0.00326545 0)
(-0.00723536 0.00324882 0)
(-0.0079381 0.00321769 0)
(-0.00863235 0.00317529 0)
(-0.00931592 0.00312395 0)
(-0.00998701 0.00306527 0)
(-0.0106441 0.00300036 0)
(-0.0112857 0.00292989 0)
(-0.0119108 0.00285428 0)
(-0.0125181 0.00277379 0)
(-0.0131065 0.00268853 0)
(-0.013675 0.00259858 0)
(-0.0142226 0.00250396 0)
(-0.0147483 0.00240467 0)
(-0.015251 0.0023007 0)
(-0.0157298 0.00219205 0)
(-0.0161836 0.00207873 0)
(-0.0166116 0.00196073 0)
(-0.0170128 0.00183808 0)
(-0.0173862 0.0017108 0)
(-0.017731 0.00157891 0)
(-0.0180461 0.00144249 0)
(-0.0183307 0.00130158 0)
(-0.0185839 0.00115628 0)
(-0.018805 0.00100667 0)
(-0.018993 0.000852885 0)
(-0.0191472 0.000695054 0)
(-0.0192668 0.000533341 0)
(-0.0193511 0.000367934 0)
(-0.0193994 0.000199045 0)
(-0.0194111 2.6913e-05 0)
(-0.0193857 -0.000148192 0)
(-0.0193227 -0.000325973 0)
(-0.0192215 -0.000506099 0)
(-0.0190818 -0.00068821 0)
(-0.0189034 -0.000871912 0)
(-0.0186859 -0.00105678 0)
(-0.0184294 -0.00124236 0)
(-0.0181337 -0.00142816 0)
(-0.017799 -0.00161367 0)
(-0.0174254 -0.00179833 0)
(-0.0170132 -0.00198158 0)
(-0.0165629 -0.00216281 0)
(-0.016075 -0.00234138 0)
(-0.0155501 -0.00251663 0)
(-0.0149892 -0.00268784 0)
(-0.0143932 -0.00285424 0)
(-0.0137632 -0.00301498 0)
(-0.0131005 -0.00316909 0)
(-0.0124069 -0.00331541 0)
(-0.011684 -0.00345254 0)
(-0.010934 -0.00357875 0)
(-0.0101595 -0.00369181 0)
(-0.00936346 -0.0037889 0)
(-0.00854953 -0.00386642 0)
(-0.00772209 -0.00391987 0)
(-0.00688641 -0.00394372 0)
(-0.0060489 -0.00393137 0)
(-0.00521717 -0.00387519 0)
(-0.00440028 -0.00376679 0)
(-0.00360882 -0.00359742 0)
(-0.00285496 -0.0033587 0)
(-0.0021525 -0.00304355 0)
(-0.00151689 -0.00264751 0)
(-0.000964638 -0.00217011 0)
(-0.000512672 -0.00161643 0)
(-0.00018601 -0.000998422 0)
(-2.90706e-05 -0.00033696 0)
(-2.66302e-05 0.000349772 0)
(-0.000170362 0.00102538 0)
(-0.0004688 0.00164922 0)
(-0.00087995 0.002203 0)
(-0.00137976 0.00267678 0)
(-0.0019521 0.00306737 0)
(-0.00258176 0.00337713 0)
(-0.00325502 0.00361242 0)
(-0.00396014 0.00378202 0)
(-0.00468715 0.00389578 0)
(-0.0054278 0.00396353 0)
(-0.00617532 0.00399431 0)
(-0.00692427 0.00399597 0)
(-0.0076703 0.00397496 0)
(-0.00840994 0.00393636 0)
(-0.00914043 0.003884 0)
(-0.00985949 0.00382065 0)
(-0.0105653 0.00374826 0)
(-0.0112561 0.00366813 0)
(-0.0119306 0.00358112 0)
(-0.0125875 0.00348775 0)
(-0.0132256 0.00338834 0)
(-0.0138437 0.00328306 0)
(-0.0144407 0.00317202 0)
(-0.0150156 0.00305526 0)
(-0.0155672 0.0029328 0)
(-0.0160946 0.00280465 0)
(-0.0165967 0.00267082 0)
(-0.0170725 0.00253131 0)
(-0.017521 0.00238616 0)
(-0.0179411 0.00223538 0)
(-0.0183321 0.00207901 0)
(-0.0186927 0.00191711 0)
(-0.0190222 0.00174975 0)
(-0.0193197 0.00157701 0)
(-0.0195841 0.001399 0)
(-0.0198147 0.00121584 0)
(-0.0200105 0.00102768 0)
(-0.0201708 0.000834689 0)
(-0.0202948 0.000637071 0)
(-0.0203818 0.000435055 0)
(-0.020431 0.000228899 0)
(-0.0204418 1.8896e-05 0)
(-0.0204137 -0.000194627 0)
(-0.0203461 -0.000411309 0)
(-0.0202385 -0.00063075 0)
(-0.0200906 -0.000852513 0)
(-0.0199021 -0.00107612 0)
(-0.0196727 -0.00130107 0)
(-0.0194023 -0.00152679 0)
(-0.0190909 -0.00175271 0)
(-0.0187385 -0.0019782 0)
(-0.0183454 -0.0022026 0)
(-0.0179119 -0.0024252 0)
(-0.0174384 -0.00264529 0)
(-0.0169255 -0.00286209 0)
(-0.0163739 -0.00307478 0)
(-0.0157845 -0.00328251 0)
(-0.0151583 -0.00348434 0)
(-0.0144965 -0.00367922 0)
(-0.0138004 -0.00386597 0)
(-0.0130719 -0.00404319 0)
(-0.0123127 -0.0042092 0)
(-0.0115252 -0.00436188 0)
(-0.0107118 -0.00449857 0)
(-0.00987591 -0.0046159 0)
(-0.00902113 -0.00470958 0)
(-0.00815201 -0.00477428 0)
(-0.00727401 -0.00480345 0)
(-0.00639368 -0.0047893 0)
(-0.00551888 -0.00472286 0)
(-0.00465892 -0.00459422 0)
(-0.00382474 -0.00439301 0)
(-0.003029 -0.00410918 0)
(-0.00228618 -0.00373395 0)
(-0.00161267 -0.00326114 0)
(-0.00102625 -0.00268853 0)
(-0.000545426 -0.00201921 0)
(-0.000197569 -0.0012626 0)
(-3.06984e-05 -0.000435829 0)
(-2.79622e-05 0.000439955 0)
(-0.00017954 0.00126582 0)
(-0.000494533 0.0020145 0)
(-0.000928113 0.00267105 0)
(-0.00145436 0.00322813 0)
(-0.00205587 0.00368485 0)
(-0.00271638 0.00404569 0)
(-0.00342142 0.00431905 0)
(-0.0041587 0.00451564 0)
(-0.00491791 0.00464714 0)
(-0.00569057 0.00472501 0)
(-0.00646976 0.00475975 0)
(-0.00724994 0.00476043 0)
(-0.00802672 0.00473449 0)
(-0.00879656 0.00468782 0)
(-0.00955665 0.00462484 0)
(-0.0103047 0.00454877 0)
(-0.0110388 0.00446189 0)
(-0.0117572 0.00436574 0)
(-0.0124585 0.00426131 0)
(-0.0131414 0.00414926 0)
(-0.0138047 0.00402996 0)
(-0.014447 0.00390365 0)
(-0.0150674 0.00377046 0)
(-0.0156646 0.00363045 0)
(-0.0162377 0.00348368 0)
(-0.0167854 0.00333017 0)
(-0.0173068 0.00316993 0)
(-0.0178007 0.003003 0)
(-0.0182663 0.0028294 0)
(-0.0187024 0.00264919 0)
(-0.019108 0.0024624 0)
(-0.0194823 0.00226912 0)
(-0.0198241 0.00206943 0)
(-0.0201326 0.00186344 0)
(-0.0204068 0.00165128 0)
(-0.0206458 0.00143309 0)
(-0.0208488 0.00120906 0)
(-0.0210149 0.000979393 0)
(-0.0211433 0.00074433 0)
(-0.0212333 0.000504141 0)
(-0.0212841 0.000259133 0)
(-0.0212951 9.6536e-06 0)
(-0.0212656 -0.000243913 0)
(-0.0211952 -0.00050114 0)
(-0.0210833 -0.000761557 0)
(-0.0209295 -0.00102465 0)
(-0.0207335 -0.00128986 0)
(-0.0204951 -0.00155658 0)
(-0.0202142 -0.00182416 0)
(-0.0198906 -0.00209191 0)
(-0.0195244 -0.00235909 0)
(-0.019116 -0.00262492 0)
(-0.0186654 -0.00288858 0)
(-0.0181733 -0.00314921 0)
(-0.0176402 -0.0034059 0)
(-0.0170669 -0.00365767 0)
(-0.0164541 -0.00390352 0)
(-0.015803 -0.00414232 0)
(-0.0151149 -0.00437283 0)
(-0.0143912 -0.00459367 0)
(-0.0136335 -0.00480317 0)
(-0.0128439 -0.00499933 0)
(-0.0120247 -0.00517968 0)
(-0.0111787 -0.00534111 0)
(-0.010309 -0.00547967 0)
(-0.00941947 -0.00559038 0)
(-0.00851484 -0.00566706 0)
(-0.00760065 -0.00570213 0)
(-0.00668365 -0.00568658 0)
(-0.00577188 -0.00561003 0)
(-0.00487495 -0.00546099 0)
(-0.00400414 -0.00522738 0)
(-0.00317262 -0.00489728 0)
(-0.00239552 -0.00446003 0)
(-0.00169013 -0.00390745 0)
(-0.00107536 -0.00323525 0)
(-0.000571042 -0.00244423 0)
(-0.000206348 -0.00154117 0)
(-3.18483e-05 -0.000539666 0)
(-2.89274e-05 0.000534136 0)
(-0.00018654 0.00151754 0)
(-0.000514591 0.00239704 0)
(-0.000966197 0.00316091 0)
(-0.00151401 0.0038045 0)
(-0.00213956 0.00432945 0)
(-0.0028257 0.00474263 0)
(-0.00355726 0.00505469 0)
(-0.00432145 0.00527848 0)
(-0.00510762 0.00542763 0)
(-0.00590707 0.00551536 0)
(-0.00671273 0.00555368 0)
(-0.007519 0.00555292 0)
(-0.0083214 0.00552157 0)
(-0.00911639 0.00546629 0)
(-0.00990111 0.00539212 0)
(-0.0106732 0.00530275 0)
(-0.0114308 0.00520075 0)
(-0.0121722 0.0050879 0)
(-0.0128959 0.00496537 0)
(-0.0136005 0.00483389 0)
(-0.0142848 0.00469394 0)
(-0.0149475 0.0045458 0)
(-0.0155875 0.00438963 0)
(-0.0162036 0.00422552 0)
(-0.0167947 0.00405355 0)
(-0.0173598 0.00387376 0)
(-0.0178976 0.00368618 0)
(-0.0184072 0.00349085 0)
(-0.0188876 0.00328782 0)
(-0.0193375 0.00307715 0)
(-0.0197561 0.0028589 0)
(-0.0201424 0.00263317 0)
(-0.0204953 0.00240006 0)
(-0.0208138 0.00215971 0)
(-0.0210971 0.00191225 0)
(-0.0213442 0.00165788 0)
(-0.0215542 0.00139679 0)
(-0.0217262 0.00112924 0)
(-0.0218594 0.000855497 0)
(-0.021953 0.000575874 0)
(-0.0220064 0.000290728 0)
(-0.0220187 4.58473e-07 0)
(-0.0219893 -0.000294491 0)
(-0.0219177 -0.000593628 0)
(-0.0218033 -0.00089641 0)
(-0.0216458 -0.00120224 0)
(-0.0214447 -0.00151049 0)
(-0.0211998 -0.00182044 0)
(-0.020911 -0.00213135 0)
(-0.0205781 -0.00244242 0)
(-0.0202013 -0.0027528 0)
(-0.0197806 -0.00306158 0)
(-0.0193165 -0.00336782 0)
(-0.0188093 -0.0036705 0)
(-0.0182596 -0.00396858 0)
(-0.0176682 -0.00426092 0)
(-0.0170359 -0.00454635 0)
(-0.0163639 -0.00482356 0)
(-0.0156534 -0.00509111 0)
(-0.014906 -0.00534738 0)
(-0.0141233 -0.00559045 0)
(-0.0133074 -0.005818 0)
(-0.0124607 -0.00602718 0)
(-0.011586 -0.00621441 0)
(-0.0106867 -0.00637517 0)
(-0.00976657 -0.00650377 0)
(-0.00883055 -0.00659316 0)
(-0.00788431 -0.00663471 0)
(-0.00693476 -0.00661815 0)
(-0.00599019 -0.00653163 0)
(-0.00506049 -0.00636202 0)
(-0.00415732 -0.00609539 0)
(-0.00329435 -0.00571784 0)
(-0.00248736 -0.00521661 0)
(-0.00175448 -0.00458134 0)
(-0.00111562 -0.00380546 0)
(-0.000591705 -0.00288735 0)
(-0.000213262 -0.00183114 0)
(-3.27016e-05 -0.000647292 0)
(-2.96429e-05 0.000631361 0)
(-0.000191977 0.00177812 0)
(-0.00053048 0.00279341 0)
(-0.000996762 0.00366849 0)
(-0.00156238 0.00440147 0)
(-0.00220802 0.00499662 0)
(-0.00291577 0.00546335 0)
(-0.00366983 0.00581475 0)
(-0.00445694 0.00606597 0)
(-0.00526614 0.00623273 0)
(-0.0060885 0.0063301 0)
(-0.00691682 0.00637167 0)
(-0.00774541 0.00636909 0)
(-0.00856974 0.00633188 0)
(-0.00938624 0.00626753 0)
(-0.010192 0.0061817 0)
(-0.0109848 0.00607851 0)
(-0.0117626 0.00596089 0)
(-0.0125237 0.00583081 0)
(-0.0132666 0.00568962 0)
(-0.0139899 0.00553815 0)
(-0.0146923 0.00537695 0)
(-0.0153727 0.00520636 0)
(-0.0160298 0.00502656 0)
(-0.0166624 0.0048377 0)
(-0.0172695 0.00463984 0)
(-0.0178498 0.00443306 0)
(-0.0184023 0.00421741 0)
(-0.018926 0.00399294 0)
(-0.0194196 0.00375971 0)
(-0.0198823 0.00351779 0)
(-0.0203129 0.00326728 0)
(-0.0207103 0.00300827 0)
(-0.0210737 0.00274089 0)
(-0.021402 0.0024653 0)
(-0.0216942 0.00218165 0)
(-0.0219493 0.00189017 0)
(-0.0221666 0.00159108 0)
(-0.0223449 0.00128466 0)
(-0.0224836 0.000971229 0)
(-0.0225818 0.000651134 0)
(-0.0226386 0.00032478 0)
(-0.0226535 -7.38177e-06 0)
(-0.0226256 -0.00034485 0)
(-0.0225544 -0.000687066 0)
(-0.0224393 -0.00103342 0)
(-0.0222798 -0.00138323 0)
(-0.0220756 -0.00173578 0)
(-0.0218264 -0.00209027 0)
(-0.0215319 -0.00244585 0)
(-0.0211921 -0.0028016 0)
(-0.020807 -0.00315657 0)
(-0.0203766 -0.00350971 0)
(-0.0199014 -0.00385994 0)
(-0.0193817 -0.00420611 0)
(-0.018818 -0.00454701 0)
(-0.0182112 -0.00488137 0)
(-0.0175621 -0.0052078 0)
(-0.0168718 -0.00552482 0)
(-0.0161417 -0.00583079 0)
(-0.0153732 -0.00612383 0)
(-0.0145681 -0.00640176 0)
(-0.0137285 -0.00666193 0)
(-0.0128569 -0.0069011 0)
(-0.0119561 -0.00711522 0)
(-0.0110296 -0.00729917 0)
(-0.0100814 -0.00744655 0)
(-0.00911642 -0.00754939 0)
(-0.00814058 -0.00759798 0)
(-0.00716097 -0.00758076 0)
(-0.00618612 -0.00748437 0)
(-0.00522623 -0.00729393 0)
(-0.00429339 -0.00699357 0)
(-0.00340176 -0.00656728 0)
(-0.00256777 -0.00600008 0)
(-0.00181032 -0.00527925 0)
(-0.0011502 -0.00439582 0)
(-0.000609247 -0.00334573 0)
(-0.000219049 -0.00213054 0)
(-3.33926e-05 -0.000757969 0)
(-3.02008e-05 0.000730976 0)
(-0.000196364 0.00204582 0)
(-0.000543487 0.00320108 0)
(-0.00102205 0.0041908 0)
(-0.00160277 0.00501576 0)
(-0.00226561 0.00568293 0)
(-0.00299203 0.00620439 0)
(-0.00376567 0.00659581 0)
(-0.00457285 0.00687477 0)
(-0.00540229 0.00705917 0)
(-0.00624484 0.00716602 0)
(-0.00709317 0.00721057 0)
(-0.00794149 0.00720583 0)
(-0.00878523 0.0071624 0)
(-0.00962079 0.00708859 0)
(-0.0104453 0.00699069 0)
(-0.0112564 0.00687329 0)
(-0.0120521 0.00673961 0)
(-0.0128308 0.00659189 0)
(-0.0135908 0.00643159 0)
(-0.0143309 0.00625968 0)
(-0.0150498 0.00607678 0)
(-0.0157461 0.00588325 0)
(-0.0164187 0.00567934 0)
(-0.0170664 0.00546521 0)
(-0.0176881 0.00524095 0)
(-0.0182826 0.00500664 0)
(-0.0188488 0.00476236 0)
(-0.0193856 0.00450818 0)
(-0.019892 0.00424416 0)
(-0.0203667 0.00397039 0)
(-0.0208089 0.00368698 0)
(-0.0212174 0.00339404 0)
(-0.0215912 0.00309173 0)
(-0.0219293 0.00278019 0)
(-0.0222306 0.00245964 0)
(-0.0224943 0.0021303 0)
(-0.0227193 0.00179243 0)
(-0.0229048 0.00144634 0)
(-0.0230497 0.00109237 0)
(-0.0231534 0.000730923 0)
(-0.0232149 0.000362442 0)
(-0.0232334 -1.25716e-05 0)
(-0.0232084 -0.000393559 0)
(-0.023139 -0.000779901 0)
(-0.0230247 -0.00117091 0)
(-0.022865 -0.00156584 0)
(-0.0226593 -0.00196387 0)
(-0.0224075 -0.00236412 0)
(-0.0221092 -0.00276563 0)
(-0.0217642 -0.00316738 0)
(-0.0213726 -0.00356827 0)
(-0.0209344 -0.00396714 0)
(-0.02045 -0.00436277 0)
(-0.0199196 -0.00475386 0)
(-0.0193438 -0.00513903 0)
(-0.0187234 -0.00551684 0)
(-0.0180592 -0.00588573 0)
(-0.0173523 -0.00624401 0)
(-0.0166041 -0.00658981 0)
(-0.0158161 -0.00692101 0)
(-0.01499 -0.00723514 0)
(-0.0141282 -0.00752922 0)
(-0.0132329 -0.00779961 0)
(-0.0123073 -0.00804175 0)
(-0.0113548 -0.00824993 0)
(-0.0103797 -0.00841698 0)
(-0.0093869 -0.00853402 0)
(-0.00838256 -0.00859023 0)
(-0.00737399 -0.00857268 0)
(-0.00637003 -0.00846644 0)
(-0.00538121 -0.00825482 0)
(-0.00442004 -0.00791991 0)
(-0.00350123 -0.0074435 0)
(-0.00264182 -0.00680823 0)
(-0.00186144 -0.00599898 0)
(-0.00118167 -0.00500429 0)
(-0.000625127 -0.00381763 0)
(-0.000224272 -0.00243819 0)
(-3.40165e-05 -0.000871298 0)
(-3.06701e-05 0.000832564 0)
(-0.000200107 0.0023195 0)
(-0.000554667 0.00361836 0)
(-0.00104393 0.00472573 0)
(-0.00163791 0.00564505 0)
(-0.00231602 0.00638598 0)
(-0.00305913 0.00696336 0)
(-0.0038504 0.00739552 0)
(-0.00467574 0.00770256 0)
(-0.00552359 0.0079047 0)
(-0.00638458 0.00802096 0)
(-0.00725123 0.00806831 0)
(-0.00811766 0.00806114 0)
(-0.00897926 0.00801118 0)
(-0.00983239 0.00792759 0)
(-0.0106742 0.0078173 0)
(-0.0115022 0.00768533 0)
(-0.0123146 0.00753527 0)
(-0.0131096 0.00736955 0)
(-0.0138857 0.0071898 0)
(-0.0146415 0.0069971 0)
(-0.0153757 0.00679212 0)
(-0.0160871 0.00657529 0)
(-0.0167744 0.00634689 0)
(-0.0174365 0.0061071 0)
(-0.0180722 0.00585603 0)
(-0.0186804 0.00559379 0)
(-0.0192599 0.00532046 0)
(-0.0198097 0.00503612 0)
(-0.0203285 0.00474085 0)
(-0.0208154 0.00443476 0)
(-0.0212693 0.00411796 0)