/*--------------------------------*- C++ -*----------------------------------*\
  =========                 |
  \\      /  F ield         | OpenFOAM: The Open Source CFD Toolbox
   \\    /   O peration     | Website:  https://openfoam.org
    \\  /    A nd           | Version:  7
     \\/     M anipulation  |
\*---------------------------------------------------------------------------*/
FoamFile
{
    version     2.0;
    format      ascii;
    class       volVectorField;
    location    "0.9";
    object      U;
}
// * * * * * * * * * * * * * * * * * * * * * * * * * * * * * * * * * * * * * //

dimensions      [0 1 -1 0 0 0 0];

internalField   nonuniform List<vector> 
6400
(
(9.999e-06 -1.01515e-05 0)
(3.75882e-05 -1.71623e-05 0)
(6.77214e-05 -1.44367e-05 0)
(8.24375e-05 -7.34652e-06 0)
(7.37082e-05 1.13088e-06 0)
(3.99222e-05 9.56924e-06 0)
(-1.81523e-05 1.73134e-05 0)
(-9.85835e-05 2.41251e-05 0)
(-0.000198899 2.99526e-05 0)
(-0.000316519 3.48507e-05 0)
(-0.000448967 3.89224e-05 0)
(-0.000593988 4.2286e-05 0)
(-0.000749605 4.50601e-05 0)
(-0.000914127 4.73566e-05 0)
(-0.00108614 4.92754e-05 0)
(-0.00126448 5.08993e-05 0)
(-0.00144818 5.22926e-05 0)
(-0.00163642 5.35021e-05 0)
(-0.00182851 5.4557e-05 0)
(-0.00202379 5.54709e-05 0)
(-0.00222165 5.62424e-05 0)
(-0.00242143 5.68574e-05 0)
(-0.00262243 5.72916e-05 0)
(-0.00282384 5.75118e-05 0)
(-0.00302476 5.74777e-05 0)
(-0.00322416 5.71436e-05 0)
(-0.00342086 5.64615e-05 0)
(-0.00361354 5.53827e-05 0)
(-0.00380074 5.38596e-05 0)
(-0.00398088 5.18464e-05 0)
(-0.00415222 4.93016e-05 0)
(-0.00431296 4.61893e-05 0)
(-0.00446117 4.24816e-05 0)
(-0.00459491 3.81594e-05 0)
(-0.00471218 3.32139e-05 0)
(-0.00481102 2.76485e-05 0)
(-0.0048895 2.14795e-05 0)
(-0.0049458 1.47376e-05 0)
(-0.00497823 7.46835e-06 0)
(-0.0049853 -2.67326e-07 0)
(-0.00496575 -8.3933e-06 0)
(-0.00491859 -1.68173e-05 0)
(-0.00484316 -2.54331e-05 0)
(-0.00473917 -3.41211e-05 0)
(-0.00460672 -4.27507e-05 0)
(-0.00444633 -5.11821e-05 0)
(-0.00425899 -5.92695e-05 0)
(-0.00404612 -6.68643e-05 0)
(-0.0038096 -7.38195e-05 0)
(-0.00355177 -7.99927e-05 0)
(-0.00327537 -8.52511e-05 0)
(-0.00298353 -8.94751e-05 0)
(-0.00267972 -9.25623e-05 0)
(-0.0023677 -9.44312e-05 0)
(-0.00205141 -9.5024e-05 0)
(-0.00173497 -9.43097e-05 0)
(-0.00142251 -9.22842e-05 0)
(-0.00111817 -8.89715e-05 0)
(-0.000825942 -8.44237e-05 0)
(-0.000549648 -7.87195e-05 0)
(-0.000292822 -7.19619e-05 0)
(-5.86533e-05 -6.42752e-05 0)
(0.000150078 -5.58025e-05 0)
(0.000331056 -4.66974e-05 0)
(0.000482477 -3.71292e-05 0)
(0.000603075 -2.72718e-05 0)
(0.000692158 -1.73039e-05 0)
(0.000749621 -7.40841e-06 0)
(0.000775975 2.22649e-06 0)
(0.000772365 1.14041e-05 0)
(0.000740617 1.99118e-05 0)
(0.000683296 2.75049e-05 0)
(0.000603804 3.38853e-05 0)
(0.000506543 3.86637e-05 0)
(0.000397152 4.13042e-05 0)
(0.000282867 4.10593e-05 0)
(0.000172884 3.69196e-05 0)
(7.8631e-05 2.75828e-05 0)
(1.42143e-05 1.21264e-05 0)
(-4.29115e-06 -4.25719e-06 0)
(1.71865e-05 -3.76956e-05 0)
(5.55922e-05 -5.54068e-05 0)
(8.29781e-05 -3.60697e-05 0)
(6.97969e-05 1.95583e-06 0)
(1.25783e-06 4.76245e-05 0)
(-0.000127477 9.45933e-05 0)
(-0.000316173 0.000139363 0)
(-0.000561585 0.000180202 0)
(-0.000858788 0.000216394 0)
(-0.00120214 0.000247842 0)
(-0.00158591 0.000274797 0)
(-0.00200462 0.000297689 0)
(-0.00245328 0.000317031 0)
(-0.00292745 0.000333342 0)
(-0.00342328 0.000347105 0)
(-0.00393745 0.000358742 0)
(-0.00446709 0.000368591 0)
(-0.0050097 0.000376902 0)
(-0.00556302 0.000383838 0)
(-0.00612493 0.000389472 0)
(-0.00669336 0.000393796 0)
(-0.00726617 0.000396732 0)
(-0.00784107 0.000398141 0)
(-0.00841557 0.000397832 0)
(-0.00898688 0.000395578 0)
(-0.00955192 0.000391121 0)
(-0.0101073 0.000384192 0)
(-0.0106491 0.000374518 0)
(-0.0111733 0.000361835 0)
(-0.0116755 0.000345895 0)
(-0.0121509 0.000326483 0)
(-0.0125946 0.000303421 0)
(-0.0130014 0.000276581 0)
(-0.0133661 0.000245894 0)
(-0.0136834 0.000211356 0)
(-0.0139481 0.000173038 0)
(-0.0141554 0.000131093 0)
(-0.0143005 8.57564e-05 0)
(-0.0143792 3.73541e-05 0)
(-0.0143878 -1.36989e-05 0)
(-0.0143232 -6.68976e-05 0)
(-0.014183 -0.000121651 0)
(-0.013966 -0.00017729 0)
(-0.0136714 -0.000233072 0)
(-0.0133001 -0.000288198 0)
(-0.0128536 -0.000341822 0)
(-0.0123347 -0.000393071 0)
(-0.0117474 -0.000441063 0)
(-0.0110969 -0.000484931 0)
(-0.0103894 -0.000523842 0)
(-0.00963231 -0.000557019 0)
(-0.00883383 -0.000583768 0)
(-0.00800313 -0.000603496 0)
(-0.00715003 -0.000615729 0)
(-0.00628489 -0.000620134 0)
(-0.00541841 -0.000616525 0)
(-0.00456144 -0.000604878 0)
(-0.00372477 -0.000585327 0)
(-0.00291888 -0.000558173 0)
(-0.0021538 -0.000523868 0)
(-0.00143886 -0.000483014 0)
(-0.000782504 -0.000436341 0)
(-0.000192155 -0.0003847 0)
(0.000325965 -0.000329029 0)
(0.00076695 -0.000270351 0)
(0.00112732 -0.000209752 0)
(0.00140511 -0.000148368 0)
(0.00159992 -8.73771e-05 0)
(0.00171306 -2.801e-05 0)
(0.00174753 2.84386e-05 0)
(0.00170823 8.05758e-05 0)
(0.00160202 0.000126858 0)
(0.00143796 0.00016551 0)
(0.00122755 0.000194423 0)
(0.000985064 0.000211017 0)
(0.000727941 0.000212162 0)
(0.000476713 0.000194257 0)
(0.000254463 0.000153647 0)
(8.87241e-05 8.89798e-05 0)
(1.19225e-05 1.40939e-05 0)
(1.49752e-05 -6.85394e-05 0)
(3.69244e-05 -8.29789e-05 0)
(2.37508e-05 -2.36997e-05 0)
(-5.48405e-05 7.53703e-05 0)
(-0.000215058 0.000192709 0)
(-0.000462987 0.000314535 0)
(-0.00079864 0.000432446 0)
(-0.00121807 0.000541744 0)
(-0.00171491 0.000640155 0)
(-0.00228162 0.000726958 0)
(-0.00291026 0.000802394 0)
(-0.00359307 0.000867264 0)
(-0.0043228 0.00092265 0)
(-0.00509283 0.000969729 0)
(-0.00589729 0.00100963 0)
(-0.00673097 0.00104337 0)
(-0.00758925 0.00107178 0)
(-0.00846799 0.00109545 0)
(-0.0093634 0.00111481 0)
(-0.0102718 0.00113002 0)
(-0.0111897 0.00114106 0)
(-0.0121132 0.00114772 0)
(-0.0130386 0.00114963 0)
(-0.0139615 0.0011463 0)
(-0.0148774 0.00113712 0)
(-0.0157811 0.00112144 0)
(-0.016667 0.00109856 0)
(-0.0175291 0.00106777 0)
(-0.0183607 0.00102841 0)
(-0.019155 0.000979853 0)
(-0.0199045 0.000921574 0)
(-0.0206015 0.000853155 0)
(-0.0212381 0.000774316 0)
(-0.0218062 0.00068494 0)
(-0.0222981 0.000585094 0)
(-0.0227059 0.000475047 0)
(-0.0230221 0.000355285 0)
(-0.02324 0.000226522 0)
(-0.0233532 8.97048e-05 0)
(-0.0233564 -5.39807e-05 0)
(-0.0232453 -0.000203117 0)
(-0.0230167 -0.000356068 0)
(-0.0226687 -0.000510994 0)
(-0.0222009 -0.00066588 0)
(-0.0216146 -0.000818561 0)
(-0.0209125 -0.00096677 0)
(-0.0200992 -0.00110818 0)
(-0.0191809 -0.00124044 0)
(-0.0181656 -0.00136125 0)
(-0.0170627 -0.00146842 0)
(-0.0158835 -0.00155991 0)
(-0.0146405 -0.00163388 0)
(-0.0133475 -0.00168878 0)
(-0.0120191 -0.00172336 0)
(-0.0106711 -0.00173674 0)
(-0.00931943 -0.00172843 0)
(-0.00798041 -0.00169835 0)
(-0.00667027 -0.00164685 0)
(-0.00540484 -0.0015747 0)
(-0.00419925 -0.00148309 0)
(-0.00306765 -0.00137359 0)
(-0.00202293 -0.00124813 0)
(-0.00107643 -0.00110897 0)
(-0.000237767 -0.000958628 0)
(0.000485411 -0.000799868 0)
(0.00108759 -0.00063564 0)
(0.00156554 -0.000469059 0)
(0.00191843 -0.000303387 0)
(0.002148 -0.00014204 0)
(0.00225861 1.1385e-05 0)
(0.00225746 0.000153045 0)
(0.0021547 0.00027876 0)
(0.00196366 0.000383885 0)
(0.00170106 0.000463161 0)
(0.00138726 0.000510597 0)
(0.00104646 0.000519506 0)
(0.000706197 0.00048298 0)
(0.000396311 0.000395112 0)
(0.000153677 0.000254648 0)
(2.72727e-05 7.80949e-05 0)
(7.9897e-06 -8.39893e-05 0)
(-2.37767e-06 -6.90004e-05 0)
(-8.04489e-05 5.57822e-05 0)
(-0.000250507 0.000241458 0)
(-0.000526464 0.000456251 0)
(-0.000913832 0.000678713 0)
(-0.00141194 0.000895052 0)
(-0.00201588 0.00109709 0)
(-0.00271812 0.00128055 0)
(-0.00350969 0.00144378 0)
(-0.00438107 0.00158682 0)
(-0.00532282 0.00171077 0)
(-0.00632596 0.00181732 0)
(-0.00738219 0.00190835 0)
(-0.00848396 0.00198575 0)
(-0.00962448 0.00205121 0)
(-0.0107976 0.00210613 0)
(-0.0119976 0.00215156 0)
(-0.0132193 0.00218817 0)
(-0.0144575 0.00221626 0)
(-0.0157072 0.00223573 0)
(-0.0169631 0.0022462 0)
(-0.0182195 0.00224699 0)
(-0.0194707 0.00223717 0)
(-0.0207101 0.00221568 0)
(-0.0219308 0.00218129 0)
(-0.023125 0.00213277 0)
(-0.0242845 0.00206886 0)
(-0.0254006 0.00198836 0)
(-0.026464 0.00189021 0)
(-0.0274648 0.0017735 0)
(-0.028393 0.00163753 0)
(-0.0292383 0.00148189 0)
(-0.0299904 0.00130646 0)
(-0.030639 0.00111147 0)
(-0.0311743 0.000897528 0)
(-0.0315868 0.000665639 0)
(-0.031868 0.000417234 0)
(-0.03201 0.000154171 0)
(-0.0320062 -0.000121265 0)
(-0.0318514 -0.000406373 0)
(-0.0315419 -0.000698058 0)
(-0.0310755 -0.000992867 0)
(-0.0304522 -0.00128704 0)
(-0.0296737 -0.00157656 0)
(-0.028744 -0.00185724 0)
(-0.0276691 -0.00212478 0)
(-0.0264571 -0.00237489 0)
(-0.0251184 -0.00260335 0)
(-0.0236653 -0.00280615 0)
(-0.0221121 -0.00297956 0)
(-0.0204749 -0.00312024 0)
(-0.0187711 -0.00322534 0)
(-0.0170196 -0.0032926 0)
(-0.0152403 -0.00332038 0)
(-0.0134536 -0.00330776 0)
(-0.0116804 -0.00325459 0)
(-0.00994138 -0.00316146 0)
(-0.00825679 -0.00302975 0)
(-0.0066461 -0.00286159 0)
(-0.00512757 -0.00265985 0)
(-0.0037179 -0.00242804 0)
(-0.0024319 -0.00217029 0)
(-0.0012822 -0.00189126 0)
(-0.000278963 -0.00159605 0)
(0.000570329 -0.00129017 0)
(0.00126112 -0.00097944 0)
(0.00179192 -0.000670005 0)
(0.00216451 -0.000368292 0)
(0.00238407 -8.10596e-05 0)
(0.00245933 0.00018453 0)
(0.00240273 0.000420795 0)
(0.00223059 0.0006194 0)
(0.00196324 0.000771211 0)
(0.00162519 0.00086624 0)
(0.00124518 0.000893846 0)
(0.000855453 0.000843466 0)
(0.000490891 0.000706242 0)
(0.000196532 0.000478654 0)
(3.68287e-05 0.000172367 0)
(-9.61772e-07 -7.4947e-05 0)
(-5.25775e-05 4.81616e-06 0)
(-0.000211588 0.000223982 0)
(-0.000491523 0.000521518 0)
(-0.00090133 0.000856708 0)
(-0.00144443 0.0012012 0)
(-0.00211846 0.00153617 0)
(-0.00291705 0.00185004 0)
(-0.00383134 0.00213644 0)
(-0.00485109 0.00239269 0)
(-0.00596549 0.00261856 0)
(-0.00716377 0.0028154 0)
(-0.00843559 0.00298544 0)
(-0.00977133 0.0031313 0)
(-0.0111621 0.00325562 0)
(-0.0125997 0.00336079 0)
(-0.0140767 0.00344881 0)
(-0.0155861 0.00352116 0)
(-0.0171213 0.00357878 0)
(-0.0186757 0.00362203 0)
(-0.0202429 0.00365075 0)
(-0.021816 0.00366428 0)
(-0.023388 0.00366155 0)
(-0.0249513 0.00364114 0)
(-0.0264976 0.00360139 0)
(-0.0280181 0.00354046 0)
(-0.0295034 0.00345646 0)
(-0.030943 0.00334751 0)
(-0.0323263 0.00321183 0)
(-0.0336418 0.00304784 0)
(-0.0348777 0.00285424 0)
(-0.0360216 0.00263009 0)
(-0.0370613 0.00237486 0)
(-0.0379844 0.0020885 0)
(-0.0387788 0.00177152 0)
(-0.0394328 0.00142501 0)
(-0.0399353 0.00105068 0)
(-0.0402763 0.000650896 0)
(-0.0404468 0.000228668 0)
(-0.0404392 -0.000212339 0)
(-0.0402475 -0.000667831 0)
(-0.0398676 -0.00113293 0)
(-0.0392975 -0.00160221 0)
(-0.0385371 -0.00206982 0)
(-0.0375888 -0.0025295 0)
(-0.0364576 -0.00297477 0)
(-0.0351506 -0.00339901 0)
(-0.0336778 -0.00379558 0)
(-0.0320513 -0.00415801 0)
(-0.0302858 -0.00448012 0)
(-0.0283982 -0.00475618 0)
(-0.0264073 -0.00498106 0)
(-0.0243339 -0.00515038 0)
(-0.0222002 -0.00526062 0)
(-0.0200294 -0.00530926 0)
(-0.0178459 -0.00529483 0)
(-0.0156742 -0.00521702 0)
(-0.0135388 -0.0050767 0)
(-0.0114638 -0.0048759 0)
(-0.00947253 -0.00461786 0)
(-0.00758672 -0.0043069 0)
(-0.00582652 -0.0039484 0)
(-0.00420988 -0.00354871 0)
(-0.00275226 -0.00311499 0)
(-0.00146624 -0.00265518 0)
(-0.00036126 -0.00217785 0)
(0.00055665 -0.00169211 0)
(0.00128509 -0.00120757 0)
(0.00182549 -0.000734331 0)
(0.0021833 -0.000282948 0)
(0.00236808 0.000135453 0)
(0.00239372 0.000509091 0)
(0.00227848 0.000825398 0)
(0.00204511 0.00107092 0)
(0.00172094 0.00123134 0)
(0.00133788 0.00129171 0)
(0.000931757 0.00123732 0)
(0.000541674 0.00105514 0)
(0.000219575 0.000736731 0)
(4.17058e-05 0.000284096 0)
(-1.06472e-05 -3.76391e-05 0)
(-0.00010837 0.000148357 0)
(-0.000358409 0.000494495 0)
(-0.00076082 0.00093078 0)
(-0.00131771 0.00140933 0)
(-0.00202917 0.00189607 0)
(-0.00289021 0.00236788 0)
(-0.0038924 0.00281019 0)
(-0.00502527 0.00321481 0)
(-0.00627721 0.00357812 0)
(-0.00763619 0.00389966 0)
(-0.0090903 0.00418103 0)
(-0.0106281 0.00442501 0)
(-0.0122388 0.00463494 0)
(-0.0139125 0.00481421 0)
(-0.0156399 0.00496591 0)
(-0.0174124 0.00509261 0)
(-0.0192219 0.0051962 0)
(-0.0210604 0.00527784 0)
(-0.0229202 0.00533791 0)
(-0.0247935 0.00537611 0)
(-0.0266721 0.00539144 0)
(-0.0285475 0.00538236 0)
(-0.0304104 0.00534688 0)
(-0.032251 0.00528267 0)
(-0.0340588 0.0051872 0)
(-0.0358225 0.00505783 0)
(-0.0375299 0.00489202 0)
(-0.0391685 0.00468735 0)
(-0.0407248 0.00444175 0)
(-0.0421851 0.00415351 0)
(-0.0435353 0.00382144 0)
(-0.0447613 0.00344499 0)
(-0.0458488 0.00302426 0)
(-0.0467842 0.00256015 0)
(-0.0475541 0.00205437 0)
(-0.0481462 0.00150951 0)
(-0.0485492 0.000929051 0)
(-0.048753 0.000317383 0)
(-0.0487492 -0.000320207 0)
(-0.0485313 -0.000977574 0)
(-0.0480947 -0.00164778 0)
(-0.0474374 -0.00232315 0)
(-0.0465594 -0.00299541 0)
(-0.0454638 -0.0036558 0)
(-0.0441559 -0.00429522 0)
(-0.0426442 -0.0049044 0)
(-0.0409397 -0.00547407 0)
(-0.0390562 -0.00599522 0)
(-0.0370102 -0.0064592 0)
(-0.0348207 -0.00685804 0)
(-0.0325089 -0.00718454 0)
(-0.0300982 -0.00743257 0)
(-0.0276134 -0.00759716 0)
(-0.025081 -0.00767472 0)
(-0.0225283 -0.00766313 0)
(-0.0199832 -0.00756184 0)
(-0.0174735 -0.00737193 0)
(-0.0150268 -0.00709614 0)
(-0.0126696 -0.00673883 0)
(-0.0104271 -0.00630596 0)
(-0.00832261 -0.00580495 0)
(-0.00637705 -0.00524459 0)
(-0.00460861 -0.00463492 0)
(-0.0030323 -0.00398704 0)
(-0.00165963 -0.00331302 0)
(-0.00049829 -0.00262573 0)
(0.00044811 -0.00193876 0)
(0.00118028 -0.00126638 0)
(0.00170341 -0.000623502 0)
(0.00202735 -2.57222e-05 0)
(0.00216669 0.000510589 0)
(0.00214087 0.000968199 0)
(0.0019742 0.00132895 0)
(0.00169593 0.0015738 0)
(0.00134033 0.00168311 0)
(0.000946062 0.00163729 0)
(0.000555875 0.00141798 0)
(0.000227028 0.00100994 0)
(4.33224e-05 0.000403561 0)
(-2.04989e-05 2.96301e-05 0)
(-0.000166841 0.000367426 0)
(-0.000514037 0.000876175 0)
(-0.00104725 0.0014798 0)
(-0.00176058 0.00212516 0)
(-0.0026498 0.00277387 0)
(-0.00370656 0.00339949 0)
(-0.00491978 0.00398515 0)
(-0.006277 0.00452129 0)
(-0.00776507 0.00500361 0)
(-0.0093707 0.00543161 0)
(-0.0110809 0.00580723 0)
(-0.0128832 0.00613388 0)
(-0.014766 0.00641562 0)
(-0.0167184 0.00665657 0)
(-0.0187302 0.00686051 0)
(-0.0207918 0.00703054 0)
(-0.0228941 0.00716891 0)
(-0.0250282 0.00727693 0)
(-0.0271851 0.00735497 0)
(-0.0293559 0.00740248 0)
(-0.0315312 0.00741806 0)
(-0.0337008 0.00739963 0)
(-0.0358544 0.00734452 0)
(-0.0379804 0.00724968 0)
(-0.0400668 0.0071118 0)
(-0.0421006 0.00692748 0)
(-0.044068 0.00669343 0)
(-0.0459547 0.00640663 0)
(-0.0477456 0.00606444 0)
(-0.0494253 0.00566479 0)
(-0.0509778 0.00520631 0)
(-0.0523875 0.00468844 0)
(-0.0536386 0.00411155 0)
(-0.0547159 0.00347701 0)
(-0.0556047 0.00278729 0)
(-0.0562914 0.002046 0)
(-0.0567636 0.00125791 0)
(-0.0570103 0.000428983 0)
(-0.0570223 -0.000433688 0)
(-0.0567924 -0.00132189 0)
(-0.0563158 -0.0022264 0)
(-0.0555901 -0.00313707 0)
(-0.0546155 -0.00404297 0)
(-0.0533952 -0.00493256 0)
(-0.051935 -0.00579389 0)
(-0.0502441 -0.00661478 0)
(-0.0483344 -0.0073831 0)
(-0.0462209 -0.008087 0)
(-0.0439216 -0.00871515 0)
(-0.041457 -0.00925704 0)
(-0.0388504 -0.00970322 0)
(-0.0361271 -0.0100455 0)
(-0.0333145 -0.0102774 0)
(-0.0304417 -0.010394 0)
(-0.0275386 -0.0103923 0)
(-0.0246361 -0.0102715 0)
(-0.0217651 -0.0100328 0)
(-0.0189563 -0.00967954 0)
(-0.0162394 -0.00921728 0)
(-0.0136427 -0.00865364 0)
(-0.0111928 -0.00799823 0)
(-0.00891337 -0.00726249 0)
(-0.0068255 -0.00645953 0)
(-0.00494673 -0.00560396 0)
(-0.00329081 -0.00471167 0)
(-0.00186734 -0.00379968 0)
(-0.000681434 -0.002886 0)
(0.000266502 -0.00198951 0)
(0.000980988 -0.00112992 0)
(0.00147161 -0.000327752 0)
(0.00175313 0.00039562 0)
(0.00184556 0.0010179 0)
(0.00177414 0.00151584 0)
(0.00156949 0.0018653 0)
(0.00126762 0.00204141 0)
(0.000909506 0.00201908 0)
(0.000540887 0.00177373 0)
(0.000222734 0.0012823 0)
(4.27424e-05 0.000523486 0)
(-3.03401e-05 0.000127585 0)
(-0.000226521 0.000665303 0)
(-0.000674393 0.00137458 0)
(-0.00134369 0.00217565 0)
(-0.00221977 0.00301198 0)
(-0.00329348 0.0038423 0)
(-0.00455244 0.004638 0)
(-0.00598246 0.00538078 0)
(-0.00756874 0.00606026 0)
(-0.00929635 0.00667197 0)
(-0.0111506 0.00721561 0)
(-0.0131175 0.00769367 0)
(-0.0151837 0.00811026 0)
(-0.0173366 0.00847023 0)
(-0.0195647 0.00877847 0)
(-0.0218569 0.00903939 0)
(-0.0242029 0.00925661 0)
(-0.0265928 0.00943266 0)
(-0.0290167 0.00956898 0)
(-0.0314648 0.00966579 0)
(-0.0339269 0.00972223 0)
(-0.0363924 0.00973643 0)
(-0.0388503 0.00970568 0)
(-0.0412885 0.00962657 0)
(-0.0436944 0.00949524 0)
(-0.0460543 0.00930754 0)
(-0.0483538 0.00905926 0)
(-0.0505777 0.00874638 0)
(-0.0527099 0.00836517 0)
(-0.0547338 0.00791251 0)
(-0.0566324 0.00738595 0)
(-0.0583884 0.00678397 0)
(-0.0599844 0.00610609 0)
(-0.0614034 0.00535298 0)
(-0.0626287 0.0045266 0)
(-0.0636445 0.00363028 0)
(-0.0644358 0.00266876 0)
(-0.0649892 0.00164825 0)
(-0.0652927 0.000576407 0)
(-0.0653364 -0.000537699 0)
(-0.0651125 -0.00168363 0)
(-0.0646154 -0.0028497 0)
(-0.0638424 -0.0040231 0)
(-0.0627936 -0.00519005 0)
(-0.0614719 -0.00633605 0)
(-0.0598836 -0.00744607 0)
(-0.058038 -0.00850482 0)
(-0.0559476 -0.00949705 0)
(-0.0536284 -0.0104079 0)
(-0.0510991 -0.011223 0)
(-0.0483817 -0.0119292 0)
(-0.045501 -0.0125145 0)
(-0.042484 -0.0129684 0)
(-0.0393603 -0.0132826 0)
(-0.0361611 -0.0134508 0)
(-0.0329189 -0.0134688 0)
(-0.0296674 -0.0133355 0)
(-0.0264403 -0.0130518 0)
(-0.0232713 -0.012622 0)
(-0.0201933 -0.0120525 0)
(-0.0172379 -0.0113527 0)
(-0.0144346 -0.0105344 0)
(-0.0118103 -0.00961191 0)
(-0.00938908 -0.00860157 0)
(-0.00719112 -0.00752171 0)
(-0.00523272 -0.00639236 0)
(-0.00352567 -0.00523503 0)
(-0.00207694 -0.00407251 0)
(-0.00088842 -0.0029287 0)
(4.33203e-05 -0.00182849 0)
(0.000727183 -0.00079774 0)
(0.00117764 0.000136767 0)
(0.00141481 0.000947288 0)
(0.00146445 0.0016051 0)
(0.00135804 0.00208053 0)
(0.00113295 0.00234305 0)
(0.000831953 0.00236151 0)
(0.00050314 0.00210456 0)
(0.000209792 0.00154102 0)
(4.07217e-05 0.000638611 0)
(-4.0077e-05 0.000256408 0)
(-0.000286584 0.00104367 0)
(-0.000837023 0.001993 0)
(-0.00164554 0.00302288 0)
(-0.00268842 0.00407504 0)
(-0.00395112 0.00510681 0)
(-0.00541681 0.00608859 0)
(-0.00706779 0.00700156 0)
(-0.00888661 0.0078353 0)
(-0.0108564 0.00858565 0)
(-0.012961 0.00925292 0)
(-0.0151852 0.0098404 0)
(-0.0175147 0.0103531 0)
(-0.0199365 0.0107967 0)
(-0.022438 0.0111769 0)
(-0.0250079 0.0114989 0)
(-0.0276349 0.0117665 0)
(-0.0303086 0.0119828 0)
(-0.0330183 0.012149 0)
(-0.0357533 0.0122652 0)
(-0.0385026 0.0123303 0)
(-0.0412546 0.0123416 0)
(-0.0439971 0.0122959 0)
(-0.0467169 0.0121888 0)
(-0.0494001 0.0120156 0)
(-0.0520318 0.0117714 0)
(-0.0545961 0.011451 0)
(-0.0570765 0.0110497 0)
(-0.0594554 0.010563 0)
(-0.061715 0.00998721 0)
(-0.0638366 0.00931966 0)
(-0.0658016 0.00855865 0)
(-0.0675912 0.00770382 0)
(-0.0691871 0.0067562 0)
(-0.0705712 0.00571842 0)
(-0.0717265 0.00459473 0)
(-0.072637 0.0033911 0)
(-0.0732879 0.00211525 0)
(-0.0736664 0.000776656 0)
(-0.0737615 -0.000613533 0)
(-0.0735645 -0.00204253 0)
(-0.0730692 -0.00349607 0)
(-0.0722723 -0.00495851 0)
(-0.0711732 -0.00641311 0)
(-0.0697747 -0.00784221 0)
(-0.0680826 -0.00922753 0)
(-0.0661064 -0.0105505 0)
(-0.0638587 -0.0117925 0)
(-0.0613559 -0.0129353 0)
(-0.0586174 -0.0139616 0)
(-0.0556661 -0.0148551 0)
(-0.0525278 -0.0156009 0)
(-0.0492313 -0.0161862 0)
(-0.0458078 -0.0166004 0)
(-0.0422905 -0.0168355 0)
(-0.0387145 -0.0168862 0)
(-0.0351159 -0.0167503 0)
(-0.0315313 -0.016429 0)
(-0.0279975 -0.0159266 0)
(-0.0245506 -0.0152507 0)
(-0.0212254 -0.0144125 0)
(-0.0180549 -0.0134259 0)
(-0.0150692 -0.012308 0)
(-0.0122955 -0.0110788 0)
(-0.00975717 -0.00976029 0)
(-0.00747331 -0.00837706 0)
(-0.00545825 -0.00695538 0)
(-0.00372118 -0.00552314 0)
(-0.00226584 -0.00410965 0)
(-0.00109029 -0.0027454 0)
(-0.000186713 -0.00146195 0)
(0.000458709 -0.000291887 0)
(0.000865813 0.00073119 0)
(0.00106051 0.00157269 0)
(0.00107483 0.00219698 0)
(0.000947076 0.00256747 0)
(0.000721418 0.00264656 0)
(0.000447732 0.00239584 0)
(0.000190512 0.00177611 0)
(3.77676e-05 0.000745196 0)
(-4.96917e-05 0.000416096 0)
(-0.0003466 0.00150329 0)
(-0.00100042 0.00273319 0)
(-0.00194979 0.00402413 0)
(-0.00316176 0.00531762 0)
(-0.00461614 0.00657097 0)
(-0.00629138 0.00775475 0)
(-0.00816597 0.00885065 0)
(-0.0102196 0.00984895 0)
(-0.0124332 0.0107464 0)
(-0.0147891 0.0115445 0)
(-0.0172709 0.0122475 0)
(-0.0198635 0.0128616 0)
(-0.022553 0.0133936 0)
(-0.0253265 0.0138499 0)
(-0.0281718 0.0142364 0)
(-0.0310776 0.0145574 0)
(-0.0340324 0.0148161 0)
(-0.0370253 0.0150137 0)
(-0.0400447 0.0151502 0)
(-0.0430789 0.0152236 0)
(-0.0461155 0.015231 0)
(-0.0491412 0.0151681 0)
(-0.0521419 0.0150297 0)
(-0.0551025 0.0148103 0)
(-0.0580071 0.0145037 0)
(-0.0608385 0.0141042 0)
(-0.0635788 0.0136059 0)
(-0.0662093 0.0130039 0)
(-0.0687107 0.0122939 0)
(-0.0710632 0.0114728 0)
(-0.0732468 0.0105389 0)
(-0.0752414 0.00949196 0)
(-0.0770273 0.00833336 0)
(-0.0785852 0.00706642 0)
(-0.0798969 0.00569639 0)
(-0.0809449 0.00423052 0)
(-0.0817135 0.00267809 0)
(-0.0821886 0.00105044 0)
(-0.0823581 -0.000639128 0)
(-0.0822123 -0.0023754 0)
(-0.0817439 -0.00414142 0)
(-0.0809485 -0.00591865 0)
(-0.079825 -0.00768724 0)
(-0.0783751 -0.00942625 0)
(-0.0766044 -0.011114 0)
(-0.0745216 -0.0127283 0)
(-0.0721395 -0.0142472 0)
(-0.0694741 -0.0156489 0)
(-0.0665453 -0.0169126 0)
(-0.0633765 -0.0180186 0)
(-0.0599944 -0.018949 0)
(-0.056429 -0.0196883 0)
(-0.052713 -0.0202234 0)
(-0.0488816 -0.020544 0)
(-0.0449721 -0.0206435 0)
(-0.0410231 -0.0205187 0)
(-0.0370743 -0.0201702 0)
(-0.0331655 -0.0196026 0)
(-0.0293363 -0.0188245 0)
(-0.0256249 -0.0178484 0)
(-0.0220678 -0.0166907 0)
(-0.018699 -0.0153713 0)
(-0.0155492 -0.0139135 0)
(-0.0126451 -0.0123438 0)
(-0.0100091 -0.0106912 0)
(-0.00765841 -0.00898706 0)
(-0.00560492 -0.0072648 0)
(-0.00385464 -0.00555945 0)
(-0.00240748 -0.00390748 0)
(-0.00125708 -0.00234662 0)
(-0.000390643 -0.000915647 0)
(0.000211076 0.000345572 0)
(0.000573826 0.00139615 0)
(0.000729901 0.00219413 0)
(0.000718234 0.00269643 0)
(0.000584014 0.00285875 0)
(0.000378463 0.00263552 0)
(0.000166531 0.00197978 0)
(3.42086e-05 0.000840552 0)
(-5.91878e-05 0.0006065 0)
(-0.000406326 0.00204429 0)
(-0.00116362 0.00359585 0)
(-0.00225435 0.00518067 0)
(-0.00363635 0.00674145 0)
(-0.00528363 0.00823673 0)
(-0.00716975 0.00963848 0)
(-0.00926923 0.0109298 0)
(-0.0115587 0.0121026 0)
(-0.0140169 0.0131553 0)
(-0.0166244 0.0140907 0)
(-0.0193637 0.0149149 0)
(-0.0222187 0.0156352 0)
(-0.0251749 0.0162597 0)
(-0.0282189 0.0167958 0)
(-0.0313382 0.01725 0)
(-0.0345209 0.0176272 0)
(-0.0377553 0.0179306 0)
(-0.0410298 0.0181613 0)
(-0.0443324 0.018319 0)
(-0.0476508 0.0184011 0)
(-0.0509717 0.018404 0)
(-0.0542811 0.0183224 0)
(-0.0575641 0.0181503 0)
(-0.0608046 0.017881 0)
(-0.0639856 0.0175075 0)
(-0.0670889 0.0170229 0)
(-0.0700954 0.0164207 0)
(-0.0729853 0.0156951 0)
(-0.0757381 0.0148414 0)
(-0.0783327 0.013856 0)
(-0.0807478 0.0127371 0)
(-0.0829622 0.0114847 0)
(-0.0849548 0.0101004 0)
(-0.0867051 0.00858839 0)
(-0.0881933 0.00695481 0)
(-0.089401 0.00520821 0)
(-0.0903108 0.00335946 0)
(-0.0909074 0.00142177 0)
(-0.0911774 -0.000589363 0)
(-0.0911096 -0.00265628 0)
(-0.0906955 -0.00475929 0)
(-0.0899294 -0.00687689 0)
(-0.0888089 -0.008986 0)
(-0.0873348 -0.0110623 0)
(-0.0855114 -0.0130806 0)
(-0.0833468 -0.015015 0)
(-0.0808529 -0.0168397 0)
(-0.0780456 -0.0185292 0)
(-0.0749446 -0.0200589 0)
(-0.0715733 -0.0214057 0)
(-0.0679593 -0.0225481 0)
(-0.0641332 -0.0234674 0)
(-0.0601293 -0.0241477 0)
(-0.0559844 -0.0245763 0)
(-0.0517381 -0.0247446 0)
(-0.0474317 -0.024648 0)
(-0.0431077 -0.0242865 0)
(-0.0388094 -0.0236645 0)
(-0.0345798 -0.0227913 0)
(-0.0304611 -0.0216809 0)
(-0.0264937 -0.0203517 0)
(-0.0227157 -0.0188266 0)
(-0.0191617 -0.0171326 0)
(-0.0158623 -0.0153003 0)
(-0.0128437 -0.0133637 0)
(-0.0101266 -0.0113594 0)
(-0.00772583 -0.00932677 0)
(-0.0056502 -0.00730695 0)
(-0.0039019 -0.00534282 0)
(-0.00247638 -0.00347865 0)
(-0.00136224 -0.00175992 0)
(-0.000541106 -0.000233193 0)
(1.23351e-05 0.00105393 0)
(0.000330377 0.00205274 0)
(0.000452326 0.00271335 0)
(0.000424114 0.00298451 0)
(0.000298012 0.00281347 0)
(0.000138964 0.00214583 0)
(3.02528e-05 0.000922698 0)
(-6.85726e-05 0.000827394 0)
(-0.000465598 0.0026664 0)
(-0.00132592 0.00458088 0)
(-0.00255769 0.00649269 0)
(-0.00410954 0.00834696 0)
(-0.0059497 0.0101047 0)
(-0.00804676 0.0117404 0)
(-0.0103711 0.0132396 0)
(-0.0128964 0.0145967 0)
(-0.0155989 0.0158122 0)
(-0.0184575 0.0168913 0)
(-0.0214534 0.0178418 0)
(-0.0245698 0.0186729 0)
(-0.0277915 0.0193939 0)
(-0.0311048 0.0200133 0)
(-0.0344968 0.0205384 0)
(-0.0379552 0.0209746 0)
(-0.0414681 0.021325 0)
(-0.0450235 0.0215909 0)
(-0.048609 0.0217712 0)
(-0.0522119 0.0218629 0)
(-0.0558182 0.0218614 0)
(-0.0594135 0.0217606 0)
(-0.0629818 0.0215534 0)
(-0.0665065 0.0212319 0)
(-0.0699694 0.0207881 0)
(-0.0733516 0.0202141 0)
(-0.076633 0.0195026 0)
(-0.0797926 0.0186468 0)
(-0.0828088 0.0176415 0)
(-0.0856594 0.0164829 0)
(-0.0883219 0.0151688 0)
(-0.0907738 0.0136993 0)
(-0.0929927 0.0120766 0)
(-0.0949567 0.0103054 0)
(-0.0966449 0.00839275 0)
(-0.098037 0.00634851 0)
(-0.0991144 0.00418509 0)
(-0.0998602 0.00191757 0)
(-0.100259 -0.000436415 0)
(-0.100299 -0.00285674 0)
(-0.0999687 -0.00532098 0)
(-0.0992616 -0.00780462 0)
(-0.0981735 -0.0102813 0)
(-0.0967035 -0.0127232 0)
(-0.0948547 -0.0151014 0)
(-0.0926339 -0.0173863 0)
(-0.0900518 -0.0195479 0)
(-0.0871235 -0.0215569 0)
(-0.0838681 -0.0233845 0)
(-0.0803092 -0.0250035 0)
(-0.0764741 -0.0263889 0)
(-0.0723945 -0.0275181 0)
(-0.0681057 -0.0283719 0)
(-0.0636462 -0.028935 0)
(-0.0590576 -0.0291961 0)
(-0.0543839 -0.029149 0)
(-0.0496708 -0.0287924 0)
(-0.044965 -0.0281305 0)
(-0.0403135 -0.0271728 0)
(-0.0357627 -0.0259344 0)
(-0.0313573 -0.024436 0)
(-0.02714 -0.0227033 0)
(-0.0231498 -0.0207668 0)
(-0.0194221 -0.0186616 0)
(-0.015987 -0.0164268 0)
(-0.0128692 -0.0141048 0)
(-0.0100874 -0.011741 0)
(-0.00765351 -0.00938322 0)
(-0.00557244 -0.00708114 0)
(-0.0038419 -0.00488613 0)
(-0.00245221 -0.0028508 0)
(-0.0013862 -0.00102891 0)
(-0.000619244 0.000524746 0)
(-0.000119277 0.0017543 0)
(0.000153175 0.00260272 0)
(0.000244593 0.00301155 0)
(0.000208135 0.00292089 0)
(0.000108525 0.00226913 0)
(2.60266e-05 0.000990119 0)
(-7.78462e-05 0.00107849 0)
(-0.000524269 0.00336903 0)
(-0.00148674 0.00568758 0)
(-0.0028585 0.0079595 0)
(-0.00457913 0.0101335 0)
(-0.00661108 0.0121743 0)
(-0.00891795 0.0140599 0)
(-0.0114661 0.0157794 0)
(-0.0142259 0.0173304 0)
(-0.0171714 0.0187164 0)
(-0.0202797 0.0199452 0)
(-0.0235308 0.0210272 0)
(-0.0269071 0.0219734 0)
(-0.0303928 0.0227947 0)
(-0.0339739 0.0235011 0)
(-0.0376371 0.0241004 0)
(-0.0413702 0.0245985 0)
(-0.0451609 0.0249989 0)
(-0.048997 0.0253024 0)
(-0.052866 0.0255074 0)
(-0.0567545 0.0256104 0)
(-0.0606485 0.0256056 0)
(-0.0645326 0.0254861 0)
(-0.0683907 0.0252434 0)
(-0.0722051 0.0248687 0)
(-0.0759572 0.0243528 0)
(-0.079627 0.0236867 0)
(-0.0831936 0.0228619 0)
(-0.086635 0.0218712 0)
(-0.0899287 0.0207084 0)
(-0.0930512 0.0193694 0)
(-0.095979 0.0178519 0)
(-0.0986883 0.0161558 0)
(-0.101155 0.0142838 0)
(-0.103357 0.012241 0)
(-0.10527 0.0100356 0)
(-0.106874 0.00767831 0)
(-0.108148 0.00518322 0)
(-0.109072 0.00256713 0)
(-0.109631 -0.000150193 0)
(-0.109809 -0.00294621 0)
(-0.109595 -0.0057958 0)
(-0.108978 -0.00867142 0)
(-0.107953 -0.0115434 0)
(-0.106518 -0.0143804 0)
(-0.104672 -0.0171496 0)
(-0.102422 -0.0198173 0)
(-0.0997765 -0.0223495 0)
(-0.0967491 -0.0247123 0)
(-0.0933582 -0.0268728 0)
(-0.0896267 -0.0287993 0)
(-0.085582 -0.0304624 0)
(-0.081256 -0.0318355 0)
(-0.076685 -0.0328957 0)
(-0.0719089 -0.0336241 0)
(-0.0669716 -0.0340066 0)
(-0.0619195 -0.0340346 0)
(-0.0568016 -0.0337052 0)
(-0.0516684 -0.0330217 0)
(-0.046571 -0.0319936 0)
(-0.0415605 -0.030637 0)
(-0.0366865 -0.0289743 0)
(-0.0319966 -0.027034 0)
(-0.0275351 -0.0248503 0)
(-0.0233424 -0.022463 0)
(-0.0194535 -0.0199163 0)
(-0.0158978 -0.0172588 0)
(-0.0126982 -0.0145423 0)
(-0.0098704 -0.0118218 0)
(-0.00742256 -0.00915425 0)
(-0.00535512 -0.00659871 0)
(-0.00366048 -0.00421549 0)
(-0.00232301 -0.00206605 0)
(-0.00131903 -0.000212903 0)
(-0.000616914 0.00128048 0)
(-0.000177195 0.00234952 0)
(4.70541e-05 0.00292837 0)
(0.000109836 0.00294982 0)
(7.56232e-05 0.00234522 0)
(2.15998e-05 0.00104158 0)
(-8.69972e-05 0.00135945 0)
(-0.000582182 0.00415131 0)
(-0.00164553 0.00691475 0)
(-0.00315561 0.00957968 0)
(-0.0050431 0.0120996 0)
(-0.00726476 0.0144439 0)
(-0.00977927 0.0165954 0)
(-0.0125489 0.0185475 0)
(-0.015541 0.0203019 0)
(-0.0187272 0.021866 0)
(-0.0220829 0.0232507 0)
(-0.0255869 0.0244692 0)
(-0.0292209 0.0255349 0)
(-0.0329686 0.0264606 0)
(-0.0368156 0.0272576 0)
(-0.0407487 0.0279347 0)
(-0.0447553 0.0284983 0)
(-0.0488232 0.0289519 0)
(-0.0529401 0.0292961 0)
(-0.0570932 0.0295287 0)
(-0.0612691 0.0296455 0)
(-0.0654533 0.0296396 0)
(-0.0696303 0.0295029 0)
(-0.0737832 0.0292259 0)
(-0.0778939 0.0287985 0)
(-0.0819432 0.0282101 0)
(-0.0859104 0.0274507 0)
(-0.0897737 0.0265108 0)
(-0.0935105 0.0253821 0)
(-0.0970969 0.024058 0)
(-0.100509 0.0225335 0)
(-0.103721 0.0208062 0)
(-0.106709 0.018876 0)
(-0.109448 0.0167457 0)
(-0.111912 0.0144209 0)
(-0.114078 0.0119104 0)
(-0.115922 0.00922634 0)
(-0.117421 0.00638387 0)
(-0.118556 0.00340157 0)
(-0.119307 0.000301202 0)
(-0.119656 -0.00289237 0)
(-0.11959 -0.00615135 0)
(-0.119097 -0.0094452 0)
(-0.118169 -0.012741 0)
(-0.116799 -0.0160036 0)
(-0.114987 -0.0191964 0)
(-0.112736 -0.0222815 0)
(-0.110053 -0.0252203 0)
(-0.10695 -0.0279745 0)
(-0.103444 -0.0305063 0)
(-0.0995567 -0.0327792 0)
(-0.0953151 -0.034759 0)
(-0.0907511 -0.0364146 0)
(-0.0859016 -0.0377186 0)
(-0.0808079 -0.038648 0)
(-0.0755156 -0.0391852 0)
(-0.070074 -0.0393187 0)
(-0.0645353 -0.0390433 0)
(-0.0589539 -0.0383608 0)
(-0.0533855 -0.0372805 0)
(-0.047886 -0.0358188 0)
(-0.0425106 -0.0339997 0)
(-0.0373126 -0.0318544 0)