/*--------------------------------*- C++ -*----------------------------------*\
  =========                 |
  \\      /  F ield         | OpenFOAM: The Open Source CFD Toolbox
   \\    /   O peration     | Website:  https://openfoam.org
    \\  /    A nd           | Version:  7
     \\/     M anipulation  |
\*---------------------------------------------------------------------------*/
FoamFile
{
    version     2.0;
    format      ascii;
    class       surfaceScalarField;
    location    "0.125";
    object      phi;
}
// * * * * * * * * * * * * * * * * * * * * * * * * * * * * * * * * * * * * * //

dimensions      [0 3 -1 0 0 0 0];

internalField   nonuniform List<scalar> 
12640
(
1.35146e-10
-1.35178e-10
2.16445e-10
-8.1294e-11
1.16563e-10
9.98889e-11
-1.89178e-10
3.05754e-10
-6.89996e-10
5.00822e-10
-1.3605e-09
6.70501e-10
-2.17166e-09
8.11161e-10
-3.09522e-09
9.23563e-10
-4.10523e-09
1.01e-09
-5.17882e-09
1.07359e-09
-6.29669e-09
1.11787e-09
-7.44299e-09
1.1463e-09
-8.6049e-09
1.16191e-09
-9.7721e-09
1.1672e-09
-1.09364e-08
1.16428e-09
-1.20913e-08
1.15491e-09
-1.32318e-08
1.14049e-09
-1.43538e-08
1.12208e-09
-1.54544e-08
1.1005e-09
-1.65307e-08
1.07631e-09
-1.75805e-08
1.04987e-09
-1.8602e-08
1.02143e-09
-1.95931e-08
9.91162e-10
-2.05523e-08
9.59136e-10
-2.14777e-08
9.25386e-10
-2.23676e-08
8.89914e-10
-2.32203e-08
8.52696e-10
-2.4034e-08
8.13698e-10
-2.48068e-08
7.72889e-10
-2.55371e-08
7.30245e-10
-2.62228e-08
6.85744e-10
-2.68622e-08
6.39365e-10
-2.74533e-08
5.91095e-10
-2.79942e-08
5.4093e-10
-2.84831e-08
4.88877e-10
-2.89181e-08
4.34953e-10
-2.92973e-08
3.79184e-10
-2.96189e-08
3.21606e-10
-2.98811e-08
2.62267e-10
-3.00824e-08
2.01225e-10
-3.02209e-08
1.38557e-10
-3.02953e-08
7.43509e-11
-3.0304e-08
8.70641e-12
-3.02457e-08
-5.82624e-11
-3.01193e-08
-1.26423e-10
-2.99237e-08
-1.9563e-10
-2.96579e-08
-2.65723e-10
-2.93214e-08
-3.36526e-10
-2.89136e-08
-4.07846e-10
-2.84341e-08
-4.79478e-10
-2.78829e-08
-5.51199e-10
-2.72601e-08
-6.22773e-10
-2.65662e-08
-6.93944e-10
-2.58018e-08
-7.64439e-10
-2.49678e-08
-8.33965e-10
-2.40656e-08
-9.02199e-10
-2.30968e-08
-9.68784e-10
-2.20635e-08
-1.03332e-09
-2.09682e-08
-1.09535e-09
-1.98138e-08
-1.15435e-09
-1.86041e-08
-1.20969e-09
-1.73435e-08
-1.26063e-09
-1.60372e-08
-1.30629e-09
-1.46916e-08
-1.3456e-09
-1.33143e-08
-1.37729e-09
-1.19145e-08
-1.39985e-09
-1.0503e-08
-1.41151e-09
-9.09276e-09
-1.41021e-09
-7.69919e-09
-1.39358e-09
-6.34021e-09
-1.35899e-09
-5.03671e-09
-1.30351e-09
-3.81267e-09
-1.22404e-09
-2.69525e-09
-1.11741e-09
-1.71459e-09
-9.80656e-10
-9.03048e-10
-8.11542e-10
-2.93182e-10
-6.09863e-10
8.7239e-11
-3.80418e-10
2.26484e-10
-1.39244e-10
1.50985e-10
7.54969e-11
1.50984e-10
8.01106e-11
-2.15284e-10
-7.87448e-11
7.75714e-11
-6.44819e-10
6.65968e-10
-1.67205e-09
1.33299e-09
-3.15046e-09
1.97924e-09
-5.03707e-09
2.5571e-09
-7.27376e-09
3.04786e-09
-9.79845e-09
3.44825e-09
-1.25511e-08
3.76266e-09
-1.54769e-08
3.99937e-09
-1.85274e-08
4.16843e-09
-2.16614e-08
4.28029e-09
-2.48442e-08
4.34472e-09
-2.80474e-08
4.37037e-09
-3.12478e-08
4.36467e-09
-3.44267e-08
4.33386e-09
-3.75693e-08
4.28301e-09
-4.06633e-08
4.21609e-09
-4.36989e-08
4.13613e-09
-4.66679e-08
4.04536e-09
-4.95634e-08
3.94535e-09
-5.23792e-08
3.83718e-09
-5.51096e-08
3.72156e-09
-5.77494e-08
3.59891e-09
-6.02934e-08
3.46946e-09
-6.27368e-08
3.33331e-09
-6.50746e-08
3.19047e-09
-6.73018e-08
3.0409e-09
-6.94135e-08
2.88456e-09
-7.14046e-08
2.72139e-09
-7.32703e-08
2.55135e-09
-7.50053e-08
2.37442e-09
-7.66048e-08
2.19057e-09
-7.80637e-08
1.99985e-09
-7.93772e-08
1.8023e-09
-8.05402e-08
1.59802e-09
-8.15482e-08
1.38712e-09
-8.23963e-08
1.16978e-09
-8.30803e-08
9.4618e-10
-8.35956e-08
7.1658e-10
-8.39383e-08
4.81264e-10
-8.41045e-08
2.40572e-10
-8.40907e-08
-5.10858e-12
-8.38936e-08
-2.55352e-10
-8.35104e-08
-5.09661e-10
-8.29386e-08
-7.675e-10
-8.2176e-08
-1.02827e-09
-8.12212e-08
-1.29134e-09
-8.00731e-08
-1.55599e-09
-7.87311e-08
-1.82147e-09
-7.71953e-08
-2.08698e-09
-7.54665e-08
-2.35163e-09
-7.35459e-08
-2.61449e-09
-7.14358e-08
-2.87455e-09
-6.91391e-08
-3.13071e-09
-6.66595e-08
-3.38175e-09
-6.4002e-08
-3.62635e-09
-6.11723e-08
-3.86299e-09
-5.81777e-08
-4.08995e-09
-5.50269e-08
-4.30522e-09
-5.17301e-08
-4.50645e-09
-4.82999e-08
-4.69086e-09
-4.4751e-08
-4.85514e-09
-4.11013e-08
-4.99534e-09
-3.73717e-08
-5.10683e-09
-3.35875e-08
-5.18411e-09
-2.97781e-08
-5.22085e-09
-2.59785e-08
-5.20978e-09
-2.22294e-08
-5.14274e-09
-1.85776e-08
-5.01083e-09
-1.50765e-08
-4.80456e-09
-1.17861e-08
-4.51437e-09
-8.77225e-09
-4.1313e-09
-6.10463e-09
-3.64828e-09
-3.85377e-09
-3.0624e-09
-2.08439e-09
-2.37923e-09
-8.43849e-10
-1.62095e-09
-1.43416e-10
-8.3968e-10
7.57336e-11
-1.43655e-10
2.26717e-10
-9.87808e-11
-1.16495e-10
-6.66893e-10
6.45702e-10
-1.8397e-09
1.83879e-09
-3.65944e-09
3.15273e-09
-6.10931e-09
4.42911e-09
-9.13512e-09
5.58291e-09
-1.26623e-08
6.57506e-09
-1.66085e-08
7.39447e-09
-2.08917e-08
8.04588e-09
-2.5435e-08
8.54263e-09
-3.0169e-08
8.90244e-09
-3.50331e-08
9.14442e-09
-3.99756e-08
9.28718e-09
-4.4953e-08
9.34777e-09
-4.99294e-08
9.34113e-09
-5.48755e-08
9.27996e-09
-5.97673e-08
9.17473e-09
-6.45849e-08
9.03377e-09
-6.93124e-08
8.86354e-09
-7.39359e-08
8.66888e-09
-7.84439e-08
8.45332e-09
-8.2826e-08
8.21935e-09
-8.70731e-08
7.96864e-09
-9.11765e-08
7.70226e-09
-9.51279e-08
7.42086e-09
-9.89193e-08
7.12479e-09
-1.02543e-07
6.81421e-09
-1.05991e-07
6.48915e-09
-1.09256e-07
6.14962e-09
-1.12331e-07
5.79557e-09
-1.15206e-07
5.42698e-09
-1.17876e-07
5.04386e-09
-1.20331e-07
4.64626e-09
-1.22566e-07
4.23428e-09
-1.24572e-07
3.80809e-09
-1.26341e-07
3.36791e-09
-1.27868e-07
2.91405e-09
-1.29145e-07
2.44689e-09
-1.30166e-07
1.96689e-09
-1.30924e-07
1.47459e-09
-1.31414e-07
9.70636e-10
-1.31629e-07
4.55763e-10
-1.31565e-07
-6.91954e-11
-1.31217e-07
-6.03306e-10
-1.30581e-07
-1.14553e-09
-1.29654e-07
-1.69471e-09
-1.28432e-07
-2.24959e-09
-1.26915e-07
-2.80882e-09
-1.251e-07
-3.3709e-09
-1.22987e-07
-3.93424e-09
-1.20577e-07
-4.49713e-09
-1.17871e-07
-5.05772e-09
-1.14871e-07
-5.61403e-09
-1.11582e-07
-6.16391e-09
-1.08008e-07
-6.70502e-09
-1.04155e-07
-7.2348e-09
-1.00031e-07
-7.75037e-09
-9.56452e-08
-8.24852e-09
-9.10096e-08
-8.72554e-09
-8.61377e-08
-9.17715e-09
-8.10458e-08
-9.59833e-09
-7.57535e-08
-9.98317e-09
-7.0284e-08
-1.03247e-08
-6.46648e-08
-1.06145e-08
-5.89285e-08
-1.08431e-08
-5.31137e-08
-1.0999e-08
-4.72654e-08
-1.10692e-08
-4.14361e-08
-1.10391e-08
-3.56865e-08
-1.08923e-08
-3.00857e-08
-1.06116e-08
-2.47116e-08
-1.01787e-08
-1.96498e-08
-9.57623e-09
-1.49922e-08
-8.78881e-09
-1.08344e-08
-7.80607e-09
-7.26978e-09
-6.62705e-09
-4.38123e-09
-5.26778e-09
-2.22832e-09
-3.77386e-09
-8.28883e-10
-2.23912e-09
-1.35467e-10
-8.37071e-10
9.12509e-11
-3.06596e-10
1.90104e-10
-1.34291e-09
1.68202e-09
-3.17362e-09
3.6695e-09
-5.80749e-09
5.7866e-09
-9.20814e-09
7.82976e-09
-1.33071e-08
9.68186e-09
-1.80165e-08
1.12845e-08
-2.324e-08
1.2618e-08
-2.88808e-08
1.36867e-08
-3.48468e-08
1.45087e-08
-4.10539e-08
1.51095e-08
-4.74273e-08
1.55178e-08
-5.39021e-08
1.5762e-08
-6.04233e-08
1.5869e-08
-6.69447e-08
1.58625e-08
-7.34278e-08
1.57631e-08
-7.98409e-08
1.55878e-08
-8.61576e-08
1.53505e-08
-9.2356e-08
1.5062e-08
-9.84176e-08
1.47304e-08
-1.04326e-07
1.4362e-08
-1.10068e-07
1.39611e-08
-1.1563e-07
1.35307e-08
-1.21001e-07
1.30729e-08
-1.26169e-07
1.2589e-08
-1.31124e-07
1.20798e-08
-1.35855e-07
1.15456e-08
-1.40353e-07
1.09868e-08
-1.44607e-07
1.04035e-08
-1.48607e-07
9.79562e-09
-1.52343e-07
9.16334e-09
-1.55806e-07
8.50673e-09
-1.58986e-07
7.82596e-09
-1.61873e-07
7.12128e-09
-1.64458e-07
6.39303e-09
-1.66731e-07
5.64167e-09
-1.68685e-07
4.86774e-09
-1.7031e-07
4.07195e-09
-1.71598e-07
3.25511e-09
-1.72542e-07
2.41819e-09
-1.73134e-07
1.56229e-09
-1.73367e-07
6.88684e-10
-1.73235e-07
-2.01208e-10
-1.72732e-07
-1.10579e-09
-1.71854e-07
-2.0233e-09
-1.70597e-07
-2.95181e-09
-1.68958e-07
-3.88918e-09
-1.66933e-07
-4.83313e-09
-1.64523e-07
-5.78116e-09
-1.61727e-07
-6.7306e-09
-1.58545e-07
-7.67858e-09
-1.54981e-07
-8.62198e-09
-1.51038e-07
-9.55747e-09
-1.4672e-07
-1.04814e-08
-1.42035e-07
-1.13899e-08
-1.36991e-07
-1.22786e-08
-1.31599e-07
-1.31427e-08
-1.25871e-07
-1.39766e-08
-1.19822e-07
-1.47741e-08
-1.13472e-07
-1.55281e-08
-1.0684e-07
-1.62299e-08
-9.99533e-08
-1.68698e-08
-9.28419e-08
-1.7436e-08
-8.55417e-08
-1.79148e-08
-7.80948e-08
-1.829e-08
-7.05504e-08
-1.85433e-08
-6.29662e-08
-1.86535e-08
-5.54084e-08
-1.85969e-08
-4.7953e-08
-1.83477e-08
-4.06858e-08
-1.78788e-08
-3.3702e-08
-1.71625e-08
-2.71054e-08
-1.61728e-08
-2.10059e-08
-1.48882e-08
-1.55161e-08
-1.32959e-08
-1.07449e-08
-1.13982e-08
-6.78965e-09
-9.22303e-09
-3.72466e-09
-6.83884e-09
-1.58821e-09
-4.37558e-09
-3.69165e-10
-2.05611e-09
-2.77915e-10
-5.07404e-10
6.97511e-10
-2.01114e-09
3.18577e-09
-4.49645e-09
6.1548e-09
-7.92589e-09
9.21604e-09
-1.22345e-08
1.21384e-08
-1.73354e-08
1.47827e-08
-2.31271e-08
1.70762e-08
-2.95017e-08
1.89926e-08
-3.63512e-08
2.05362e-08
-4.35726e-08
2.17301e-08
-5.10711e-08
2.26081e-08
-5.87618e-08
2.32084e-08
-6.65702e-08
2.35704e-08
-7.44322e-08
2.3731e-08
-8.22936e-08
2.37239e-08
-9.01087e-08
2.35782e-08
-9.78394e-08
2.33185e-08
-1.05454e-07
2.29648e-08
-1.12925e-07
2.2533e-08
-1.2023e-07
2.20352e-08
-1.27348e-07
2.14808e-08
-1.34264e-07
2.08764e-08
-1.4096e-07
2.02267e-08
-1.47422e-07
1.95351e-08
-1.53637e-07
1.88037e-08
-1.59591e-07
1.80339e-08
-1.65272e-07
1.72266e-08
-1.70667e-07
1.63823e-08
-1.75765e-07
1.55013e-08
-1.80553e-07
1.4584e-08
-1.85021e-07
1.36304e-08
-1.89155e-07
1.26409e-08
-1.92945e-07
1.16159e-08
-1.96379e-07
1.05558e-08
-1.99447e-07
9.46125e-09
-2.02139e-07
8.33291e-09
-2.04443e-07
7.17174e-09
-2.0635e-07
5.9788e-09
-2.0785e-07
4.75539e-09
-2.08935e-07
3.50297e-09
-2.09596e-07
2.22324e-09
-2.09825e-07
9.18101e-10
-2.09616e-07
-4.10305e-10
-2.08962e-07
-1.75959e-09
-2.07858e-07
-3.12713e-09
-2.063e-07
-4.51004e-09
-2.04284e-07
-5.90518e-09
-2.01808e-07
-7.30913e-09
-1.98871e-07
-8.71822e-09
-1.95473e-07
-1.01285e-08
-1.91616e-07
-1.15356e-08
-1.87303e-07
-1.29351e-08
-1.82538e-07
-1.4322e-08
-1.77329e-07
-1.56908e-08
-1.71683e-07
-1.70358e-08
-1.65611e-07
-1.83505e-08
-1.59126e-07
-1.96276e-08
-1.52244e-07
-2.08591e-08
-1.44982e-07
-2.20356e-08
-1.37364e-07
-2.31465e-08
-1.29415e-07
-2.41791e-08
-1.21166e-07
-2.5119e-08
-1.12653e-07
-2.59488e-08
-1.03919e-07
-2.66486e-08
-9.50142e-08
-2.7195e-08
-8.59961e-08
-2.75614e-08
-7.69319e-08
-2.77176e-08
-6.78987e-08
-2.76301e-08
-5.89839e-08
-2.72626e-08
-5.02852e-08
-2.65774e-08
-4.19107e-08
-2.5537e-08
-3.39768e-08
-2.41067e-08
-2.66063e-08
-2.22588e-08
-1.99241e-08
-1.9978e-08
-1.40522e-08
-1.72702e-08
-9.10219e-09
-1.4173e-08
-5.16772e-09
-1.07733e-08
-2.31684e-09
-7.22645e-09
-5.88104e-10
-3.78485e-09
-8.6602e-10
-6.87133e-10
1.38464e-09
-2.62623e-09
5.12486e-09
-5.72812e-09
9.2567e-09
-9.90573e-09
1.33936e-08
-1.50611e-08
1.72938e-08
-2.10855e-08
2.08071e-08
-2.78624e-08
2.38532e-08
-3.52726e-08
2.64028e-08
-4.31986e-08
2.84622e-08
-5.15288e-08
3.00604e-08
-6.01606e-08
3.12398e-08
-6.90013e-08
3.20492e-08
-7.79695e-08
3.25385e-08
-8.69944e-08
3.27559e-08
-9.60156e-08
3.27451e-08
-1.04982e-07
3.25445e-08
-1.1385e-07
3.21866e-08
-1.22583e-07
3.16982e-08
-1.31151e-07
3.11006e-08
-1.39526e-07
3.04105e-08
-1.47686e-07
2.96407e-08
-1.5561e-07
2.88004e-08
-1.6328e-07
2.78964e-08
-1.70678e-07
2.69335e-08
-1.7779e-07
2.59149e-08
-1.84598e-07
2.48428e-08
-1.9109e-07
2.37186e-08
-1.97251e-07
2.25433e-08
-2.03068e-07
2.13175e-08
-2.08525e-07
2.00417e-08
-2.13611e-07
1.87165e-08
-2.18313e-07
1.73423e-08
-2.22616e-07
1.59197e-08
-2.2651e-07
1.44496e-08
-2.29982e-07
1.29328e-08
-2.33019e-07
1.13705e-08
-2.35612e-07
9.76392e-09
-2.37747e-07
8.11468e-09
-2.39417e-07
6.42459e-09
-2.40609e-07
4.69571e-09
-2.41317e-07
2.9304e-09
-2.4153e-07
1.13133e-09
-2.41242e-07
-6.98551e-10
-2.40445e-07
-2.55595e-09
-2.39135e-07
-4.43726e-09
-2.37307e-07
-6.33851e-09
-2.34956e-07
-8.2554e-09
-2.32082e-07
-1.01833e-08
-2.28683e-07
-1.21171e-08
-2.2476e-07
-1.40514e-08
-2.20316e-07
-1.59804e-08
-2.15353e-07
-1.78979e-08
-2.09878e-07
-1.97969e-08
-2.03899e-07
-2.16702e-08
-1.97425e-07
-2.35098e-08
-1.90468e-07
-2.53067e-08
-1.83045e-07
-2.70511e-08
-1.75172e-07
-2.87319e-08
-1.66871e-07
-3.03363e-08
-1.58168e-07
-3.18496e-08
-1.49093e-07
-3.32548e-08
-1.3968e-07
-3.4532e-08
-1.29971e-07
-3.5658e-08
-1.20013e-07
-3.66058e-08
-1.09864e-07
-3.73444e-08
-9.95874e-08
-3.7838e-08
-8.92581e-08
-3.80469e-08
-7.8961e-08
-3.79271e-08
-6.87922e-08
-3.74314e-08
-5.88583e-08
-3.65113e-08
-4.92766e-08
-3.51187e-08
-4.01731e-08
-3.32102e-08
-3.16804e-08
-3.07515e-08
-2.39339e-08
-2.77245e-08
-1.7068e-08
-2.41361e-08
-1.121e-08
-2.0031e-08
-6.47627e-09
-1.5507e-08
-2.96889e-09
-1.07338e-08
-7.78197e-10
-5.97554e-09
-1.64422e-09
-8.42371e-10
2.22701e-09
-3.17041e-09
7.45288e-09
-6.83193e-09
1.29182e-08
-1.16927e-08
1.82544e-08
-1.76213e-08
2.32223e-08
-2.44852e-08
2.76711e-08
-3.21518e-08
3.15197e-08
-4.04898e-08
3.47408e-08
-4.9373e-08
3.73453e-08
-5.86823e-08
3.93697e-08
-6.83086e-08
4.08661e-08
-7.81536e-08
4.18941e-08
-8.81304e-08
4.25153e-08
-9.81633e-08
4.27889e-08
-1.08187e-07
4.27692e-08
-1.18147e-07
4.25041e-08
-1.27995e-07
4.20345e-08
-1.37691e-07
4.13943e-08
-1.47201e-07
4.06106e-08
-1.56495e-07
3.9705e-08
-1.65548e-07
3.86937e-08
-1.74337e-07
3.7589e-08
-1.82841e-07
3.64e-08
-1.9104e-07
3.5133e-08
-1.98918e-07
3.37924e-08
-2.06456e-07
3.23815e-08
-2.1364e-07
3.09023e-08
-2.20453e-07
2.93562e-08
-2.2688e-07
2.77444e-08
-2.32906e-07
2.60678e-08
-2.38516e-07
2.43271e-08
-2.43697e-07
2.25232e-08
-2.48435e-07
2.0657e-08
-2.52715e-07
1.87297e-08
-2.56524e-07
1.67425e-08
-2.59851e-07
1.46971e-08
-2.62682e-07
1.25951e-08
-2.65006e-07
1.04387e-08
-2.66812e-07
8.23041e-09
-2.68089e-07
5.97285e-09
-2.68828e-07
3.66917e-09
-2.69019e-07
1.32285e-09
-2.68656e-07
-1.06224e-09
-2.6773e-07
-3.48182e-09
-2.66236e-07
-5.93118e-09
-2.64169e-07
-8.4052e-09
-2.61526e-07
-1.08983e-08
-2.58305e-07
-1.34044e-08
-2.54505e-07
-1.5917e-08
-2.50128e-07
-1.84291e-08
-2.45175e-07
-2.09332e-08
-2.39652e-07
-2.3421e-08
-2.33565e-07
-2.58838e-08
-2.26923e-07
-2.83121e-08
-2.19737e-07
-3.06954e-08
-2.12022e-07
-3.30222e-08
-2.03793e-07
-3.52797e-08
-1.95072e-07
-3.74535e-08
-1.85881e-07
-3.9527e-08
-1.76249e-07
-4.14813e-08
-1.6621e-07
-4.32944e-08
-1.55801e-07
-4.49408e-08
-1.45068e-07
-4.63909e-08
-1.34064e-07
-4.76103e-08
-1.22848e-07
-4.85595e-08
-1.11493e-07
-4.91938e-08
-1.00077e-07
-4.9463e-08
-8.86914e-08
-4.93124e-08
-7.74392e-08
-4.86836e-08
-6.64339e-08
-4.75167e-08
-5.57995e-08
-4.57531e-08
-4.567e-08
-4.33398e-08
-3.61862e-08
-4.02353e-08
-2.74938e-08
-3.64169e-08
-1.97395e-08
-3.18904e-08
-1.30678e-08
-2.67027e-08
-7.61904e-09
-2.09558e-08
-3.5294e-09
-1.48235e-08
-9.36862e-10
-8.56808e-09
-2.58107e-09
-9.7387e-10
3.20088e-09
-3.64054e-09
1.01195e-08
-7.79732e-09
1.7075e-08
-1.32684e-08
2.37255e-08
-1.98906e-08
2.98445e-08
-2.75082e-08
3.52887e-08
-3.59713e-08
3.99829e-08
-4.51367e-08
4.39062e-08
-5.48688e-08
4.70774e-08
-6.50419e-08
4.95428e-08
-7.55412e-08
5.13654e-08
-8.62636e-08
5.26165e-08
-9.71181e-08
5.33698e-08
-1.08025e-07
5.36961e-08
-1.18917e-07
5.36605e-08
-1.29733e-07
5.33208e-08
-1.40425e-07
5.27265e-08
-1.5095e-07
5.19185e-08
-1.61269e-07
5.09303e-08
-1.71353e-07
4.97882e-08
-1.81171e-07
4.85124e-08
-1.90701e-07
4.71184e-08
-1.99918e-07
4.56174e-08
-2.08803e-07
4.40177e-08
-2.17335e-07
4.2325e-08
-2.25497e-07
4.05436e-08
-2.33271e-07
3.86763e-08
-2.4064e-07
3.67252e-08
-2.47588e-07
3.46919e-08
-2.54098e-07
3.25777e-08
-2.60155e-07
3.03839e-08
-2.65743e-07
2.81116e-08
-2.70848e-07
2.57622e-08
-2.75456e-07
2.33372e-08
-2.79552e-07
2.08384e-08
-2.83122e-07
1.82677e-08
-2.86155e-07
1.56275e-08
-2.88637e-07
1.29206e-08
-2.90556e-07
1.015e-08
-2.91902e-07
7.31919e-09
-2.92665e-07
4.43206e-09
-2.92836e-07
1.493e-09
-2.92405e-07
-1.49314e-09
-2.91365e-07
-4.52101e-09
-2.89712e-07
-7.58475e-09
-2.87439e-07
-1.0678e-08
-2.84544e-07
-1.37937e-08
-2.81024e-07
-1.69244e-08
-2.76879e-07
-2.0062e-08
-2.7211e-07
-2.31978e-08
-2.66721e-07
-2.63223e-08
-2.60717e-07
-2.94254e-08
-2.54104e-07
-3.24961e-08
-2.46894e-07
-3.55225e-08
-2.39097e-07
-3.84917e-08
-2.3073e-07
-4.13893e-08
-2.21811e-07
-4.41993e-08
-2.12361e-07
-4.69036e-08
-2.02406e-07
-4.94818e-08
-1.91977e-07
-5.19104e-08
-1.81109e-07
-5.41621e-08
-1.69844e-07
-5.62056e-08
-1.58231e-07
-5.80043e-08
-1.46325e-07
-5.95163e-08
-1.34191e-07
-6.06933e-08
-1.21903e-07
-6.14812e-08
-1.09547e-07
-6.18192e-08
-9.7218e-08
-6.16416e-08
-8.50233e-08
-6.08783e-08
-7.30823e-08
-5.94577e-08
-6.15252e-08
-5.73101e-08
-5.04926e-08
-5.43724e-08
-4.01335e-08
-5.05944e-08
-3.06033e-08
-4.59471e-08
-2.20617e-08
-4.0432e-08
-1.46708e-08
-3.40936e-08
-8.59427e-09
-2.70323e-08
-4.00004e-09
-1.94177e-08
-1.0665e-09
-1.15016e-08
-3.64757e-09
-1.08373e-09
4.2846e-09
-4.04047e-09
1.30763e-08
-8.6282e-09
2.16627e-08
-1.46361e-08
2.97334e-08
-2.18726e-08
3.7081e-08
-3.01598e-08
4.35759e-08
-3.93311e-08
4.91542e-08
-4.92308e-08
5.38059e-08
-5.97144e-08
5.75611e-08
-7.06494e-08
6.04778e-08
-8.19156e-08
6.26316e-08
-9.3406e-08
6.41069e-08
-1.05026e-07
6.49898e-08
-1.16693e-07
6.53633e-08
-1.28337e-07
6.53038e-08
-1.39895e-07
6.4879e-08
-1.51315e-07
6.41471e-08
-1.62553e-07
6.31566e-08
-1.7357e-07
6.1947e-08
-1.84332e-07
6.05498e-08
-1.94809e-07
5.89893e-08
-2.04974e-07
5.72839e-08
-2.14804e-07
5.54476e-08
-2.24277e-07
5.34903e-08
-2.33371e-07
5.14195e-08
-2.42068e-07
4.92403e-08
-2.50348e-07
4.69565e-08
-2.58194e-07
4.45709e-08
-2.65588e-07
4.20857e-08
-2.72513e-07
3.95027e-08
-2.78953e-07
3.68235e-08
-2.84891e-07
3.40498e-08
-2.90312e-07
3.11833e-08
-2.95201e-07
2.82261e-08
-2.99543e-07
2.51803e-08
-3.03323e-07
2.20485e-08
-3.0653e-07
1.88337e-08
-3.09148e-07
1.55392e-08
-3.11167e-07
1.21687e-08
-3.12574e-07
8.72657e-09
-3.1336e-07
5.21752e-09
-3.13514e-07
1.64685e-09
-3.13027e-07
-1.97953e-09
-3.11893e-07
-5.65518e-09
-3.10105e-07
-9.37299e-09
-3.07658e-07
-1.31253e-08
-3.04548e-07
-1.69036e-08
-3.00773e-07
-2.06988e-08
-2.96334e-07
-2.45013e-08
-2.91232e-07
-2.83003e-08
-2.85469e-07
-3.20846e-08
-2.79053e-07
-3.58419e-08
-2.7199e-07
-3.95588e-08
-2.64291e-07
-4.32212e-08
-2.5597e-07
-4.6813e-08
-2.47042e-07
-5.03171e-08
-2.37528e-07
-5.3714e-08
-2.27449e-07
-5.6982e-08
-2.16835e-07
-6.00963e-08
-2.05717e-07
-6.30286e-08
-1.94132e-07
-6.57464e-08
-1.82126e-07
-6.82119e-08
-1.69749e-07
-7.03816e-08
-1.57059e-07
-7.22056e-08
-1.44126e-07
-7.36269e-08
-1.31026e-07
-7.45812e-08
-1.17848e-07
-7.49974e-08
-1.04691e-07
-7.47979e-08
-9.16686e-08
-7.39009e-08
-7.89035e-08
-7.22228e-08
-6.65318e-08
-6.96819e-08
-5.47003e-08
-6.62039e-08
-4.35661e-08
-6.17286e-08
-3.32947e-08
-5.62185e-08
-2.40588e-08
-4.96679e-08
-1.60373e-08
-4.21151e-08
-9.416e-09
-3.36536e-08
-4.39032e-09
-2.44434e-08
-1.17132e-09
-1.47206e-08
-4.81889e-09
-1.17467e-09
5.45927e-09
-4.37753e-09
1.62791e-08
-9.33641e-09
2.66216e-08
-1.58119e-08
3.6209e-08
-2.35878e-08
4.48569e-08
-3.24658e-08
5.24539e-08
-4.22638e-08
5.89521e-08
-5.28138e-08
6.43559e-08
-6.39624e-08
6.87096e-08
-7.55701e-08
7.20855e-08
-8.75119e-08
7.45734e-08
-9.96768e-08
7.62718e-08
-1.11967e-07
7.72803e-08
-1.24298e-07
7.76944e-08
-1.36597e-07
7.76023e-08
-1.488e-07
7.70818e-08
-1.60853e-07
7.62001e-08
-1.72709e-07
7.50132e-08
-1.84329e-07
7.35671e-08
-1.95678e-07
7.18982e-08
-2.06723e-07
7.0035e-08
-2.17439e-07
6.79992e-08
-2.27798e-07
6.58073e-08
-2.37779e-07
6.34712e-08
-2.47359e-07
6.09997e-08
-2.56519e-07
5.83994e-08
-2.65237e-07
5.56749e-08
-2.73496e-07
5.28297e-08
-2.81277e-07
4.98666e-08
-2.88562e-07
4.6788e-08
-2.95334e-07
4.3596e-08
-3.01577e-07
4.02927e-08
-3.07274e-07
3.68804e-08
-3.1241e-07
3.33615e-08
-3.16968e-07
2.97388e-08
-3.20935e-07
2.60154e-08
-3.24296e-07
2.21949e-08
-3.27038e-07
1.82811e-08
-3.29148e-07
1.42787e-08
-3.30614e-07
1.01927e-08
-3.31426e-07
6.0288e-09
-3.31572e-07
1.79318e-09
-3.31044e-07
-2.50718e-09
-3.29835e-07
-6.86464e-09
-3.27937e-07
-1.12709e-08
-3.25346e-07
-1.57167e-08
-3.22057e-07
-2.01923e-08
-3.18069e-07
-2.4687e-08
-3.13381e-07
-2.91891e-08
-3.07995e-07
-3.36863e-08
-3.01915e-07
-3.8165e-08
-2.95146e-07
-4.26109e-08
-2.87696e-07
-4.70082e-08
-2.79578e-07
-5.13399e-08
-2.70803e-07
-5.55873e-08
-2.6139e-07
-5.973e-08
-2.51359e-07
-6.3745e-08
-2.40735e-07
-6.76065e-08
-2.29546e-07
-7.12856e-08
-2.17826e-07
-7.47487e-08
-2.05614e-07
-7.79577e-08
-1.92958e-07
-8.08685e-08
-1.79909e-07
-8.34303e-08
-1.6653e-07
-8.55849e-08
-1.5289e-07
-8.72663e-08
-1.39072e-07
-8.84e-08
-1.25165e-07
-8.89039e-08
-1.11274e-07
-8.86888e-08
-9.75147e-08
-8.76603e-08
-8.40153e-08
-8.57222e-08
-7.0917e-08
-8.27801e-08
-5.83733e-08
-7.87476e-08
-4.65491e-08
-7.35529e-08
-3.56199e-08
-6.71477e-08
-2.57712e-08
-5.95166e-08
-1.7198e-08
-5.06883e-08
-1.01057e-08
-4.07458e-08
-4.7129e-09
-2.98362e-08
-1.25594e-09
-1.81776e-08
-6.07482e-09
-1.24984e-09
6.70911e-09
-4.66074e-09
1.96901e-08
-9.93788e-09
3.18987e-08
-1.68189e-08
4.309e-08
-2.50665e-08
5.31044e-08
-3.44646e-08
6.18521e-08
-4.48165e-08
6.9304e-08
-5.59426e-08
7.54821e-08
-6.76808e-08
8.04477e-08
-7.98848e-08
8.42895e-08
-9.24247e-08
8.71133e-08
-1.05186e-07
8.90328e-08
-1.18067e-07
9.0162e-08
-1.30983e-07
9.06099e-08
-1.43857e-07
9.04763e-08
-1.56625e-07
8.98499e-08
-1.69232e-07
8.88068e-08
-1.81629e-07
8.74109e-08
-1.93777e-07
8.57145e-08
-2.05638e-07
8.37591e-08
-2.1718e-07
8.15775e-08
-2.28376e-07
7.91947e-08
-2.39198e-07
7.66295e-08
-2.49623e-07
7.38962e-08
-2.59628e-07
7.1005e-08
-2.69192e-07
6.79636e-08
-2.78295e-07
6.47777e-08
-2.86917e-07
6.14515e-08
-2.95039e-07
5.79886e-08
-3.02643e-07
5.43917e-08
-3.0971e-07
5.06636e-08
-3.16224e-07
4.68069e-08
-3.22168e-07
4.28243e-08
-3.27526e-07
3.87189e-08
-3.32281e-07
3.44938e-08
-3.36418e-07
3.01527e-08
-3.39923e-07
2.56999e-08
-3.42782e-07
2.11399e-08
-3.44981e-07
1.64781e-08
-3.46509e-07
1.17203e-08
-3.47353e-07
6.87304e-09
-3.47503e-07
1.94358e-09
-3.4695e-07
-3.06005e-09
-3.45686e-07
-8.12904e-09
-3.43703e-07
-1.32537e-08
-3.40996e-07
-1.84236e-08
-3.37561e-07
-2.36272e-08
-3.33396e-07
-2.88522e-08
-3.285e-07
-3.40852e-08
-3.22875e-07
-3.93117e-08
-3.16523e-07
-4.45162e-08
-3.09452e-07
-4.96819e-08
-3.0167e-07
-5.47905e-08
-2.93188e-07
-5.98224e-08
-2.84019e-07
-6.47557e-08
-2.74183e-07
-6.95667e-08
-2.63699e-07
-7.42287e-08
-2.52594e-07
-7.87119e-08
-2.40897e-07
-8.29825e-08
-2.28643e-07
-8.70021e-08
-2.15874e-07
-9.07265e-08
-2.02638e-07
-9.41049e-08
-1.88989e-07
-9.70791e-08
-1.74991e-07
-9.95826e-08
-1.60718e-07
-1.0154e-07
-1.46252e-07
-1.02866e-07
-1.31688e-07
-1.03468e-07
-1.17134e-07
-1.03243e-07
-1.02708e-07
-1.02086e-07
-8.85441e-08
-9.98859e-08
-7.4789e-08
-9.65352e-08
-6.16025e-08
-9.19341e-08
-4.91576e-08
-8.59978e-08
-3.76399e-08
-7.86653e-08
-2.72471e-08
-6.99094e-08
-1.81889e-08
-5.97466e-08
-1.06878e-08
-4.8247e-08
-4.98115e-09
-3.55428e-08
-1.3248e-09
-2.18339e-08
-7.39962e-09
-1.31241e-09
8.02152e-09
-4.89968e-09
2.32773e-08
-1.04501e-08
3.74492e-08
-1.76832e-08
5.0323e-08
-2.63439e-08
6.17652e-08
-3.62008e-08
7.1709e-08
-4.70437e-08
8.01468e-08
-5.86825e-08
8.71209e-08
-7.09463e-08
9.27115e-08
-8.36826e-08
9.70258e-08
-9.67563e-08
1.00187e-07
-1.10049e-07
1.02326e-07
-1.23458e-07
1.03571e-07
-1.36893e-07
1.04045e-07
-1.50278e-07
1.03862e-07
-1.63548e-07
1.0312e-07
-1.76646e-07
1.01905e-07
-1.89523e-07
1.00288e-07
-2.02138e-07
9.8329e-08
-2.14453e-07
9.6074e-08
-2.26436e-07
9.35602e-08
-2.38057e-07
9.08158e-08
-2.49289e-07
8.78624e-08
-2.60109e-07
8.4716e-08
-2.70493e-07
8.13887e-08
-2.80419e-07
7.78892e-08
-2.89865e-07
7.42243e-08
-2.98813e-07
7.03991e-08
-3.07242e-07
6.64175e-08
-3.15133e-07
6.22832e-08
-3.22469e-07
5.79993e-08
-3.29231e-07
5.3569e-08
-3.35402e-07
4.89954e-08
-3.40965e-07
4.42821e-08
-3.45905e-07
3.94329e-08
-3.50204e-07
3.4452e-08
-3.53848e-07
2.93441e-08
-3.56823e-07
2.41147e-08
-3.59114e-07
1.87697e-08
-3.6071e-07
1.33158e-08
-3.61597e-07
7.76042e-09
-3.61766e-07
2.11181e-09
-3.61205e-07
-3.62092e-09
-3.59906e-07
-9.42777e-09
-3.57862e-07
-1.52978e-08
-3.55067e-07
-2.1219e-08
-3.51515e-07
-2.71783e-08
-3.47206e-07
-3.31618e-08
-3.42137e-07
-3.91541e-08
-3.3631e-07
-4.51388e-08
-3.29728e-07
-5.10981e-08
-3.22397e-07
-5.70127e-08
-3.14326e-07
-6.28619e-08
-3.05525e-07
-6.86229e-08
-2.9601e-07
-7.4271e-08
-2.85798e-07
-7.97787e-08
-2.74911e-07
-8.51156e-08
-2.63375e-07
-9.02476e-08
-2.51222e-07
-9.51361e-08
-2.38487e-07
-9.97373e-08
-2.25212e-07
-1.04001e-07
-2.11448e-07
-1.07869e-07
-1.97251e-07
-1.11276e-07
-1.82687e-07
-1.14147e-07
-1.67831e-07
-1.16396e-07
-1.5277e-07
-1.17928e-07
-1.37601e-07
-1.18637e-07
-1.22434e-07
-1.1841e-07
-1.07393e-07
-1.17126e-07
-9.26173e-08
-1.14662e-07
-7.82578e-08
-1.10895e-07
-6.44818e-08
-1.0571e-07
-5.14704e-08
-9.90091e-08
-3.9419e-08
-9.07167e-08
-2.85368e-08
-8.07917e-08
-1.90467e-08
-6.92366e-08
-1.11862e-08
-5.61075e-08
-5.2079e-09
-4.15211e-08
-1.38192e-09
-2.56599e-08
-8.78154e-09
-1.36523e-09
9.38674e-09
-5.10349e-09
2.70156e-08
-1.08907e-08
4.32364e-08
-1.84315e-08
5.78639e-08
-2.74567e-08
7.07904e-08
-3.77212e-08
8.19734e-08
-4.90028e-08
9.14285e-08
-6.11016e-08
9.92197e-08
-7.38386e-08
1.05448e-07
-8.70549e-08
1.10242e-07
-1.00611e-07
1.13743e-07
-1.14384e-07
1.16099e-07
-1.28268e-07
1.17455e-07
-1.42173e-07
1.1795e-07
-1.5602e-07
1.17709e-07
-1.69743e-07
1.16842e-07
-1.83284e-07
1.15445e-07
-1.96593e-07
1.13598e-07
-2.09629e-07
1.11365e-07
-2.22353e-07
1.08799e-07
-2.34734e-07
1.0594e-07
-2.46739e-07
1.02822e-07
-2.58344e-07
9.94669e-08
-2.69522e-07
9.58939e-08
-2.8025e-07
9.21164e-08
-2.90505e-07
8.81445e-08
-3.00266e-07
8.39856e-08
-3.09513e-07
7.96459e-08
-3.18225e-07
7.513e-08
-3.26384e-07
7.04419e-08
-3.3397e-07
6.55855e-08
-3.40966e-07
6.05644e-08
-3.47352e-07
5.53822e-08
-3.53113e-07
5.00429e-08
-3.58231e-07
4.45509e-08
-3.6269e-07
3.89109e-08
-3.66474e-07
3.31284e-08
-3.69569e-07
2.72093e-08
-3.7196e-07
2.11604e-08
-3.73633e-07
1.4989e-08
-3.74576e-07
8.70355e-09
-3.74777e-07
2.31321e-09
-3.74226e-07
-4.17182e-09
-3.72914e-07
-1.07404e-08
-3.70831e-07
-1.73801e-08
-3.67973e-07
-2.40778e-08
-3.64332e-07
-3.08186e-08
-3.59907e-07
-3.75868e-08
-3.54696e-07
-4.43653e-08
-3.487e-07
-5.11354e-08
-3.41921e-07
-5.78772e-08
-3.34364e-07
-6.45688e-08
-3.2604e-07
-7.11867e-08
-3.16957e-07
-7.77053e-08
-3.07132e-07
-8.40963e-08
-2.96582e-07
-9.03289e-08
-2.85329e-07
-9.63685e-08
-2.734e-07
-1.02176e-07
-2.60827e-07
-1.07709e-07
-2.47647e-07
-1.12917e-07
-2.33903e-07
-1.17744e-07
-2.19647e-07
-1.22125e-07
-2.04938e-07
-1.25986e-07
-1.89842e-07
-1.29242e-07
-1.74439e-07
-1.31799e-07
-1.58816e-07
-1.3355e-07
-1.43075e-07
-1.34378e-07
-1.27331e-07
-1.34155e-07
-1.1171e-07
-1.32747e-07
-9.63576e-08
-1.30015e-07
-8.14304e-08
-1.25822e-07
-6.71028e-08
-1.20038e-07
-5.35641e-08
-1.12548e-07
-4.10193e-08
-1.03262e-07
-2.96885e-08
-9.21225e-08
-1.98066e-08
-7.91185e-08
-1.16237e-08
-6.42904e-08
-5.40477e-09
-4.774e-08
-1.43078e-09
-2.96339e-08
-1.02123e-08
-1.41071e-09
1.07975e-08
-5.28048e-09
3.08854e-08
-1.12757e-08
4.92316e-08
-1.90895e-08
6.56777e-08
-2.84404e-08
8.01412e-08
-3.90715e-08
9.26045e-08
-5.07501e-08
1.03107e-07
-6.32671e-08
1.11737e-07
-7.64358e-08
1.18617e-07
-9.00912e-08
1.23897e-07
-1.04089e-07
1.2774e-07
-1.18303e-07
1.30312e-07
-1.32624e-07
1.31777e-07
-1.46961e-07
1.32287e-07
-1.61232e-07
1.31981e-07
-1.75371e-07
1.30981e-07
-1.89319e-07
1.29393e-07
-2.03027e-07
1.27305e-07
-2.1645e-07
1.24788e-07
-2.29552e-07
1.21901e-07
-2.42299e-07
1.18687e-07
-2.54661e-07
1.15183e-07
-2.6661e-07
1.11416e-07
-2.78121e-07
1.07405e-07
-2.89169e-07
1.03165e-07
-2.99732e-07
9.8708e-08
-3.09789e-07
9.40425e-08
-3.19319e-07
8.91751e-08
-3.283e-07
8.41113e-08
-3.36714e-07
7.88557e-08
-3.44541e-07
7.34125e-08
-3.51762e-07
6.77858e-08
-3.5836e-07
6.19798e-08
-3.64316e-07
5.59989e-08
-3.69613e-07
4.9848e-08
-3.74234e-07
4.35324e-08
-3.78164e-07
3.7058e-08
-3.81386e-07
3.04315e-08
-3.83886e-07
2.36601e-08
-3.85649e-07
1.67522e-08
-3.86662e-07
9.71687e-09
-3.86913e-07
2.56428e-09
-3.86391e-07
-4.69434e-09
-3.85085e-07
-1.20466e-08
-3.82986e-07
-1.9479e-08
-3.80087e-07
-2.69767e-08
-3.76382e-07
-3.45234e-08
-3.71867e-07
-4.21016e-08
-3.6654e-07
-4.96922e-08
-3.60401e-07
-5.72744e-08
-3.53453e-07
-6.48258e-08
-3.45699e-07
-7.23222e-08
-3.37149e-07
-7.9737e-08
-3.27813e-07
-8.70416e-08
-3.17705e-07
-9.42043e-08
-3.06844e-07
-1.0119e-07
-2.95251e-07
-1.07961e-07
-2.82955e-07
-1.14473e-07
-2.69987e-07
-1.20677e-07
-2.56385e-07
-1.26519e-07
-2.42196e-07
-1.31934e-07
-2.2747e-07
-1.36851e-07
-2.12268e-07
-1.41187e-07
-1.96662e-07
-1.44849e-07
-1.8073e-07
-1.47731e-07
-1.64565e-07
-1.49715e-07
-1.48272e-07
-1.50671e-07
-1.31969e-07
-1.50458e-07
-1.15788e-07
-1.48927e-07
-9.98794e-08
-1.45924e-07
-8.44066e-08
-1.41295e-07
-6.95509e-08
-1.34893e-07
-5.55102e-08
-1.26588e-07
-4.24988e-08
-1.16273e-07
-3.07468e-08
-1.03874e-07
-2.05003e-08
-8.9365e-08
-1.20202e-08
-7.27705e-08
-5.58187e-09
-5.41784e-08
-1.47432e-09
-3.37414e-08
-1.16866e-08
-1.45095e-09
1.22484e-08
-5.438e-09
3.48724e-08
-1.16201e-08
5.54137e-08
-1.96807e-08
7.37383e-08
-2.9328e-08
8.97884e-08
-4.02946e-08
1.03571e-07
-5.23386e-08
1.15151e-07
-6.52421e-08
1.2464e-07
-7.88114e-08
1.32186e-07
-9.28756e-08
1.37962e-07
-1.07285e-07
1.4215e-07
-1.21911e-07
1.44938e-07
-1.36643e-07
1.46508e-07
-1.51383e-07
1.47028e-07
-1.66053e-07
1.4665e-07
-1.80583e-07
1.45511e-07
-1.94914e-07
1.43724e-07
-2.08996e-07
1.41387e-07
-2.22785e-07
1.38577e-07
-2.36243e-07
1.35359e-07
-2.49337e-07
1.31781e-07
-2.62035e-07
1.27882e-07
-2.74311e-07
1.23692e-07
-2.86139e-07
1.19232e-07
-2.97494e-07
1.1452e-07
-3.08353e-07
1.09567e-07
-3.18695e-07
1.04384e-07
-3.28498e-07
9.8978e-08
-3.37741e-07
9.33547e-08
-3.46405e-07
8.75196e-08
-3.5447e-07
8.14773e-08
-3.61916e-07
7.52324e-08
-3.68726e-07
6.87894e-08
-3.7488e-07
6.21534e-08
-3.80362e-07
5.53295e-08
-3.85153e-07
4.83236e-08
-3.89237e-07
4.1142e-08
-3.92597e-07
3.3792e-08
-3.95219e-07
2.62816e-08
-3.97086e-07
1.86197e-08
-3.98186e-07
1.08163e-08
-3.98504e-07
2.88239e-09
-3.98029e-07
-5.16979e-09
-3.96748e-07
-1.33267e-08
-3.94654e-07
-2.15736e-08
-3.91736e-07
-2.98941e-08
-3.87989e-07
-3.82706e-08
-3.83407e-07
-4.66835e-08
-3.77988e-07