/*--------------------------------*- C++ -*----------------------------------*\
  =========                 |
  \\      /  F ield         | OpenFOAM: The Open Source CFD Toolbox
   \\    /   O peration     | Website:  https://openfoam.org
    \\  /    A nd           | Version:  7
     \\/     M anipulation  |
\*---------------------------------------------------------------------------*/
FoamFile
{
    version     2.0;
    format      ascii;
    class       surfaceScalarField;
    location    "1.8";
    object      phi;
}
// * * * * * * * * * * * * * * * * * * * * * * * * * * * * * * * * * * * * * //

dimensions      [0 3 -1 0 0 0 0];

internalField   nonuniform List<scalar> 
12640
(
3.15099e-10
-3.10718e-10
9.30455e-10
-6.15295e-10
1.50266e-09
-5.72247e-10
1.83042e-09
-3.2772e-10
1.82073e-09
9.66336e-12
1.44356e-09
3.77139e-10
7.0172e-10
7.41868e-10
-3.83197e-10
1.08492e-09
-1.78145e-09
1.39824e-09
-3.46093e-09
1.67949e-09
-5.39061e-09
1.92969e-09
-7.54231e-09
2.15171e-09
-9.89152e-09
2.34921e-09
-1.24176e-08
2.52606e-09
-1.51034e-08
2.68578e-09
-1.79346e-08
2.83128e-09
-2.08994e-08
2.96473e-09
-2.39869e-08
3.08752e-09
-2.71871e-08
3.20021e-09
-3.04897e-08
3.30257e-09
-3.38833e-08
3.39368e-09
-3.73553e-08
3.47203e-09
-4.08909e-08
3.53561e-09
-4.4473e-08
3.58202e-09
-4.80816e-08
3.60861e-09
-5.16941e-08
3.61254e-09
-5.52851e-08
3.59095e-09
-5.8826e-08
3.54097e-09
-6.22859e-08
3.45991e-09
-6.56312e-08
3.3453e-09
-6.88263e-08
3.195e-09
-7.18336e-08
3.00731e-09
-7.46145e-08
2.78098e-09
-7.71299e-08
2.5154e-09
-7.93405e-08
2.21057e-09
-8.12078e-08
1.86726e-09
-8.26948e-08
1.48701e-09
-8.3767e-08
1.07222e-09
-8.43932e-08
6.26152e-10
-8.45461e-08
1.52963e-10
-8.42037e-08
-3.42422e-10
-8.33497e-08
-8.54063e-10
-8.19743e-08
-1.37537e-09
-8.00753e-08
-1.89903e-09
-7.76581e-08
-2.4172e-09
-7.47365e-08
-2.92158e-09
-7.13328e-08
-3.40366e-09
-6.7478e-08
-3.85486e-09
-6.32112e-08
-4.26677e-09
-5.85798e-08
-4.63138e-09
-5.36385e-08
-4.9413e-09
-4.84486e-08
-5.18998e-09
-4.30766e-08
-5.37191e-09
-3.75938e-08
-5.48283e-09
-3.20739e-08
-5.51989e-09
-2.65922e-08
-5.48172e-09
-2.12237e-08
-5.36855e-09
-1.60415e-08
-5.18222e-09
-1.11153e-08
-4.92613e-09
-6.51015e-09
-4.60518e-09
-2.28455e-09
-4.22559e-09
1.51027e-09
-3.79482e-09
4.83153e-09
-3.32126e-09
7.64558e-09
-2.81404e-09
9.9285e-09
-2.28292e-09
1.16665e-08
-1.73797e-09
1.2856e-08
-1.1895e-09
1.35039e-08
-6.47939e-10
1.36278e-08
-1.23907e-10
1.32562e-08
3.71661e-10
1.2429e-08
8.27155e-10
1.11993e-08
1.22973e-09
9.63481e-09
1.56446e-09
7.82174e-09
1.81307e-09
5.86945e-09
1.95229e-09
3.91717e-09
1.95228e-09
2.14076e-09
1.77641e-09
7.58684e-10
1.38208e-09
1.98971e-11
7.3879e-10
1.99002e-11
6.24429e-10
-9.35085e-10
1.54401e-09
-1.535e-09
2.19789e-09
-1.22607e-09
2.23675e-09
-3.6656e-10
1.4626e-09
7.83814e-10
-2.12944e-10
2.05273e-09
-2.80305e-09
3.33199e-09
-6.27647e-09
4.55832e-09
-1.05764e-08
5.69818e-09
-1.56347e-08
6.73778e-09
-2.13806e-08
7.67561e-09
-2.77464e-08
8.51749e-09
-3.46702e-08
9.273e-09
-4.2097e-08
9.9529e-09
-4.99788e-08
1.05676e-08
-5.82733e-08
1.11258e-08
-6.69427e-08
1.16342e-08
-7.5952e-08
1.20968e-08
-8.52667e-08
1.25149e-08
-9.48517e-08
1.28875e-08
-1.04669e-07
1.32109e-08
-1.14677e-07
1.34797e-08
-1.24827e-07
1.36865e-08
-1.35068e-07
1.38229e-08
-1.45339e-07
1.38795e-08
-1.55573e-07
1.38463e-08
-1.65696e-07
1.37135e-08
-1.75626e-07
1.34713e-08
-1.85276e-07
1.31105e-08
-1.94554e-07
1.2623e-08
-2.03361e-07
1.20021e-08
-2.11596e-07
1.12423e-08
-2.19156e-07
1.03406e-08
-2.25936e-07
9.29557e-09
-2.31834e-07
8.1087e-09
-2.36751e-07
6.78392e-09
-2.40592e-07
5.32805e-09
-2.43271e-07
3.75088e-09
-2.4471e-07
2.06525e-09
-2.44844e-07
2.87126e-10
-2.43621e-07
-1.56496e-09
-2.41006e-07
-3.4691e-09
-2.3698e-07
-5.40118e-09
-2.31545e-07
-7.33479e-09
-2.2472e-07
-9.24178e-09
-2.16549e-07
-1.10927e-08
-2.07095e-07
-1.28575e-08
-1.96444e-07
-1.45061e-08
-1.84701e-07
-1.60091e-08
-1.71994e-07
-1.73387e-08
-1.58466e-07
-1.84693e-08
-1.44278e-07
-1.93782e-08
-1.29604e-07
-2.00463e-08
-1.14627e-07
-2.0459e-08
-9.95409e-08
-2.06064e-08
-8.4539e-08
-2.04836e-08
-6.9816e-08
-2.00915e-08
-5.55621e-08
-1.94362e-08
-4.19589e-08
-1.85293e-08
-2.91764e-08
-1.73877e-08
-1.7369e-08
-1.6033e-08
-6.67273e-09
-1.4491e-08
2.79736e-09
-1.27913e-08
1.09497e-08
-1.09663e-08
1.77175e-08
-9.05076e-09
2.30606e-08
-7.08108e-09
2.69661e-08
-5.09495e-09
2.94491e-08
-3.13101e-09
3.05542e-08
-1.22894e-09
3.03558e-08
5.70079e-10
2.89603e-08
2.22266e-09
2.65086e-08
3.68139e-09
2.31799e-08
4.89316e-09
1.91964e-08
5.79654e-09
1.48295e-08
6.31918e-09
1.04047e-08
6.37713e-09
6.30159e-09
5.87951e-09
2.94072e-09
4.74295e-09
7.35693e-10
2.94381e-09
7.55596e-10
5.87852e-10
-1.52298e-09
1.23938e-09
-2.18647e-09
1.3098e-09
-1.29652e-09
3.98797e-10
5.44408e-10
-1.73086e-09
2.91352e-09
-5.1923e-09
5.51419e-09
-1.00091e-08
8.14873e-09
-1.61454e-08
1.06947e-08
-2.353e-08
1.30828e-08
-3.2073e-08
1.52808e-08
-4.16776e-08
1.72802e-08
-5.22482e-08
1.9088e-08
-6.36945e-08
2.07193e-08
-7.59339e-08
2.21923e-08
-8.88916e-08
2.35252e-08
-1.02499e-07
2.47337e-08
-1.16694e-07
2.58292e-08
-1.31416e-07
2.68185e-08
-1.46605e-07
2.77033e-08
-1.62197e-07
2.84803e-08
-1.78128e-07
2.91415e-08
-1.94323e-07
2.9675e-08
-2.10702e-07
3.00657e-08
-2.27175e-07
3.02959e-08
-2.43642e-07
3.03464e-08
-2.59993e-07
3.01971e-08
-2.76107e-07
2.98279e-08
-2.91855e-07
2.92193e-08
-3.07099e-07
2.83536e-08
-3.21691e-07
2.7215e-08
-3.35479e-07
2.57908e-08
-3.48309e-07
2.40718e-08
-3.60021e-07
2.20529e-08
-3.70459e-07
1.97337e-08
-3.7947e-07
1.7119e-08
-3.86905e-07
1.4219e-08
-3.92627e-07
1.10499e-08
-3.9651e-07
7.63397e-09
-3.98444e-07
3.99952e-09
-3.98338e-07
1.81334e-10
-3.96122e-07
-3.78115e-09
-3.9175e-07
-7.8413e-09
-3.85202e-07
-1.19487e-08
-3.76489e-07
-1.60485e-08
-3.65648e-07
-2.00825e-08
-3.5275e-07
-2.39902e-08
-3.37898e-07
-2.77101e-08
-3.21223e-07
-3.11811e-08
-3.02888e-07
-3.43436e-08
-2.83086e-07
-3.71414e-08
-2.62032e-07
-3.95225e-08
-2.39969e-07
-4.14414e-08
-2.17156e-07
-4.28596e-08
-1.93868e-07
-4.37474e-08
-1.70389e-07
-4.40848e-08
-1.47011e-07
-4.38617e-08
-1.24023e-07
-4.30794e-08
-1.01709e-07
-4.175e-08
-8.0342e-08
-3.98965e-08
-6.01771e-08
-3.75526e-08
-4.14484e-08
-3.47617e-08
-2.43634e-08
-3.15761e-08
-9.09892e-09
-2.80558e-08
4.20209e-09
-2.42673e-08
1.54337e-08
-2.02824e-08
2.45293e-08
-1.61767e-08
3.14634e-08
-1.20291e-08
3.62536e-08
-7.92118e-09
3.89616e-08
-3.93698e-09
3.96956e-08
-1.63908e-10
3.86116e-08
3.30669e-09
3.59168e-08
6.37617e-09
3.18729e-08
8.93711e-09
2.67997e-08
1.08697e-08
2.10789e-08
1.204e-08
1.51549e-08
1.23011e-08
9.53037e-09
1.1504e-08
4.75123e-09
9.52209e-09
1.37974e-09
6.31529e-09
2.13534e-09
3.34726e-10
-1.85767e-09
3.22256e-10
-2.17397e-09
-6.6649e-10
-3.07818e-10
-3.02442e-09
2.90236e-09
-6.9839e-09
6.87301e-09
-1.26536e-08
1.11838e-08
-2.00514e-08
1.55465e-08
-2.91329e-08
1.97762e-08
-3.98139e-08
2.37639e-08
-5.19882e-08
2.74551e-08
-6.55403e-08
3.08322e-08
-8.03536e-08
3.39013e-08
-9.63161e-08
3.66819e-08
-1.13323e-07
3.91992e-08
-1.31277e-07
4.14788e-08
-1.50085e-07
4.35426e-08
-1.69663e-07
4.54066e-08
-1.89924e-07
4.70794e-08
-2.10782e-07
4.85617e-08
-2.32148e-07
4.98463e-08
-2.53926e-07
5.09191e-08
-2.7601e-07
5.17595e-08
-2.98287e-07
5.23422e-08
-3.20629e-07
5.2638e-08
-3.42898e-07
5.26151e-08
-3.64942e-07
5.22411e-08
-3.86597e-07
5.14835e-08
-4.07689e-07
5.03117e-08
-4.28034e-07
4.86976e-08
-4.47436e-07
4.66176e-08
-4.65698e-07
4.40526e-08
-4.82616e-07
4.09901e-08
-4.97988e-07
3.74245e-08
-5.11612e-07
3.33579e-08
-5.23295e-07
2.88015e-08
-5.32851e-07
2.37751e-08
-5.40109e-07
1.83085e-08
-5.44916e-07
1.24411e-08
-5.47139e-07
6.22246e-09
-5.4667e-07
-2.88141e-10
-5.43427e-07
-7.02352e-09
-5.37363e-07
-1.39058e-08
-5.28461e-07
-2.08509e-08
-5.16741e-07
-2.77681e-08
-5.02262e-07
-3.45618e-08
-4.85119e-07
-4.11331e-08
-4.65447e-07
-4.73818e-08
-4.4342e-07
-5.32085e-08
-4.19247e-07
-5.85168e-08
-3.93173e-07
-6.32154e-08
-3.65474e-07
-6.72208e-08
-3.36457e-07
-7.0459e-08
-3.06448e-07
-7.2868e-08
-2.75796e-07
-7.43995e-08
-2.44861e-07
-7.50204e-08
-2.14008e-07
-7.47142e-08
-1.83606e-07
-7.34819e-08
-1.54013e-07
-7.13422e-08
-1.25578e-07
-6.83314e-08
-9.86281e-08
-6.4503e-08
-7.34631e-08
-5.99266e-08
-5.03525e-08
-5.46867e-08
-2.95278e-08
-4.88805e-08
-1.11785e-08
-4.26167e-08
4.55202e-09
-3.60129e-08
1.75699e-08
-2.91946e-08
2.78337e-08
-2.22928e-08
3.53563e-08
-1.54438e-08
4.02077e-08
-8.78842e-09
4.25165e-08
-2.47275e-09
4.24725e-08
3.35069e-09
4.03284e-08
8.52036e-09
3.64024e-08
1.28631e-08
3.10808e-08
1.61913e-08
2.48186e-08
1.83021e-08
1.81395e-08
1.89802e-08
1.16321e-08
1.80115e-08
5.9447e-09
1.52095e-08
1.78719e-09
1.04728e-08
3.92253e-09
-4.19055e-11
-1.81578e-09
-9.93573e-10
-1.22231e-09
-3.39625e-09
2.0949e-09
-7.58806e-09
7.0942e-09
-1.37616e-08
1.30465e-08
-2.19974e-08
1.94196e-08
-3.22921e-08
2.58413e-08
-4.4584e-08
3.20681e-08
-5.8773e-08
3.79529e-08
-7.47372e-08
4.34193e-08
-9.2345e-08
4.844e-08
-1.11463e-07
5.30195e-08
-1.31962e-07
5.71809e-08
-1.53718e-07
6.09555e-08
-1.76615e-07
6.43753e-08
-2.0054e-07
6.74674e-08
-2.25384e-07
7.0251e-08
-2.5104e-07
7.27347e-08
-2.77395e-07
7.49168e-08
-3.04333e-07
7.67843e-08
-3.31728e-07
7.83146e-08
-3.59445e-07
7.94767e-08
-3.87336e-07
8.02327e-08
-4.15238e-07
8.05397e-08
-4.42974e-07
8.03519e-08
-4.70356e-07
7.96226e-08
-4.97178e-07
7.83058e-08
-5.23225e-07
7.63587e-08
-5.4827e-07
7.37428e-08
-5.72079e-07
7.04262e-08
-5.94411e-07
6.63846e-08
-6.15024e-07
6.16033e-08
-6.33678e-07
5.60779e-08
-6.50136e-07
4.98158e-08
-6.64171e-07
4.28371e-08
-6.75571e-07
3.51751e-08
-6.8414e-07
2.6877e-08
-6.89703e-07
1.80041e-08
-6.92112e-07
8.63147e-09
-6.91248e-07
-1.15196e-09
-6.87026e-07
-1.12452e-08
-6.79397e-07
-2.15345e-08
-6.68352e-07
-3.18964e-08
-6.53921e-07
-4.21986e-08
-6.36181e-07
-5.23024e-08
-6.15249e-07
-6.20651e-08
-5.91288e-07
-7.13424e-08
-5.64505e-07
-7.99916e-08
-5.35148e-07
-8.78742e-08
-5.03503e-07
-9.48598e-08
-4.69896e-07
-1.00828e-07
-4.34681e-07
-1.05674e-07
-3.98243e-07
-1.09306e-07
-3.60986e-07
-1.11657e-07
-3.23329e-07
-1.12677e-07
-2.85703e-07
-1.12341e-07
-2.48536e-07
-1.10649e-07
-2.12253e-07
-1.07625e-07
-1.77263e-07
-1.03322e-07
-1.43954e-07
-9.7812e-08
-1.12685e-07
-9.11951e-08
-8.37808e-08
-8.3591e-08
-5.7522e-08
-7.51393e-08
-3.41422e-08
-6.59965e-08
-1.38217e-08
-5.63334e-08
3.31649e-09
-4.63327e-08
1.72104e-08
-3.61868e-08
2.78624e-08
-2.60957e-08
3.53413e-08
-1.62673e-08
3.97848e-08
-6.91633e-09
4.14017e-08
1.7338e-09
4.0473e-08
9.44915e-09
3.73534e-08
1.59827e-08
3.24727e-08
2.1072e-08
2.63357e-08
2.44391e-08
1.9522e-08
2.5794e-08
1.26867e-08
2.48468e-08
6.56541e-09
2.13308e-08
1.99491e-09
1.50433e-08
5.91744e-09
-4.89277e-10
-1.32654e-09
-2.56922e-09
8.57675e-10
-6.64684e-09
6.17253e-09
-1.29699e-08
1.34173e-08
-2.16649e-08
2.17415e-08
-3.27636e-08
3.05183e-08
-4.6227e-08
3.93047e-08
-6.1966e-08
4.78072e-08
-7.98595e-08
5.58464e-08
-9.97678e-08
6.33276e-08
-1.21543e-07
7.02155e-08
-1.45038e-07
7.65139e-08
-1.70106e-07
8.22495e-08
-1.9661e-07
8.7459e-08
-2.24414e-07
9.21796e-08
-2.53389e-07
9.64423e-08
-2.83406e-07
1.00268e-07
-3.14334e-07
1.03663e-07
-3.46038e-07
1.06621e-07
-3.78375e-07
1.09121e-07
-4.11191e-07
1.11131e-07
-4.44322e-07
1.12607e-07
-4.77585e-07
1.13496e-07
-5.10785e-07
1.1374e-07
-5.43711e-07
1.13278e-07
-5.76136e-07
1.12048e-07
-6.0782e-07
1.09989e-07
-6.38508e-07
1.07047e-07
-6.67939e-07
1.03173e-07
-6.9584e-07
9.83272e-08
-7.21937e-07
9.24816e-08
-7.45954e-07
8.56207e-08
-7.6762e-07
7.77438e-08
-7.8667e-07
6.88661e-08
-8.02853e-07
5.90198e-08
-8.15933e-07
4.82548e-08
-8.25695e-07
3.66395e-08
-8.31952e-07
2.42605e-08
-8.34543e-07
1.1223e-08
-8.33345e-07
-2.35077e-09
-8.28268e-07
-1.6322e-08
-8.19266e-07
-3.05365e-08
-8.06335e-07
-4.48274e-08
-7.89517e-07
-5.90168e-08
-7.689e-07
-7.29191e-08
-7.44622e-07
-8.63434e-08
-7.16866e-07
-9.90977e-08
-6.85866e-07
-1.10992e-07
-6.51898e-07
-1.21842e-07
-6.15283e-07
-1.31474e-07
-5.76382e-07
-1.39729e-07
-5.35591e-07
-1.46465e-07
-4.93336e-07
-1.51561e-07
-4.50069e-07
-1.54924e-07
-4.06259e-07
-1.56487e-07
-3.62385e-07
-1.56215e-07
-3.1893e-07
-1.54103e-07
-2.76372e-07
-1.50183e-07
-2.35176e-07
-1.44518e-07
-1.95783e-07
-1.37205e-07
-1.58606e-07
-1.28372e-07
-1.24019e-07
-1.18178e-07
-9.23513e-08
-1.06807e-07
-6.38789e-08
-9.44689e-08
-3.88204e-08
-8.13919e-08
-1.73306e-08
-6.78226e-08
5.03728e-10
-5.40211e-08
1.46677e-08
-4.02597e-08
2.52208e-08
-2.68205e-08
3.23e-08
-1.39955e-08
3.61208e-08
-2.08698e-09
3.69787e-08
8.59123e-09
3.52501e-08
1.77113e-08
3.13923e-08
2.49298e-08
2.5944e-08
2.98874e-08
1.95262e-08
3.22118e-08
1.28465e-08
3.15264e-08
6.71069e-09
2.74666e-08
2.04985e-09
1.97041e-08
7.96728e-09
-9.81052e-10
-3.45478e-10
-4.31683e-09
4.19346e-09
-1.02585e-08
1.21142e-08
-1.89385e-08
2.20973e-08
-3.03963e-08
3.31993e-08
-4.45982e-08
4.47202e-08
-6.14562e-08
5.61626e-08
-8.08446e-08
6.71956e-08
-1.02615e-07
7.76166e-08
-1.26606e-07
8.73187e-08
-1.52653e-07
9.62627e-08
-1.80593e-07
1.04454e-07
-2.10268e-07
1.11924e-07
-2.41522e-07
1.18714e-07
-2.74208e-07
1.24866e-07
-3.08179e-07
1.30413e-07
-3.43288e-07
1.35376e-07
-3.79384e-07
1.39758e-07
-4.16309e-07
1.43546e-07
-4.53896e-07
1.46708e-07
-4.91965e-07
1.492e-07
-5.30321e-07
1.50963e-07
-5.68753e-07
1.51928e-07
-6.07034e-07
1.52021e-07
-6.4492e-07
1.51164e-07
-6.82151e-07
1.49279e-07
-7.18453e-07
1.46291e-07
-7.5354e-07
1.42134e-07
-7.87116e-07
1.36749e-07
-8.1888e-07
1.30091e-07
-8.48526e-07
1.22128e-07
-8.75752e-07
1.12847e-07
-9.00261e-07
1.02253e-07
-9.21765e-07
9.03707e-08
-9.39994e-07
7.72482e-08
-9.54694e-07
6.29546e-08
-9.65636e-07
4.75824e-08
-9.72623e-07
3.12469e-08
-9.75486e-07
1.40858e-08
-9.74095e-07
-3.74145e-09
-9.68361e-07
-2.20559e-08
-9.58238e-07
-4.06597e-08
-9.43726e-07
-5.93397e-08
-9.24873e-07
-7.78698e-08
-9.01778e-07
-9.60142e-08
-8.74589e-07
-1.13532e-07
-8.43508e-07
-1.30179e-07
-8.08784e-07
-1.45716e-07
-7.70716e-07
-1.5991e-07
-7.29649e-07
-1.72541e-07
-6.85972e-07
-1.83407e-07
-6.40111e-07
-1.92326e-07
-5.92527e-07
-1.99145e-07
-5.43709e-07
-2.03742e-07
-4.94167e-07
-2.0603e-07
-4.44423e-07
-2.05958e-07
-3.95007e-07
-2.03519e-07
-3.46445e-07
-1.98745e-07
-2.9925e-07
-1.91713e-07
-2.53914e-07
-1.8254e-07
-2.10901e-07
-1.71385e-07
-1.70634e-07
-1.58445e-07
-1.33488e-07
-1.43953e-07
-9.97846e-08
-1.28172e-07
-6.97826e-08
-1.11394e-07
-4.3672e-08
-9.39332e-08
-2.15692e-08
-7.61238e-08
-3.51284e-09
-5.83161e-08
1.05404e-08
-4.08737e-08
2.07174e-08
-2.41725e-08
2.7231e-08
-8.60056e-09
3.03805e-08
5.44166e-09
3.05526e-08
1.75392e-08
2.82209e-08
2.72615e-08
2.39469e-08
3.41613e-08
1.83821e-08
3.77766e-08
1.22739e-08
3.76346e-08
6.47935e-09
3.32612e-08
1.99133e-09
2.41922e-08
9.95861e-09
-1.50047e-09
1.155e-09
-6.18027e-09
8.87321e-09
-1.41223e-08
2.00561e-08
-2.53279e-08
3.33029e-08
-3.9734e-08
4.76054e-08
-5.72279e-08
6.2214e-08
-7.76614e-08
7.65961e-08
-1.00864e-07
9.03983e-08
-1.26654e-07
1.03406e-07
-1.54844e-07
1.15509e-07
-1.85251e-07
1.2667e-07
-2.17696e-07
1.36899e-07
-2.52006e-07
1.46234e-07
-2.88014e-07
1.54722e-07
-3.25559e-07
1.6241e-07
-3.64477e-07
1.69332e-07
-4.04607e-07
1.75506e-07
-4.45778e-07
1.80929e-07
-4.87812e-07
1.8558e-07
-5.30519e-07
1.89415e-07
-5.73694e-07
1.92375e-07
-6.17116e-07
1.94385e-07
-6.60546e-07
1.95358e-07
-7.03728e-07
1.95203e-07
-7.46389e-07
1.93825e-07
-7.88239e-07
1.91129e-07
-8.28974e-07
1.87027e-07
-8.6828e-07
1.8144e-07
-9.05833e-07
1.74302e-07
-9.41305e-07
1.65562e-07
-9.74366e-07
1.55189e-07
-1.00469e-06
1.43173e-07
-1.03196e-06
1.29525e-07
-1.05588e-06
1.14285e-07
-1.07615e-06
9.75156e-08
-1.0925e-06
7.93095e-08
-1.1047e-06
5.97852e-08
-1.11255e-06
3.90888e-08
-1.11585e-06
1.7393e-08
-1.11449e-06
-5.10423e-09
-1.10836e-06
-2.81814e-08
-1.09743e-06
-5.15955e-08
-1.08168e-06
-7.50852e-08
-1.06118e-06
-9.83742e-08
-1.03602e-06
-1.21175e-07
-1.00636e-06
-1.43194e-07
-9.72401e-07
-1.64134e-07
-9.34414e-07
-1.83703e-07
-8.92708e-07
-2.01616e-07
-8.47643e-07
-2.17606e-07
-7.99628e-07
-2.31422e-07
-7.49113e-07
-2.42841e-07
-6.96585e-07
-2.51673e-07
-6.42564e-07
-2.57763e-07
-5.87594e-07
-2.61e-07
-5.32236e-07
-2.61316e-07
-4.77061e-07
-2.58694e-07
-4.22639e-07
-2.53167e-07
-3.69532e-07
-2.44821e-07
-3.1828e-07
-2.33792e-07
-2.69395e-07
-2.2027e-07
-2.23352e-07
-2.04489e-07
-1.80575e-07
-1.8673e-07
-1.41431e-07
-1.67316e-07
-1.06224e-07
-1.46601e-07
-7.5183e-08
-1.24974e-07
-4.84598e-08
-1.02847e-07
-2.61224e-08
-8.06535e-08
-8.15122e-09
-5.88448e-08
5.56351e-09
-3.78873e-08
1.52237e-08
-1.82607e-08
2.11241e-08
-4.58791e-10
2.3653e-08
1.50103e-08
2.3292e-08
2.76226e-08
2.06167e-08
3.68366e-08
1.62997e-08
4.20936e-08
1.11165e-08
4.28178e-08
5.95782e-09
3.84199e-08
1.85048e-09
2.82995e-08
1.18091e-08
-2.03842e-09
3.19341e-09
-8.12269e-09
1.49575e-08
-1.81619e-08
3.00954e-08
-3.20161e-08
4.71571e-08
-4.95084e-08
6.50978e-08
-7.04368e-08
8.31424e-08
-9.45842e-08
1.00744e-07
-1.21728e-07
1.17542e-07
-1.51647e-07
1.33325e-07
-1.84126e-07
1.47988e-07
-2.18959e-07
1.61503e-07
-2.55952e-07
1.73891e-07
-2.94916e-07
1.85198e-07
-3.35674e-07
1.9548e-07
-3.78049e-07
2.04786e-07
-4.21868e-07
2.1315e-07
-4.6695e-07
2.20588e-07
-5.1311e-07
2.2709e-07
-5.60152e-07
2.32621e-07
-6.07863e-07
2.37127e-07
-6.56018e-07
2.40529e-07
-7.0437e-07
2.42737e-07
-7.52656e-07
2.43644e-07
-8.00593e-07
2.43141e-07
-8.47883e-07
2.41115e-07
-8.9421e-07
2.37455e-07
-9.39244e-07
2.32061e-07
-9.82646e-07
2.24842e-07
-1.02407e-06
2.15726e-07
-1.06316e-06
2.04657e-07
-1.09958e-06
1.91606e-07
-1.13297e-06
1.76567e-07
-1.16301e-06
1.59563e-07
-1.18937e-06
1.40646e-07
-1.21176e-06
1.19899e-07
-1.22989e-06
9.74385e-08
-1.24351e-06
7.34096e-08
-1.25241e-06
4.7991e-08
-1.25641e-06
2.13913e-08
-1.25536e-06
-6.15167e-09
-1.24917e-06
-3.43735e-08
-1.23778e-06
-6.29847e-08
-1.22119e-06
-9.16753e-08
-1.19945e-06
-1.20118e-07
-1.17265e-06
-1.47972e-07
-1.14096e-06
-1.74889e-07
-1.10457e-06
-2.00519e-07
-1.06376e-06
-2.24513e-07
-1.01884e-06
-2.46535e-07
-9.70186e-07
-2.66262e-07
-9.18213e-07
-2.83394e-07
-8.63389e-07
-2.97664e-07
-8.06223e-07
-3.08839e-07
-7.4726e-07
-3.16727e-07
-6.87072e-07
-3.21187e-07
-6.26257e-07
-3.22131e-07
-5.65425e-07
-3.19527e-07
-5.05187e-07
-3.13404e-07
-4.46153e-07
-3.03855e-07
-3.88913e-07
-2.91032e-07
-3.34031e-07
-2.75152e-07
-2.82032e-07
-2.56487e-07
-2.33394e-07
-2.35368e-07
-1.88536e-07
-2.12174e-07
-1.47808e-07
-1.87329e-07
-1.11485e-07
-1.61296e-07
-7.97612e-08
-1.34571e-07
-5.27391e-08
-1.07676e-07
-3.04296e-08
-8.11543e-08
-1.27471e-08
-5.55698e-08
4.92547e-10
-3.15004e-08
9.57272e-09
-9.53896e-09
1.48763e-08
9.70672e-09
1.68861e-08
2.56128e-08
1.61848e-08
3.75379e-08
1.34578e-08
4.48205e-08
9.49823e-09
4.67774e-08
5.21564e-09
4.27025e-08
1.65049e-09
3.18647e-08
1.34596e-08
-2.58875e-09
5.78215e-09
-1.01185e-08
2.24872e-08
-2.23215e-08
4.22985e-08
-3.89098e-08
6.37454e-08
-5.95855e-08
8.57734e-08
-8.40493e-08
1.07606e-07
-1.12009e-07
1.28703e-07
-1.43183e-07
1.48716e-07
-1.77308e-07
1.6745e-07
-2.14136e-07
1.84816e-07
-2.53438e-07
2.00805e-07
-2.95e-07
2.15454e-07
-3.38622e-07
2.28821e-07
-3.84112e-07
2.4097e-07
-4.31284e-07
2.51957e-07
-4.79949e-07
2.61815e-07
-5.29916e-07
2.70555e-07
-5.80983e-07
2.78157e-07
-6.32938e-07
2.84576e-07
-6.8555e-07
2.89739e-07
-7.38571e-07
2.93551e-07
-7.91737e-07
2.95902e-07
-8.4476e-07
2.96667e-07
-8.97336e-07
2.95717e-07
-9.49144e-07
2.92922e-07
-9.99844e-07
2.88156e-07
-1.04909e-06
2.81304e-07
-1.09651e-06
2.72268e-07
-1.14176e-06
2.60968e-07
-1.18445e-06
2.47348e-07
-1.22422e-06
2.3138e-07
-1.26072e-06
2.13065e-07
-1.29359e-06
1.92437e-07
-1.32251e-06
1.69564e-07
-1.34716e-06
1.4455e-07
-1.36726e-06
1.17532e-07
-1.38253e-06
8.86871e-08
-1.39277e-06
5.82249e-08
-1.39777e-06
2.63904e-08
-1.39738e-06
-6.53894e-09
-1.3915e-06
-4.02558e-08
-1.38006e-06
-7.44245e-08
-1.36305e-06
-1.08686e-07
-1.3405e-06
-1.42662e-07
-1.31251e-06
-1.75958e-07
-1.27923e-06
-2.08172e-07
-1.24086e-06
-2.38894e-07
-1.19765e-06
-2.67723e-07
-1.14992e-06
-2.94262e-07
-1.09805e-06
-3.18134e-07
-1.04246e-06
-3.38987e-07
-9.83621e-07
-3.565e-07
-9.22066e-07
-3.70394e-07
-8.58357e-07
-3.80437e-07
-7.93093e-07
-3.86451e-07
-7.26905e-07
-3.8832e-07
-6.60438e-07
-3.85994e-07
-5.9435e-07
-3.79492e-07
-5.29297e-07
-3.68909e-07
-4.65919e-07
-3.54409e-07
-4.04838e-07
-3.36234e-07
-3.46633e-07
-3.14692e-07
-2.91839e-07
-2.90162e-07
-2.40933e-07
-2.63081e-07
-1.94318e-07
-2.33944e-07
-1.52323e-07
-2.03292e-07
-1.15187e-07
-1.71707e-07
-8.30566e-08
-1.39806e-07
-5.59788e-08
-1.08232e-07
-3.38989e-08
-7.76498e-08
-1.66568e-08
-4.87424e-08
-3.98689e-09
-2.22089e-08
4.48277e-09
1.23707e-09
9.23004e-09
2.08656e-08
1.08389e-08
3.5929e-08
1.00008e-08
4.56587e-08
7.51735e-09
4.92608e-08
4.30624e-09
4.59136e-08
1.40816e-09
3.47627e-08
1.48677e-08
-3.14704e-09
8.9292e-09
-1.21481e-08
3.14883e-08
-2.6557e-08
5.67074e-08
-4.59338e-08
8.31222e-08
-6.98542e-08
1.09694e-07
-9.79169e-08
1.35669e-07
-1.29749e-07
1.60535e-07
-1.65007e-07
1.83975e-07
-2.03381e-07
2.05823e-07
-2.44588e-07
2.26023e-07
-2.88373e-07
2.44591e-07
-3.34506e-07
2.61586e-07
-3.82769e-07
2.77084e-07
-4.3296e-07
2.91161e-07
-4.84881e-07
3.03878e-07
-5.38332e-07
3.15267e-07
-5.93111e-07
3.25334e-07
-6.49003e-07
3.34049e-07
-7.05778e-07
3.41352e-07
-7.63193e-07
3.47153e-07
-8.20981e-07
3.51339e-07
-8.78858e-07
3.53779e-07
-9.36519e-07
3.54329e-07
-9.93641e-07
3.52839e-07
-1.04988e-06
3.49163e-07
-1.10489e-06
3.4316e-07
-1.15829e-06
3.34704e-07
-1.20971e-06
3.23687e-07
-1.25876e-06
3.10024e-07
-1.30507e-06
2.9366e-07
-1.34826e-06
2.74568e-07
-1.38796e-06
2.52759e-07
-1.4238e-06
2.28278e-07
-1.45544e-06
2.01208e-07
-1.48256e-06
1.71675e-07
-1.50487e-06
1.39839e-07
-1.52209e-06
1.05906e-07
-1.53398e-06
7.01158e-08
-1.54034e-06
3.27501e-08
-1.541e-06
-5.87536e-09
-1.53585e-06
-4.54114e-08
-1.5248e-06
-8.5477e-08
-1.50782e-06
-1.25665e-07
-1.48493e-06
-1.65546e-07
-1.45622e-06
-2.04672e-07
-1.42181e-06
-2.42584e-07
-1.38189e-06
-2.78817e-07
-1.3367e-06
-3.12908e-07
-1.28656e-06
-3.44403e-07
-1.23183e-06
-3.72865e-07
-1.17293e-06
-3.97883e-07
-1.11035e-06
-4.1908e-07
-1.04462e-06
-4.36124e-07
-9.76322e-07
-4.48735e-07
-9.06079e-07
-4.56694e-07
-8.34551e-07
-4.59848e-07
-7.62422e-07
-4.58123e-07
-6.90393e-07
-4.51522e-07
-6.19168e-07
-4.40133e-07
-5.49447e-07
-4.24131e-07
-4.81905e-07
-4.03775e-07
-4.17187e-07
-3.7941e-07
-3.5589e-07
-3.51459e-07
-2.98553e-07
-3.20418e-07
-2.45642e-07
-2.86854e-07
-1.97545e-07
-2.51389e-07
-1.54555e-07
-2.14697e-07
-1.16869e-07
-1.77492e-07
-8.45775e-08
-1.40523e-07
-5.76639e-08
-1.04563e-07
-3.59983e-08
-7.04081e-08
-1.93382e-08
-3.88689e-08
-7.32829e-09
-1.07729e-08
4.99518e-10
1.30378e-08
4.72513e-09
3.17034e-08
6.04018e-09
4.43436e-08
5.24887e-09
5.00521e-08
3.26934e-09
4.78931e-08
1.13546e-09
3.68966e-08
1.60032e-08
-3.70955e-09
1.26387e-08
-1.41952e-08
4.19739e-08
-3.08313e-08
7.33435e-08
-5.30235e-08
1.05314e-07
-8.02183e-08
1.36889e-07
-1.11909e-07
1.6736e-07
-1.47639e-07
1.96264e-07
-1.87e-07
2.23336e-07
-2.29632e-07
2.48455e-07
-2.75218e-07
2.71609e-07
-3.23475e-07
2.92848e-07
-3.74152e-07
3.12263e-07
-4.27019e-07
3.29951e-07
-4.81861e-07
3.46004e-07
-5.3847e-07
3.60486e-07
-5.96637e-07
3.73434e-07
-6.56148e-07
3.84844e-07
-7.16776e-07
3.94677e-07
-7.78281e-07
4.02856e-07
-8.40402e-07
4.09275e-07
-9.02862e-07
4.13799e-07
-9.65358e-07
4.16276e-07
-1.02757e-06
4.16543e-07
-1.08916e-06
4.14431e-07
-1.14978e-06
4.09777e-07
-1.20904e-06
4.02425e-07
-1.26658e-06
3.92238e-07
-1.32199e-06
3.79101e-07
-1.37489e-06
3.62925e-07
-1.42489e-06
3.43655e-07
-1.47159e-06
3.21268e-07
-1.51461e-06
2.95783e-07
-1.55359e-06
2.67258e-07
-1.58817e-06
2.35791e-07
-1.61803e-06
2.01527e-07
-1.64284e-06
1.64651e-07
-1.66233e-06
1.25394e-07
-1.67624e-06
8.40278e-08
-1.68436e-06
4.08663e-08
-1.68649e-06
-3.73684e-09
-1.68251e-06
-4.93935e-08
-1.67231e-06
-9.56777e-08
-1.65584e-06
-1.42136e-07
-1.6331e-06
-1.88288e-07
-1.60414e-06
-2.33634e-07
-1.56906e-06
-2.77657e-07
-1.52804e-06
-3.19835e-07
-1.48131e-06
-3.59644e-07
-1.42915e-06
-3.96565e-07
-1.37191e-06
-4.301e-07
-1.31002e-06
-4.59773e-07
-1.24395e-06
-4.85147e-07
-1.17425e-06
-5.05829e-07
-1.1015e-06
-5.21484e-07
-1.02635e-06
-5.31841e-07
-9.49494e-07
-5.36707e-07
-8.71645e-07
-5.35971e-07
-7.93552e-07
-5.29615e-07
-7.15972e-07
-5.17713e-07
-6.3966e-07
-5.00442e-07
-5.65359e-07
-4.78077e-07
-4.9378e-07
-4.50989e-07
-4.2559e-07
-4.19648e-07
-3.614e-07
-3.84609e-07
-3.01747e-07
-3.46508e-07
-2.47083e-07
-3.06053e-07
-1.97768e-07
-2.64012e-07
-1.54055e-07
-2.21205e-07
-1.16088e-07
-1.7849e-07
-8.38926e-08
-1.36758e-07
-5.73775e-08
-9.69232e-08
-3.6329e-08
-5.99174e-08
-2.04135e-08
-2.66884e-08
-9.17745e-09
1.80172e-09
-2.04952e-09
2.45755e-08
1.65797e-09
4.06362e-08
2.74739e-09
4.89627e-08
2.13332e-09
4.85072e-08
8.40683e-10
3.81893e-08
1.68439e-08
-4.27266e-09
1.69114e-08
-1.62446e-08
5.39458e-08
-3.51104e-08
9.22093e-08
-6.01202e-08
1.30324e-07
-9.05899e-08
1.67358e-07
-1.25906e-07
2.02676e-07
-1.65525e-07
2.35884e-07
-2.08975e-07
2.66786e-07
-2.55844e-07
2.95324e-07
-3.05777e-07
3.21541e-07
-3.58465e-07
3.45536e-07
-4.13636e-07
3.67435e-07
-4.71048e-07
3.87363e-07
-5.30472e-07
4.05428e-07
-5.91691e-07
4.21706e-07
-6.54489e-07
4.36231e-07
-7.1864e-07
4.48996e-07
-7.8391e-07
4.59947e-07
-8.50047e-07
4.68993e-07
-9.16779e-07
4.76008e-07
-9.83817e-07
4.80836e-07
-1.05085e-06
4.83306e-07
-1.11754e-06
4.83233e-07
-1.18354e-06
4.8043e-07
-1.24848e-06
4.74716e-07
-1.31198e-06
4.65924e-07
-1.37364e-06
4.53905e-07
-1.43308e-06
4.38536e-07
-1.48988e-06
4.19728e-07
-1.54365e-06
3.97423e-07
-1.59399e-06
3.71606e-07
-1.6405e-06
3.42301e-07
-1.68283e-06
3.09579e-07
-1.72059e-06
2.73554e-07
-1.75345e-06
2.34387e-07
-1.78108e-06
1.92286e-07
-1.8032e-06
1.47507e-07
-1.81952e-06
1.00348e-07
-1.82981e-06
5.11561e-08
-1.83386e-06
3.20532e-10
-1.83152e-06
-5.17378e-08
-1.82265e-06
-1.04546e-07
-1.80718e-06
-1.57608e-07
-1.78507e-06
-2.10395e-07
-1.75635e-06
-2.62353e-07
-1.7211e-06
-3.12911e-07
-1.67945e-06
-3.61486e-07
-1.6316e-06
-4.0749e-07
-1.57783e-06
-4.50341e-07
-1.51846e-06
-4.89471e-07
-1.45389e-06
-5.24337e-07
-1.38461e-06
-5.54433e-07
-1.31114e-06
-5.79299e-07
-1.23408e-06
-5.98536e-07
-1.15411e-06
-6.11813e-07
-1.07193e-06
-6.18886e-07
-9.88303e-07
-6.196e-07
-9.04016e-07
-6.13902e-07
-8.19882e-07
-6.01848e-07
-7.36719e-07
-5.83605e-07
-6.55339e-07
-5.59457e-07
-5.76527e-07
-5.29801e-07
-5.0103e-07
-4.95145e-07
-4.29537e-07
-4.56102e-07
-3.62665e-07
-4.1338e-07
-3.00943e-07
-3.67774e-07
-2.44805e-07
-3.20151e-07
-1.9457e-07
-2.7144e-07
-1.50444e-07
-2.22617e-07
-1.12505e-07
-1.74698e-07
-8.07043e-08
-1.28724e-07
-5.48652e-08
-8.57564e-08
-3.46806e-08
-4.6873e-08
-1.97161e-08
-1.31627e-08
-9.41286e-09
1.42722e-08
-3.0904e-09
3.43137e-08
4.90563e-11
4.58232e-08
9.17128e-10
4.76391e-08
5.29283e-10
3.85771e-08
1.73732e-08
-4.83267e-09
2.17441e-08
-1.82816e-08
6.73948e-08
-3.93617e-08
1.13289e-07
-6.7168e-08
1.58131e-07
-1.00886e-07
2.01076e-07
-1.39794e-07
2.41584e-07
-1.83264e-07
2.79354e-07
-2.30756e-07
3.14277e-07
-2.81808e-07
3.46376e-07
-3.36027e-07
3.7576e-07
-3.93077e-07
4.02586e-07
-4.52667e-07
4.27025e-07
-5.14538e-07
4.49234e-07
-5.78454e-07
4.69344e-07
-6.44188e-07
4.8744e-07
-7.11515e-07
5.03558e-07
-7.80202e-07
5.17683e-07
-8.50008e-07
5.29753e-07
-9.20672e-07
5.39657e-07
-9.91915e-07
5.4725e-07
-1.06344e-06
5.52357e-07
-1.13491e-06
5.54783e-07
-1.206e-06
5.54325e-07
-1.27635e-06
5.50777e-07
-1.34558e-06
5.43942e-07
-1.41329e-06
5.3364e-07
-1.4791e-06
5.19712e-07
-1.54259e-06
5.0203e-07
-1.60337e-06
4.80501e-07
-1.66101e-06
4.55068e-07
-1.71513e-06
4.2572e-07
-1.76532e-06
3.9249e-07
-1.81119e-06
3.55457e-07
-1.85239e-06
3.14749e-07
-1.88855e-06
2.70545e-07
-1.91933e-06
2.23071e-07
-1.94443e-06
1.72605e-07
-1.96356e-06
1.19472e-07
-1.97644e-06
6.40442e-08
-1.98287e-06
6.74223e-09
-1.98263e-06
-5.1973e-08
-1.97558e-06
-1.11596e-07
-1.9616e-06
-1.71584e-07
-1.94064e-06
-2.31363e-07
-1.91266e-06
-2.90327e-07
-1.87772e-06
-3.4785e-07
-1.83592e-06
-4.03287e-07
-1.78742e-06
-4.55987e-07
-1.73247e-06
-5.053e-07
-1.67135e-06
-5.50585e-07
-1.60446e-06
-5.91226e-07
-1.53226e-06
-6.2664e-07
-1.45526e-06
-6.56294e-07
-1.37408e-06
-6.79714e-07
-1.28939e-06
-6.96502e-07
-1.20193e-06
-7.06349e-07
-1.11249e-06
-7.09046e-07
-1.02189e-06
-7.04495e-07
-9.3102e-07
-6.9272e-07
-8.40753e-07
-6.73873e-07
-7.51975e-07
-6.48235e-07
-6.65555e-07
-6.16221e-07
-5.82325e-07
-5.78375e-07
-5.03064e-07
-5.35363e-07
-4.28479e-07
-4.87966e-07
-3.59188e-07
-4.37065e-07
-2.95706e-07
-3.83633e-07
-2.38434e-07
-3.28712e-07
-1.87645e-07
-2.73406e-07
-1.43481e-07
-2.18861e-07
-1.05946e-07
-1.66259e-07
-7.49049e-08
-1.16798e-07
-5.00832e-08
-7.16948e-08
-3.10706e-08
-3.21754e-08
-1.73238e-08
5.25474e-10
-8.17199e-09
2.51619e-08
-2.82217e-09
4.04734e-08
-3.67544e-10
4.51845e-08
2.04498e-10
3.80051e-08
1.75777e-08
-5.38563e-09
2.71297e-08
-2.0291e-08
8.23003e-08
-4.35527e-08
1.36551e-07
-7.41121e-08
1.8869e-07
-1.11025e-07
2.37988e-07
-1.53463e-07
2.84022e-07
-2.00714e-07
3.26606e-07
-2.52171e-07
3.65734e-07
-3.07322e-07
4.01527e-07
-3.65737e-07
4.34175e-07
-4.27052e-07
4.63901e-07
-4.90958e-07
4.9093e-07
-5.57181e-07
5.15458e-07
-6.25476e-07
5.37639e-07
-6.95608e-07
5.57571e-07
-7.67344e-07
5.75294e-07
-8.40448e-07
5.90788e-07
-9.14671e-07
6.03975e-07
-9.89746e-07
6.14732e-07
-1.06539e-06
6.22891e-07
-1.14129e-06
6.28257e-07
-1.21712e-06
6.30615e-07
-1.29253e-06
6.2974e-07
-1.36717e-06
6.25411e-07
-1.44064e-06
6.17413e-07
-1.51255e-06
6.05555e-07
-1.58251e-06
5.89669e-07
-1.6501e-06
5.69621e-07
-1.71491e-06
5.45314e-07
-1.77654e-06
5.16693e-07
-1.83457e-06
4.8375e-07
-1.8886e-06
4.46524e-07
-1.93825e-06
4.05102e-07
-1.98312e-06
3.59626e-07
-2.02286e-06
3.10286e-07
-2.05712e-06
2.57326e-07
-2.08555e-06
2.01042e-07
-2.10786e-06
1.41782e-07
-2.12376e-06
7.9942e-08
-2.13299e-06
1.59707e-08
-2.13533e-06
-4.96385e-08
-2.13058e-06
-1.16345e-07
-2.11859e-06
-1.83568e-07
-2.09927e-06
-2.50687e-07
-2.07255e-06
-3.17047e-07
-2.03843e-06
-3.81966e-07
-1.99698e-06
-4.4474e-07
-1.94831e-06
-5.04652e-07
-1.89263e-06
-5.6098e-07
-1.83021e-06
-6.1301e-07
-1.76139e-06
-6.60045e-07
-1.68661e-06
-7.01421e-07
-1.60638e-06
-7.36521e-07
-1.52131e-06
-7.64789e-07
-1.43206e-06
-7.85746e-07
-1.3394e-06
-7.99008e-07