/*--------------------------------*- C++ -*----------------------------------*\
  =========                 |
  \\      /  F ield         | OpenFOAM: The Open Source CFD Toolbox
   \\    /   O peration     | Website:  https://openfoam.org
    \\  /    A nd           | Version:  7
     \\/     M anipulation  |
\*---------------------------------------------------------------------------*/
FoamFile
{
    version     2.0;
    format      ascii;
    class       volVectorField;
    location    "0.4";
    object      U;
}
// * * * * * * * * * * * * * * * * * * * * * * * * * * * * * * * * * * * * * //

dimensions      [0 1 -1 0 0 0 0];

internalField   nonuniform List<vector> 
6400
(
(7.44068e-06 -7.13074e-06 0)
(2.68657e-05 -1.21016e-05 0)
(4.82094e-05 -1.03015e-05 0)
(5.83363e-05 -5.17059e-06 0)
(5.13569e-05 1.13079e-06 0)
(2.54776e-05 7.60602e-06 0)
(-1.92707e-05 1.37728e-05 0)
(-8.19728e-05 1.94234e-05 0)
(-0.000161223 2.44717e-05 0)
(-0.000255412 2.89068e-05 0)
(-0.000362858 3.27492e-05 0)
(-0.000481887 3.60324e-05 0)
(-0.000610879 3.87983e-05 0)
(-0.000748306 4.10914e-05 0)
(-0.000892731 4.29526e-05 0)
(-0.00104282 4.44199e-05 0)
(-0.00119734 4.55292e-05 0)
(-0.00135514 4.63134e-05 0)
(-0.00151515 4.68e-05 0)
(-0.0016764 4.70131e-05 0)
(-0.00183796 4.69714e-05 0)
(-0.00199895 4.6689e-05 0)
(-0.00215854 4.61776e-05 0)
(-0.00231592 4.5446e-05 0)
(-0.00247033 4.44998e-05 0)
(-0.002621 4.3341e-05 0)
(-0.00276717 4.19694e-05 0)
(-0.0029081 4.03839e-05 0)
(-0.00304303 3.8583e-05 0)
(-0.00317121 3.65645e-05 0)
(-0.00329189 3.43254e-05 0)
(-0.00340432 3.18633e-05 0)
(-0.00350773 2.91775e-05 0)
(-0.00360138 2.62687e-05 0)
(-0.00368454 2.31397e-05 0)
(-0.00375649 1.97957e-05 0)
(-0.00381655 1.6244e-05 0)
(-0.00386405 1.24958e-05 0)
(-0.00389841 8.5656e-06 0)
(-0.00391907 4.47107e-06 0)
(-0.00392556 2.34578e-07 0)
(-0.00391749 -4.11807e-06 0)
(-0.00389456 -8.55758e-06 0)
(-0.00385657 -1.30502e-05 0)
(-0.00380346 -1.75587e-05 0)
(-0.00373527 -2.20433e-05 0)
(-0.00365219 -2.64606e-05 0)
(-0.00355456 -3.07649e-05 0)
(-0.00344286 -3.49093e-05 0)
(-0.00331773 -3.88456e-05 0)
(-0.00317995 -4.25246e-05 0)
(-0.00303047 -4.58982e-05 0)
(-0.0028704 -4.89196e-05 0)
(-0.00270097 -5.15438e-05 0)
(-0.00252356 -5.3729e-05 0)
(-0.00233969 -5.54381e-05 0)
(-0.00215096 -5.66379e-05 0)
(-0.00195909 -5.73004e-05 0)
(-0.00176586 -5.74044e-05 0)
(-0.00157311 -5.69354e-05 0)
(-0.00138272 -5.58857e-05 0)
(-0.00119656 -5.42548e-05 0)
(-0.00101652 -5.20502e-05 0)
(-0.000844401 -4.9287e-05 0)
(-0.000681979 -4.59874e-05 0)
(-0.00053092 -4.2181e-05 0)
(-0.000392777 -3.79049e-05 0)
(-0.000268958 -3.32033e-05 0)
(-0.000160704 -2.81279e-05 0)
(-6.90511e-05 -2.27389e-05 0)
(5.19696e-06 -1.71084e-05 0)
(6.15198e-05 -1.13232e-05 0)
(9.97349e-05 -5.49121e-06 0)
(0.000120098 2.29291e-07 0)
(0.000123453 5.61275e-06 0)
(0.000111456 1.02989e-05 0)
(8.69086e-05 1.36963e-05 0)
(5.442e-05 1.4791e-05 0)
(2.24061e-05 1.19314e-05 0)
(3.95168e-06 3.96255e-06 0)
(1.2625e-05 -2.69955e-05 0)
(3.99208e-05 -3.92656e-05 0)
(5.8841e-05 -2.53499e-05 0)
(4.82491e-05 2.53126e-06 0)
(-3.39144e-06 3.67002e-05 0)
(-0.000100731 7.27557e-05 0)
(-0.000244782 0.000108171 0)
(-0.000434297 0.000141562 0)
(-0.00066661 0.000172196 0)
(-0.000938238 0.000199736 0)
(-0.00124528 0.000224077 0)
(-0.00158368 0.000245257 0)
(-0.00194938 0.000263391 0)
(-0.00233841 0.000278637 0)
(-0.00274698 0.000291174 0)
(-0.00317151 0.000301184 0)
(-0.0036086 0.000308845 0)
(-0.00405507 0.000314326 0)
(-0.00450792 0.000317775 0)
(-0.00496434 0.000319324 0)
(-0.00542168 0.000319083 0)
(-0.0058774 0.000317142 0)
(-0.00632908 0.000313573 0)
(-0.0067744 0.000308433 0)
(-0.00721108 0.000301758 0)
(-0.0076369 0.000293572 0)
(-0.00804968 0.00028389 0)
(-0.00844725 0.000272716 0)
(-0.00882745 0.000260051 0)
(-0.00918815 0.000245895 0)
(-0.00952719 0.000230246 0)
(-0.00984247 0.000213107 0)
(-0.0101319 0.000194488 0)
(-0.0103933 0.00017441 0)
(-0.0106249 0.000152907 0)
(-0.0108245 0.000130028 0)
(-0.0109903 0.000105837 0)
(-0.0111206 8.04206e-05 0)
(-0.0112138 5.38841e-05 0)
(-0.0112685 2.63556e-05 0)
(-0.0112833 -2.01336e-06 0)
(-0.0112575 -3.10476e-05 0)
(-0.0111901 -6.05502e-05 0)
(-0.0110808 -9.03015e-05 0)
(-0.0109295 -0.000120061 0)
(-0.0107363 -0.00014957 0)
(-0.010502 -0.000178553 0)
(-0.0102274 -0.000206723 0)
(-0.00991404 -0.000233783 0)
(-0.00956368 -0.000259429 0)
(-0.00917854 -0.00028336 0)
(-0.00876126 -0.000305274 0)
(-0.00831487 -0.000324883 0)
(-0.0078428 -0.000341913 0)
(-0.00734882 -0.000356108 0)
(-0.00683703 -0.000367239 0)
(-0.00631185 -0.000375105 0)
(-0.0057779 -0.000379543 0)
(-0.00524002 -0.000380425 0)
(-0.00470319 -0.000377666 0)
(-0.00417247 -0.000371227 0)
(-0.00365293 -0.000361116 0)
(-0.00314958 -0.000347389 0)
(-0.00266734 -0.000330151 0)
(-0.00221091 -0.00030956 0)
(-0.00178474 -0.000285822 0)
(-0.00139294 -0.000259196 0)
(-0.00103923 -0.000229995 0)
(-0.000726791 -0.00019859 0)
(-0.000458259 -0.000165418 0)
(-0.000235558 -0.000131 0)
(-5.97902e-05 -9.59618e-05 0)
(6.89155e-05 -6.10817e-05 0)
(0.000151659 -2.73616e-05 0)
(0.000191091 3.84614e-06 0)
(0.000191829 3.06537e-05 0)
(0.000160945 5.03635e-05 0)
(0.000108686 5.90579e-05 0)
(5.11974e-05 5.12962e-05 0)
(1.18359e-05 2.23321e-05 0)
(1.07598e-05 -4.87453e-05 0)
(2.62504e-05 -5.85977e-05 0)
(1.64029e-05 -1.54311e-05 0)
(-4.11313e-05 5.74971e-05 0)
(-0.000159321 0.000145534 0)
(-0.000344168 0.000239147 0)
(-0.000597374 0.000332281 0)
(-0.000917637 0.00042123 0)
(-0.00130161 0.000503824 0)
(-0.00174467 0.000578885 0)
(-0.00224141 0.000645871 0)
(-0.00278608 0.00070465 0)
(-0.00337275 0.000755356 0)
(-0.00399559 0.000798274 0)
(-0.00464887 0.000833774 0)
(-0.00532713 0.00086227 0)
(-0.00602513 0.000884184 0)
(-0.0067379 0.000899921 0)
(-0.00746074 0.000909855 0)
(-0.00818917 0.00091432 0)
(-0.00891895 0.000913604 0)
(-0.00964602 0.000907948 0)
(-0.0103665 0.000897548 0)
(-0.0110765 0.000882558 0)
(-0.0117725 0.000863089 0)
(-0.0124509 0.000839218 0)
(-0.0131081 0.000810999 0)
(-0.0137406 0.000778461 0)
(-0.014345 0.000741627 0)
(-0.0149178 0.000700512 0)
(-0.0154557 0.000655135 0)
(-0.0159552 0.000605527 0)
(-0.0164131 0.000551742 0)
(-0.0168261 0.000493859 0)
(-0.0171911 0.000431993 0)
(-0.0175051 0.000366303 0)
(-0.0177651 0.000296994 0)
(-0.0179686 0.000224321 0)
(-0.018113 0.000148601 0)
(-0.0181962 7.02076e-05 0)
(-0.0182165 -1.04246e-05 0)
(-0.0181722 -9.27971e-05 0)
(-0.0180625 -0.000176351 0)
(-0.0178867 -0.000260468 0)
(-0.0176447 -0.000344478 0)
(-0.017337 -0.000427659 0)
(-0.0169646 -0.00050925 0)
(-0.0165292 -0.000588456 0)
(-0.016033 -0.000664458 0)
(-0.0154789 -0.000736425 0)
(-0.0148704 -0.000803528 0)
(-0.0142117 -0.00086495 0)
(-0.0135074 -0.000919902 0)
(-0.012763 -0.000967638 0)
(-0.0119842 -0.00100747 0)
(-0.0111775 -0.00103876 0)
(-0.0103496 -0.00106099 0)
(-0.00950775 -0.00107371 0)
(-0.00865935 -0.00107658 0)
(-0.00781208 -0.00106937 0)
(-0.00697372 -0.001052 0)
(-0.00615205 -0.00102449 0)
(-0.00535478 -0.000987022 0)
(-0.00458941 -0.000939895 0)
(-0.00386316 -0.000883563 0)
(-0.0031828 -0.000818624 0)
(-0.00255459 -0.000745827 0)
(-0.00198411 -0.000666077 0)
(-0.00147617 -0.000580453 0)
(-0.00103464 -0.000490227 0)
(-0.000662275 -0.000396905 0)
(-0.000360573 -0.000302289 0)
(-0.000129498 -0.000208579 0)
(3.2801e-05 -0.0001185 0)
(0.000130376 -3.55611e-05 0)
(0.000169939 3.56584e-05 0)
(0.000161264 8.91043e-05 0)
(0.000117729 0.000116825 0)
(5.92654e-05 0.000108798 0)
(1.4683e-05 5.41767e-05 0)
(5.65494e-06 -5.9673e-05 0)
(-1.60905e-06 -4.853e-05 0)
(-5.68765e-05 4.20305e-05 0)
(-0.000178759 0.000178709 0)
(-0.000379067 0.000339992 0)
(-0.000663876 0.000511041 0)
(-0.00103484 0.000681856 0)
(-0.00149036 0.000845968 0)
(-0.00202651 0.00099934 0)
(-0.00263782 0.00113959 0)
(-0.00331782 0.00126549 0)
(-0.00405944 0.00137655 0)
(-0.00485537 0.00147282 0)
(-0.00569825 0.00155464 0)
(-0.00658083 0.00162257 0)
(-0.00749607 0.00167727 0)
(-0.00843718 0.00171943 0)
(-0.00939764 0.00174973 0)
(-0.0103712 0.00176884 0)
(-0.011352 0.00177733 0)
(-0.0123344 0.00177571 0)
(-0.0133127 0.00176444 0)
(-0.0142819 0.00174387 0)
(-0.0152367 0.00171429 0)
(-0.0161723 0.00167591 0)
(-0.0170837 0.0016289 0)
(-0.0179661 0.00157338 0)
(-0.0188149 0.00150941 0)
(-0.0196255 0.00143707 0)
(-0.020393 0.00135641 0)
(-0.0211132 0.0012675 0)
(-0.0217813 0.00117042 0)
(-0.0223931 0.00106531 0)
(-0.0229443 0.000952351 0)
(-0.0234306 0.000831792 0)
(-0.0238482 0.000703964 0)
(-0.0241932 0.000569285 0)
(-0.0244623 0.000428274 0)
(-0.0246523 0.000281554 0)
(-0.0247603 0.000129859 0)
(-0.0247842 -2.59623e-05 0)
(-0.024722 -0.000184947 0)
(-0.0245725 -0.00034602 0)
(-0.0243351 -0.000507999 0)
(-0.0240097 -0.000669602 0)
(-0.0235971 -0.000829459 0)
(-0.0230986 -0.000986125 0)
(-0.0225166 -0.0011381 0)
(-0.0218541 -0.00128383 0)
(-0.0211149 -0.00142176 0)
(-0.0203036 -0.00155032 0)
(-0.0194258 -0.00166799 0)
(-0.0184877 -0.00177329 0)
(-0.0174963 -0.00186482 0)
(-0.0164592 -0.00194128 0)
(-0.0153849 -0.00200152 0)
(-0.0142822 -0.00204453 0)
(-0.0131604 -0.0020695 0)
(-0.0120293 -0.00207579 0)
(-0.0108989 -0.00206301 0)
(-0.00977923 -0.00203098 0)
(-0.00868046 -0.0019798 0)
(-0.00761259 -0.00190979 0)
(-0.00658538 -0.00182155 0)
(-0.00560816 -0.00171598 0)
(-0.00468969 -0.00159424 0)
(-0.00383805 -0.00145777 0)
(-0.00306042 -0.00130833 0)
(-0.00236294 -0.00114802 0)
(-0.00175053 -0.000979311 0)
(-0.00122665 -0.000805092 0)
(-0.000793129 -0.000628799 0)
(-0.000449862 -0.000454546 0)
(-0.00019451 -0.000287331 0)
(-2.21291e-05 -0.000133336 0)
(7.5244e-05 -3.17453e-07 0)
(0.000108915 0.000101925 0)
(9.39619e-05 0.000161117 0)
(5.20259e-05 0.000162218 0)
(1.37926e-05 8.68527e-05 0)
(-6.93337e-07 -5.32649e-05 0)
(-3.64212e-05 3.24028e-06 0)
(-0.000147273 0.000161267 0)
(-0.000344935 0.000379697 0)
(-0.000638207 0.000631076 0)
(-0.00103217 0.000895764 0)
(-0.0015277 0.00116001 0)
(-0.0021225 0.00141451 0)
(-0.00281196 0.00165323 0)
(-0.00358982 0.00187242 0)
(-0.00444868 0.00206995 0)
(-0.00538046 0.00224488 0)
(-0.00637672 0.00239703 0)
(-0.00742889 0.00252675 0)
(-0.00852845 0.00263473 0)
(-0.00966705 0.00272184 0)
(-0.0108366 0.00278905 0)
(-0.0120292 0.00283733 0)
(-0.0132374 0.00286763 0)
(-0.0144539 0.00288082 0)
(-0.0156718 0.00287767 0)
(-0.0168843 0.00285883 0)
(-0.018085 0.00282486 0)
(-0.0192675 0.00277622 0)
(-0.0204256 0.00271324 0)
(-0.0215533 0.0026362 0)
(-0.0226447 0.0025453 0)
(-0.023694 0.00244069 0)
(-0.0246953 0.0023225 0)
(-0.025643 0.00219085 0)
(-0.0265315 0.00204588 0)
(-0.0273552 0.00188777 0)
(-0.0281088 0.00171678 0)
(-0.0287871 0.00153323 0)
(-0.029385 0.00133757 0)
(-0.0298977 0.00113036 0)
(-0.0303207 0.000912302 0)
(-0.0306498 0.000684256 0)
(-0.0308813 0.000447247 0)
(-0.0310119 0.000202472 0)
(-0.0310388 -4.86949e-05 0)
(-0.0309601 -0.000304703 0)
(-0.0307741 -0.000563828 0)
(-0.0304801 -0.000824181 0)
(-0.0300784 -0.00108372 0)
(-0.0295698 -0.00134027 0)
(-0.0289562 -0.00159154 0)
(-0.0282403 -0.00183516 0)
(-0.027426 -0.00206867 0)
(-0.0265178 -0.00228963 0)
(-0.0255215 -0.00249557 0)
(-0.0244438 -0.00268409 0)
(-0.0232921 -0.00285287 0)
(-0.0220751 -0.00299971 0)
(-0.0208019 -0.00312259 0)
(-0.0194826 -0.0032197 0)
(-0.018128 -0.00328947 0)
(-0.0167492 -0.00333062 0)
(-0.015358 -0.00334217 0)
(-0.0139664 -0.00332352 0)
(-0.0125864 -0.00327441 0)
(-0.0112304 -0.00319499 0)
(-0.0099103 -0.00308581 0)
(-0.00863779 -0.00294787 0)
(-0.00742405 -0.00278257 0)
(-0.00627962 -0.00259179 0)
(-0.00521412 -0.00237787 0)
(-0.00423615 -0.00214364 0)
(-0.00335302 -0.00189247 0)
(-0.00257058 -0.00162828 0)
(-0.00189298 -0.00135568 0)
(-0.00132241 -0.00108006 0)
(-0.00085886 -0.000807795 0)
(-0.000499808 -0.000546445 0)
(-0.000239887 -0.000305139 0)
(-7.05476e-05 -9.49804e-05 0)
(2.02176e-05 7.04254e-05 0)
(4.82375e-05 0.000174491 0)
(3.52974e-05 0.000197129 0)
(1.09012e-05 0.000112679 0)
(-7.34528e-06 -2.74702e-05 0)
(-7.41479e-05 0.000102563 0)
(-0.000246205 0.000350317 0)
(-0.000526589 0.00066926 0)
(-0.000919871 0.00102725 0)
(-0.00142928 0.00140062 0)
(-0.00205431 0.00177229 0)
(-0.00279152 0.00213035 0)
(-0.00363538 0.00246679 0)
(-0.00457875 0.00277644 0)
(-0.00561337 0.00305627 0)
(-0.00673025 0.00330473 0)
(-0.00791998 0.00352137 0)
(-0.00917297 0.00370648 0)
(-0.0104796 0.00386083 0)
(-0.0118305 0.00398549 0)
(-0.0132164 0.00408167 0)
(-0.0146283 0.00415064 0)
(-0.0160576 0.00419364 0)
(-0.0174959 0.0042118 0)
(-0.018935 0.00420618 0)
(-0.0203672 0.00417768 0)
(-0.0217847 0.00412706 0)
(-0.0231803 0.00405494 0)
(-0.0245466 0.00396183 0)
(-0.0258765 0.00384811 0)
(-0.0271631 0.00371411 0)
(-0.0283994 0.00356005 0)
(-0.0295787 0.00338617 0)
(-0.0306944 0.00319267 0)
(-0.0317398 0.0029798 0)
(-0.0327085 0.00274787 0)
(-0.0335943 0.00249729 0)
(-0.034391 0.00222859 0)
(-0.0350929 0.00194245 0)
(-0.0356943 0.00163971 0)
(-0.03619 0.00132146 0)
(-0.0365754 0.00098895 0)
(-0.036846 0.000643703 0)
(-0.0369982 0.00028747 0)
(-0.0370289 -7.77466e-05 0)
(-0.0369356 -0.000449697 0)
(-0.0367168 -0.000825888 0)
(-0.0363718 -0.0012036 0)
(-0.0359006 -0.00157989 0)
(-0.0353046 -0.00195165 0)
(-0.0345858 -0.0023156 0)
(-0.0337476 -0.00266834 0)
(-0.0327942 -0.00300639 0)
(-0.0317313 -0.00332623 0)
(-0.0305652 -0.00362438 0)
(-0.0293039 -0.00389742 0)
(-0.0279559 -0.00414203 0)
(-0.026531 -0.00435512 0)
(-0.0250399 -0.00453381 0)
(-0.0234943 -0.00467553 0)
(-0.0219063 -0.00477806 0)
(-0.0202889 -0.00483959 0)
(-0.0186556 -0.00485875 0)
(-0.0170201 -0.00483468 0)
(-0.0153964 -0.00476703 0)
(-0.0137984 -0.00465604 0)
(-0.01224 -0.00450253 0)
(-0.0107346 -0.00430791 0)
(-0.00929508 -0.00407425 0)
(-0.0079334 -0.00380426 0)
(-0.00666069 -0.00350132 0)
(-0.00548681 -0.0031695 0)
(-0.00442017 -0.00281365 0)
(-0.00346752 -0.00243939 0)
(-0.00263371 -0.00205328 0)
(-0.00192142 -0.00166292 0)
(-0.00133091 -0.00127713 0)
(-0.000859771 -0.000906254 0)
(-0.000502622 -0.0005625 0)
(-0.000250846 -0.000260362 0)
(-9.23564e-05 -1.71943e-05 0)
(-1.12835e-05 0.000146272 0)
(1.3117e-05 0.000205234 0)
(7.05284e-06 0.000127921 0)
(-1.38987e-05 1.82965e-05 0)
(-0.000112611 0.000252162 0)
(-0.000348461 0.00061354 0)
(-0.000715255 0.00105257 0)
(-0.00121263 0.00153375 0)
(-0.00184138 0.00203024 0)
(-0.00259907 0.00252223 0)
(-0.00348076 0.00299556 0)
(-0.00447971 0.00344042 0)
(-0.00558776 0.00385036 0)
(-0.00679576 0.00422139 0)
(-0.0080938 0.0045514 0)
(-0.0094716 0.00483964 0)
(-0.0109187 0.00508628 0)
(-0.0124245 0.00529214 0)
(-0.0139787 0.00545847 0)
(-0.0155711 0.0055867 0)
(-0.0171916 0.00567836 0)
(-0.0188308 0.00573499 0)
(-0.0204791 0.00575802 0)
(-0.0221275 0.00574876 0)
(-0.0237671 0.00570835 0)
(-0.0253893 0.00563778 0)
(-0.0269858 0.00553786 0)
(-0.0285482 0.00540926 0)
(-0.0300685 0.00525251 0)
(-0.0315387 0.00506804 0)
(-0.0329512 0.00485621 0)
(-0.034298 0.00461735 0)
(-0.0355718 0.00435178 0)
(-0.036765 0.0040599 0)
(-0.0378703 0.00374217 0)
(-0.0388807 0.00339919 0)
(-0.0397893 0.00303173 0)
(-0.0405895 0.00264076 0)
(-0.0412752 0.00222749 0)
(-0.0418404 0.00179339 0)
(-0.0422798 0.00134023 0)
(-0.0425887 0.000870088 0)
(-0.0427628 0.000385349 0)
(-0.0427988 -0.000111261 0)
(-0.0426941 -0.000616693 0)
(-0.0424468 -0.00112758 0)
(-0.0420562 -0.00164026 0)
(-0.0415226 -0.00215078 0)
(-0.0408472 -0.00265496 0)
(-0.0400326 -0.0031484 0)
(-0.0390825 -0.00362657 0)
(-0.0380016 -0.00408481 0)
(-0.0367963 -0.00451843 0)
(-0.0354737 -0.00492277 0)
(-0.0340426 -0.00529328 0)
(-0.0325126 -0.00562554 0)
(-0.0308947 -0.00591543 0)
(-0.0292007 -0.00615911 0)
(-0.0274437 -0.00635317 0)
(-0.0256372 -0.00649464 0)
(-0.0237957 -0.00658112 0)
(-0.0219343 -0.0066108 0)
(-0.0200683 -0.00658252 0)
(-0.0182132 -0.00649586 0)
(-0.0163848 -0.00635112 0)
(-0.0145983 -0.00614941 0)
(-0.0128689 -0.00589266 0)
(-0.0112109 -0.00558365 0)
(-0.00963773 -0.00522603 0)
(-0.00816191 -0.00482433 0)
(-0.00679448 -0.00438405 0)
(-0.00554495 -0.00391165 0)
(-0.00442098 -0.00341464 0)
(-0.00342821 -0.0029017 0)
(-0.00256991 -0.00238279 0)
(-0.00184686 -0.00186937 0)
(-0.00125699 -0.00137467 0)
(-0.00079526 -0.000914003 0)
(-0.000453403 -0.000505224 0)
(-0.000219728 -0.000169288 0)
(-7.88705e-05 6.92315e-05 0)
(-1.19191e-05 0.000181382 0)
(2.82686e-06 0.000130655 0)
(-2.02054e-05 8.39027e-05 0)
(-0.000150688 0.000452872 0)
(-0.000451003 0.000952819 0)
(-0.000905638 0.00153222 0)
(-0.001509 0.00215335 0)
(-0.00225904 0.00278716 0)
(-0.00315105 0.00341171 0)
(-0.00417824 0.00401104 0)
(-0.00533241 0.00457386 0)
(-0.00660425 0.00509257 0)
(-0.00798355 0.00556238 0)
(-0.00945953 0.00598064 0)
(-0.011021 0.0063463 0)
(-0.0126567 0.00665944 0)
(-0.0143552 0.00692092 0)
(-0.0161054 0.00713211 0)
(-0.0178961 0.00729468 0)
(-0.0197166 0.00741042 0)
(-0.0215563 0.00748114 0)
(-0.023405 0.00750855 0)
(-0.0252527 0.00749422 0)
(-0.0270896 0.00743955 0)
(-0.0289063 0.00734574 0)
(-0.0306935 0.00721381 0)
(-0.0324421 0.00704457 0)
(-0.0341432 0.00683873 0)
(-0.0357878 0.00659684 0)
(-0.0373674 0.00631939 0)
(-0.0388735 0.00600683 0)
(-0.0402976 0.00565965 0)
(-0.0416315 0.00527837 0)
(-0.0428671 0.00486366 0)
(-0.0439966 0.00441635 0)
(-0.0450125 0.00393748 0)
(-0.0459074 0.00342836 0)
(-0.0466746 0.0028906 0)
(-0.0473075 0.00232614 0)
(-0.0478004 0.00173729 0)
(-0.048148 0.00112677 0)
(-0.0483457 0.000497685 0)
(-0.0483897 -0.000146445 0)
(-0.0482773 -0.000801683 0)
(-0.0480064 -0.0014637 0)
(-0.0475763 -0.00212777 0)
(-0.0469871 -0.00278886 0)
(-0.0462403 -0.00344158 0)
(-0.0453387 -0.00408034 0)
(-0.0442863 -0.00469932 0)
(-0.0430883 -0.00529259 0)
(-0.0417515 -0.00585416 0)
(-0.0402838 -0.00637809 0)
(-0.0386948 -0.00685856 0)
(-0.0369949 -0.00728997 0)
(-0.0351961 -0.00766704 0)
(-0.0333114 -0.00798489 0)
(-0.0313549 -0.00823915 0)
(-0.0293416 -0.00842607 0)
(-0.0272872 -0.00854255 0)
(-0.0252083 -0.0085863 0)
(-0.0231215 -0.00855583 0)
(-0.0210441 -0.0084506 0)
(-0.0189932 -0.00827101 0)
(-0.0169856 -0.00801846 0)
(-0.0150379 -0.00769544 0)
(-0.0131659 -0.00730548 0)
(-0.0113845 -0.00685327 0)
(-0.00970743 -0.00634461 0)
(-0.00814701 -0.0057865 0)
(-0.00671385 -0.00518717 0)
(-0.0054166 -0.00455615 0)
(-0.00426177 -0.00390435 0)
(-0.00325342 -0.00324425 0)
(-0.00239297 -0.00259002 0)
(-0.001679 -0.00195781 0)
(-0.00110707 -0.00136603 0)
(-0.000669588 -0.00083584 0)
(-0.000355618 -0.000391568 0)
(-0.00015069 -6.12725e-05 0)
(-3.819e-05 0.000122594 0)
(-1.46219e-06 0.000120001 0)
(-2.62104e-05 0.00016885 0)
(-0.00018782 0.000704373 0)
(-0.000552108 0.0013684 0)
(-0.00109453 0.00210895 0)
(-0.00180419 0.00288711 0)
(-0.00267602 0.0036724 0)
(-0.00370276 0.00444145 0)
(-0.00487552 0.00517695 0)
(-0.00618446 0.00586649 0)
(-0.00761892 0.00650157 0)
(-0.00916759 0.00707675 0)
(-0.0108187 0.00758895 0)
(-0.0125602 0.00803688 0)
(-0.0143799 0.00842055 0)
(-0.0162658 0.00874088 0)
(-0.0182058 0.00899938 0)
(-0.0201882 0.00919794 0)
(-0.0222013 0.00933861 0)
(-0.024234 0.00942345 0)
(-0.0262751 0.00945446 0)
(-0.0283139 0.00943345 0)
(-0.0303398 0.00936208 0)
(-0.0323428 0.00924177 0)
(-0.0343125 0.00907371 0)
(-0.0362393 0.00885892 0)
(-0.0381132 0.00859824 0)
(-0.0399249 0.00829237 0)
(-0.0416648 0.00794194 0)
(-0.0433236 0.00754754 0)
(-0.0448922 0.00710981 0)
(-0.0463616 0.00662947 0)
(-0.0477231 0.00610738 0)
(-0.0489681 0.00554464 0)
(-0.0500883 0.00494259 0)
(-0.051076 0.00430291 0)
(-0.0519236 0.00362766 0)
(-0.0526242 0.0029193 0)
(-0.0531714 0.00218076 0)
(-0.0535595 0.00141541 0)
(-0.0537835 0.000627162 0)
(-0.0538393 -0.000179595 0)
(-0.0537238 -0.000999965 0)
(-0.0534348 -0.00182857 0)
(-0.0529714 -0.00265956 0)
(-0.0523338 -0.00348668 0)
(-0.0515235 -0.00430329 0)
(-0.0505433 -0.00510247 0)
(-0.0493975 -0.00587702 0)
(-0.0480919 -0.00661962 0)
(-0.0466334 -0.0073229 0)
(-0.0450307 -0.00797951 0)
(-0.0432938 -0.00858227 0)
(-0.0414342 -0.00912427 0)
(-0.0394645 -0.00959898 0)
(-0.0373988 -0.0100004 0)
(-0.0352523 -0.0103231 0)
(-0.033041 -0.0105624 0)
(-0.0307821 -0.0107145 0)
(-0.0284932 -0.0107766 0)
(-0.0261926 -0.0107468 0)
(-0.0238989 -0.0106243 0)
(-0.0216304 -0.0104098 0)
(-0.0194057 -0.0101048 0)
(-0.0172428 -0.00971245 0)
(-0.0151588 -0.00923712 0)
(-0.0131701 -0.00868453 0)
(-0.0112917 -0.00806185 0)
(-0.00953719 -0.00737767 0)
(-0.00791838 -0.00664209 0)
(-0.00644503 -0.00586673 0)
(-0.00512463 -0.00506488 0)
(-0.00396216 -0.00425157 0)
(-0.00295993 -0.00344376 0)
(-0.00211734 -0.00266052 0)
(-0.00143079 -0.00192337 0)
(-0.000893627 -0.0012566 0)
(-0.000495919 -0.000687737 0)
(-0.000224321 -0.000247942 0)
(-6.47377e-05 2.74062e-05 0)
(-5.65193e-06 9.57175e-05 0)
(-3.19091e-05 0.000272494 0)
(-0.00022376 0.00100571 0)
(-0.000650861 0.00185951 0)
(-0.00128005 0.00278229 0)
(-0.00209526 0.0037348 0)
(-0.00308828 0.00468584 0)
(-0.00424917 0.00561121 0)
(-0.0055668 0.00649275 0)
(-0.0070295 0.0073173 0)
(-0.00862514 0.00807574 0)
(-0.0103412 0.00876219 0)
(-0.0121648 0.00937328 0)
(-0.0140831 0.0099076 0)
(-0.016083 0.0103651 0)
(-0.0181518 0.0107469 0)
(-0.0202766 0.0110545 0)
(-0.0224451 0.0112902 0)
(-0.024645 0.0114562 0)
(-0.0268642 0.0115549 0)
(-0.0290912 0.0115885 0)
(-0.0313144 0.011559 0)
(-0.0335227 0.0114685 0)
(-0.0357051 0.0113185 0)
(-0.0378509 0.0111103 0)
(-0.0399494 0.0108453 0)
(-0.0419903 0.0105244 0)
(-0.0439633 0.0101484 0)
(-0.0458582 0.00971811 0)
(-0.0476651 0.00923428 0)
(-0.0493741 0.00869771 0)
(-0.0509756 0.00810931 0)
(-0.0524602 0.00747018 0)
(-0.0538187 0.00678168 0)
(-0.0550422 0.0060455 0)
(-0.0561223 0.00526372 0)
(-0.0570509 0.00443887 0)
(-0.0578204 0.00357398 0)
(-0.0584241 0.0026726 0)
(-0.0588557 0.00173888 0)
(-0.0591098 0.000777529 0)
(-0.059182 -0.000206114 0)
(-0.0590688 -0.00120613 0)
(-0.0587679 -0.00221602 0)
(-0.058278 -0.00322874 0)
(-0.0575993 -0.00423674 0)
(-0.0567333 -0.00523202 0)
(-0.0556829 -0.00620624 0)
(-0.0544524 -0.00715076 0)
(-0.0530478 -0.00805674 0)
(-0.0514766 -0.00891532 0)
(-0.0497477 -0.00971766 0)
(-0.0478718 -0.0104551 0)
(-0.0458609 -0.0111193 0)
(-0.0437286 -0.0117024 0)
(-0.0414896 -0.0121972 0)
(-0.0391603 -0.012597 0)
(-0.0367577 -0.0128963 0)
(-0.0343001 -0.0130904 0)
(-0.0318064 -0.0131758 0)
(-0.0292962 -0.0131503 0)
(-0.0267894 -0.0130129 0)
(-0.024306 -0.0127642 0)
(-0.0218657 -0.0124062 0)
(-0.0194882 -0.0119425 0)
(-0.0171919 -0.0113782 0)
(-0.0149947 -0.0107204 0)
(-0.0129131 -0.00997752 0)
(-0.0109619 -0.00915982 0)
(-0.00915427 -0.00827934 0)
(-0.0075011 -0.0073499 0)
(-0.00601107 -0.00638721 0)
(-0.00469026 -0.00540892 0)
(-0.00354201 -0.00443481 0)
(-0.00256674 -0.00348689 0)
(-0.0017619 -0.00258972 0)
(-0.00112195 -0.00177063 0)
(-0.000638139 -0.00106014 0)
(-0.000298357 -0.000492216 0)
(-9.1052e-05 -0.000104708 0)
(-9.6721e-06 5.79167e-05 0)
(-3.73256e-05 0.00039414 0)
(-0.000258433 0.00135561 0)
(-0.000746828 0.00242474 0)
(-0.00146119 0.00355095 0)
(-0.00238045 0.00469529 0)
(-0.0034933 0.00582646 0)
(-0.00478704 0.00691997 0)
(-0.00624819 0.00795728 0)
(-0.00786316 0.00892485 0)
(-0.00961823 0.00981327 0)
(-0.0114995 0.0106164 0)
(-0.0134932 0.0113309 0)
(-0.0155853 0.0119551 0)
(-0.017762 0.0124893 0)
(-0.0200098 0.0129345 0)
(-0.0223153 0.0132928 0)
(-0.0246652 0.0135663 0)
(-0.0270469 0.0137577 0)
(-0.0294476 0.0138697 0)
(-0.0318551 0.0139047 0)
(-0.0342574 0.013865 0)
(-0.0366426 0.0137528 0)
(-0.0389992 0.01357 0)
(-0.0413159 0.013318 0)
(-0.0435814 0.0129984 0)
(-0.0457847 0.0126121 0)
(-0.0479149 0.0121603 0)
(-0.0499612 0.0116438 0)
(-0.0519131 0.0110635 0)
(-0.0537601 0.0104204 0)
(-0.0554919 0.00971564 0)
(-0.0570984 0.00895051 0)
(-0.05857 0.00812669 0)
(-0.0598971 0.00724622 0)
(-0.0610706 0.00631159 0)
(-0.062082 0.00532585 0)
(-0.0629232 0.00429259 0)
(-0.0635868 0.00321607 0)
(-0.0640661 0.00210119 0)
(-0.0643554 0.000953558 0)
(-0.0644496 -0.000220519 0)
(-0.064345 -0.00141404 0)
(-0.0640389 -0.00261933 0)
(-0.0635298 -0.00382806 0)
(-0.0628178 -0.00503133 0)
(-0.061904 -0.00621972 0)
(-0.0607915 -0.00738336 0)
(-0.0594847 -0.00851208 0)
(-0.0579895 -0.00959545 0)
(-0.0563137 -0.010623 0)
(-0.0544667 -0.0115843 0)
(-0.0524595 -0.0124691 0)
(-0.0503046 -0.0132675 0)
(-0.0480163 -0.0139703 0)
(-0.0456103 -0.0145687 0)
(-0.0431035 -0.0150551 0)
(-0.0405142 -0.0154227 0)
(-0.0378617 -0.0156659 0)
(-0.0351662 -0.0157805 0)
(-0.0324485 -0.0157638 0)
(-0.0297298 -0.0156146 0)
(-0.0270316 -0.0153335 0)
(-0.0243752 -0.0149227 0)
(-0.0217815 -0.0143863 0)
(-0.0192707 -0.0137306 0)
(-0.0168621 -0.0129634 0)
(-0.0145737 -0.0120947 0)
(-0.0124217 -0.0111365 0)
(-0.0104208 -0.0101029 0)
(-0.00858311 -0.00900993 0)
(-0.00691873 -0.0078757 0)
(-0.00543496 -0.00672061 0)
(-0.00413633 -0.00556723 0)
(-0.00302447 -0.00444057 0)
(-0.00209802 -0.00336815 0)
(-0.00135269 -0.00238029 0)
(-0.000780994 -0.00151032 0)
(-0.000372108 -0.00079481 0)
(-0.00011691 -0.000273771 0)
(-1.35036e-05 6.87184e-06 0)
(-4.24897e-05 0.000533104 0)
(-0.000291858 0.00175265 0)
(-0.000839853 0.00306237 0)
(-0.00163745 0.00441316 0)
(-0.00265882 0.00576685 0)
(-0.00388961 0.00709261 0)
(-0.00531437 0.0083661 0)
(-0.00691721 0.00956886 0)
(-0.00868256 0.0106873 0)
(-0.010595 0.0117121 0)
(-0.0126394 0.0126372 0)
(-0.0148006 0.013459 0)
(-0.0170637 0.0141765 0)
(-0.0194142 0.0147897 0)
(-0.0218377 0.0153001 0)
(-0.0243201 0.01571 0)
(-0.0268477 0.0160218 0)
(-0.029407 0.0162386 0)
(-0.031985 0.0163631 0)
(-0.0345687 0.0163983 0)
(-0.0371458 0.0163466 0)
(-0.0397037 0.0162104 0)
(-0.0422305 0.0159918 0)
(-0.0447142 0.0156925 0)
(-0.0471431 0.0153141 0)
(-0.0495057 0.0148579 0)
(-0.0517903 0.014325 0)
(-0.0539859 0.0137164 0)
(-0.0560811 0.0130332 0)
(-0.0580649 0.0122765 0)
(-0.0599265 0.0114477 0)
(-0.0616553 0.0105483 0)
(-0.0632409 0.00958037 0)
(-0.0646733 0.00854618 0)
(-0.0659428 0.00744873 0)
(-0.0670402 0.00629154 0)
(-0.067957 0.00507885 0)
(-0.0686852 0.00381558 0)
(-0.0692176 0.00250747 0)
(-0.0695479 0.00116102 0)
(-0.0696706 -0.000216439 0)
(-0.0695817 -0.00161679 0)
(-0.0692779 -0.00303112 0)
(-0.0687576 -0.00444979 0)
(-0.0680203 -0.00586246 0)
(-0.0670671 -0.0072582 0)
(-0.0659009 -0.00862558 0)
(-0.0645259 -0.00995276 0)
(-0.0629483 -0.0112277 0)
(-0.0611758 -0.0124381 0)
(-0.0592181 -0.0135719 0)
(-0.0570864 -0.0146172 0)
(-0.0547939 -0.0155624 0)
(-0.0523553 -0.0163968 0)
(-0.0497869 -0.01711 0)
(-0.0471067 -0.0176931 0)
(-0.0443338 -0.0181381 0)
(-0.0414885 -0.0184385 0)
(-0.0385922 -0.0185891 0)
(-0.0356671 -0.0185867 0)
(-0.0327357 -0.0184298 0)
(-0.029821 -0.0181189 0)
(-0.0269458 -0.0176563 0)
(-0.0241326 -0.017047 0)
(-0.0214032 -0.0162976 0)
(-0.0187786 -0.0154175 0)
(-0.0162782 -0.0144179 0)
(-0.01392 -0.0133128 0)
(-0.0117201 -0.012118 0)
(-0.00969228 -0.0108519 0)
(-0.00784804 -0.00953534 0)
(-0.0061961 -0.0081913 0)
(-0.00474238 -0.00684525 0)
(-0.00348983 -0.00552515 0)
(-0.00243844 -0.00426152 0)
(-0.00158525 -0.00308758 0)
(-0.000924095 -0.00203944 0)
(-0.000445389 -0.00115611 0)
(-0.000142281 -0.000479593 0)
(-1.71573e-05 -5.70997e-05 0)
(-4.74277e-05 0.000688735 0)
(-0.000324088 0.00219536 0)
(-0.00092994 0.00377051 0)
(-0.00180868 0.00536683 0)
(-0.00292995 0.00694739 0)
(-0.00427644 0.0084822 0)
(-0.00583 0.00994756 0)
(-0.00757235 0.0113254 0)
(-0.00948587 0.0126027 0)
(-0.0115535 0.0137701 0)
(-0.0137585 0.014822 0)
(-0.0160848 0.0157552 0)
(-0.0185163 0.0165688 0)
(-0.0210377 0.0172633 0)
(-0.0236338 0.0178404 0)
(-0.02629 0.0183027 0)
(-0.0289918 0.0186532 0)
(-0.0317255 0.0188951 0)
(-0.0344772 0.0190314 0)
(-0.0372338 0.0190655 0)
(-0.0399823 0.019 0)
(-0.0427097 0.0188376 0)
(-0.0454036 0.0185805 0)
(-0.0480516 0.0182307 0)
(-0.0506416 0.0177899 0)
(-0.0531613 0.0172594 0)
(-0.055599 0.0166405 0)
(-0.0579427 0.0159345 0)
(-0.0601807 0.0151426 0)
(-0.0623016 0.0142659 0)
(-0.0642939 0.0133061 0)
(-0.0661465 0.012265 0)
(-0.0678484 0.0111447 0)
(-0.069389 0.00994814 0)
(-0.0707582 0.00867859 0)
(-0.0719461 0.00734015 0)
(-0.0729436 0.00593764 0)
(-0.0737421 0.00447671 0)
(-0.074334 0.00296391 0)
(-0.0747123 0.00140668 0)
(-0.0748711 -0.000186623 0)
(-0.0748057 -0.0018067 0)
(-0.0745125 -0.00344339 0)
(-0.0739894 -0.00508566 0)
(-0.0732354 -0.00672171 0)
(-0.0722516 -0.00833903 0)
(-0.0710402 -0.00992452 0)
(-0.0696055 -0.0114646 0)
(-0.0679535 -0.0129455 0)
(-0.0660919 -0.0143532 0)
(-0.0640305 -0.0156737 0)
(-0.0617808 -0.0168933 0)
(-0.0593562 -0.0179986 0)
(-0.056772 -0.0189772 0)
(-0.0540452 -0.0198173 0)
(-0.0511943 -0.0205083 0)
(-0.0482395 -0.0210409 0)
(-0.0452022 -0.0214074 0)
(-0.0421048 -0.0216019 0)
(-0.0389708 -0.0216203 0)
(-0.0358244 -0.0214607 0)
(-0.0326897 -0.0211234 0)
(-0.0295915 -0.0206111 0)
(-0.0265537 -0.019929 0)
(-0.0236 -0.0190847 0)
(-0.0207529 -0.0180885 0)
(-0.0180339 -0.0169533 0)
(-0.0154626 -0.0156947 0)
(-0.0130569 -0.0143306 0)
(-0.0108322 -0.0128819 0)
(-0.00880164 -0.0113719 0)
(-0.00697558 -0.00982624 0)
(-0.00536145 -0.00827345 0)
(-0.0039637 -0.00674445 0)
(-0.00278373 -0.00527277 0)
(-0.00182002 -0.00389455 0)
(-0.0010677 -0.00264863 0)
(-0.00051838 -0.00157646 0)
(-0.000167262 -0.000721991 0)
(-2.06623e-05 -0.000133714 0)
(-5.21635e-05 0.00086043 0)
(-0.000355195 0.00268231 0)
(-0.00101718 0.0045472 0)
(-0.0019749 0.00640975 0)
(-0.00319371 0.00823456 0)
(-0.00465345 0.00999288 0)
(-0.00633335 0.011662 0)
(-0.00821274 0.0132247 0)
(-0.010272 0.0146685 0)
(-0.0124923 0.0159848 0)
(-0.0148556 0.0171685 0)
(-0.0173443 0.0182168 0)
(-0.0199416 0.0191294 0)
(-0.0226312 0.0199072 0)
(-0.0253972 0.0205524 0)
(-0.0282242 0.021068 0)
(-0.0310975 0.0214574 0)
(-0.0340026 0.021724 0)
(-0.0369253 0.0218715 0)
(-0.039852 0.0219033 0)
(-0.0427692 0.0218224 0)
(-0.0456637 0.0216318 0)
(-0.0485226 0.0213337 0)
(-0.0513331 0.0209305 0)
(-0.0540826 0.0204238 0)
(-0.0567586 0.0198153 0)
(-0.0593487 0.0191063 0)
(-0.0618406 0.0182982 0)
(-0.0642222 0.0173922 0)
(-0.0664815 0.0163898 0)
(-0.0686064 0.0152926 0)
(-0.0705854 0.0141029 0)
(-0.072407 0.0128229 0)
(-0.07406 0.011456 0)
(-0.0755336 0.0100058 0)
(-0.0768175 0.00847701 0)
(-0.0779019 0.00687496 0)
(-0.0787777 0.00520607 0)
(-0.0794364 0.0034777 0)
(-0.0798707 0.00169822 0)
(-0.080074 -0.000122933 0)
(-0.0800409 -0.0019753 0)
(-0.0797673 -0.00384741 0)
(-0.0792505 -0.00572681 0)
(-0.0784893 -0.00760018 0)
(-0.0774838 -0.00945337 0)
(-0.0762363 -0.0112716 0)
(-0.0747505 -0.0130395 0)
(-0.0730323 -0.0147413 0)