/*--------------------------------*- C++ -*----------------------------------*\
  =========                 |
  \\      /  F ield         | OpenFOAM: The Open Source CFD Toolbox
   \\    /   O peration     | Website:  https://openfoam.org
    \\  /    A nd           | Version:  7
     \\/     M anipulation  |
\*---------------------------------------------------------------------------*/
FoamFile
{
    version     2.0;
    format      ascii;
    class       surfaceScalarField;
    location    "1.05";
    object      phi;
}
// * * * * * * * * * * * * * * * * * * * * * * * * * * * * * * * * * * * * * //

dimensions      [0 3 -1 0 0 0 0];

internalField   nonuniform List<scalar> 
12640
(
2.18366e-10
-2.28324e-10
6.1285e-10
-3.94532e-10
9.30108e-10
-3.17181e-10
1.03846e-09
-1.08393e-10
8.79355e-10
1.59136e-10
4.33622e-10
4.45717e-10
-2.95619e-10
7.29214e-10
-1.2933e-09
9.97682e-10
-2.53806e-09
1.24478e-09
-4.00558e-09
1.4675e-09
-5.6705e-09
1.66489e-09
-7.5077e-09
1.83719e-09
-9.49301e-09
1.9853e-09
-1.16035e-08
2.11052e-09
-1.38179e-08
2.21432e-09
-1.61161e-08
2.29821e-09
-1.84798e-08
2.36367e-09
-2.08918e-08
2.41205e-09
-2.33363e-08
2.44454e-09
-2.57985e-08
2.46215e-09
-2.82643e-08
2.46573e-09
-3.07202e-08
2.45592e-09
-3.31534e-08
2.4332e-09
-3.55513e-08
2.39786e-09
-3.79013e-08
2.35007e-09
-4.01913e-08
2.28991e-09
-4.24086e-08
2.21735e-09
-4.45409e-08
2.1323e-09
-4.65756e-08
2.03467e-09
-4.84999e-08
1.92433e-09
-5.03011e-08
1.8012e-09
-5.19664e-08
1.66526e-09
-5.34829e-08
1.51657e-09
-5.48382e-08
1.3553e-09
-5.602e-08
1.18177e-09
-5.70165e-08
9.96444e-10
-5.78164e-08
7.99954e-10
-5.84095e-08
5.93114e-10
-5.87865e-08
3.76935e-10
-5.89391e-08
1.52637e-10
-5.88607e-08
-7.83609e-11
-5.85463e-08
-3.14438e-10
-5.79925e-08
-5.5378e-10
-5.71981e-08
-7.94383e-10
-5.6164e-08
-1.03409e-09
-5.48935e-08
-1.27059e-09
-5.3392e-08
-1.50147e-09
-5.16678e-08
-1.72422e-09
-4.97315e-08
-1.93629e-09
-4.75963e-08
-2.13512e-09
-4.52781e-08
-2.31818e-09
-4.27951e-08
-2.48303e-09
-4.01678e-08
-2.62733e-09
-3.74188e-08
-2.74894e-09
-3.45729e-08
-2.84591e-09
-3.16564e-08
-2.91655e-09
-2.86969e-08
-2.95949e-09
-2.57232e-08
-2.97365e-09
-2.27649e-08
-2.95836e-09
-1.98516e-08
-2.91328e-09
-1.70131e-08
-2.83852e-09
-1.42785e-08
-2.73457e-09
-1.16761e-08
-2.60236e-09
-9.23287e-09
-2.44323e-09
-6.97394e-09
-2.25893e-09
-4.92231e-09
-2.05162e-09
-3.09842e-09
-1.82389e-09
-1.51967e-09
-1.57873e-09
-2.00043e-10
-1.31962e-09
8.50508e-10
-1.05054e-09
1.6266e-09
-7.76087e-10
2.12832e-09
-5.01731e-10
2.36249e-09
-2.34167e-10
2.34436e-09
1.81304e-11
2.10072e-09
2.43643e-10
1.67415e-09
4.26569e-10
1.12994e-09
5.44219e-10
5.66867e-10
5.63067e-10
1.33186e-10
4.33674e-10
1.3318e-10
3.91405e-10
-6.19773e-10
8.97365e-10
-9.00284e-10
1.12805e-09
-5.48009e-10
8.4795e-10
1.71729e-10
-7.53206e-11
1.08244e-09
-1.69987e-09
2.07022e-09
-4.03438e-09
3.06373e-09
-7.05564e-09
4.01898e-09
-1.0721e-08
4.91019e-09
-1.49767e-08
5.72319e-09
-1.97631e-08
6.45127e-09
-2.50184e-08
7.09256e-09
-3.06813e-08
7.6482e-09
-3.6692e-08
8.1212e-09
-4.29933e-08
8.51561e-09
-4.95311e-08
8.83598e-09
-5.62542e-08
9.08685e-09
-6.31147e-08
9.27258e-09
-7.00673e-08
9.39712e-09
-7.7069e-08
9.46392e-09
-8.40792e-08
9.47589e-09
-9.10586e-08
9.43531e-09
-9.79693e-08
9.34392e-09
-1.04774e-07
9.20295e-09
-1.11437e-07
9.01314e-09
-1.17922e-07
8.77488e-09
-1.24193e-07
8.48828e-09
-1.30214e-07
8.15325e-09
-1.35949e-07
7.76964e-09
-1.41362e-07
7.33732e-09
-1.46417e-07
6.85627e-09
-1.51079e-07
6.32671e-09
-1.55311e-07
5.74916e-09
-1.59081e-07
5.12458e-09
-1.62353e-07
4.45442e-09
-1.65097e-07
3.74066e-09
-1.67283e-07
2.98595e-09
-1.68884e-07
2.19356e-09
-1.69874e-07
1.36749e-09
-1.70234e-07
5.12472e-10
-1.69947e-07
-3.66062e-10
-1.68999e-07
-1.26195e-09
-1.67384e-07
-2.16835e-09
-1.65101e-07
-3.07777e-09
-1.62153e-07
-3.98215e-09
-1.58551e-07
-4.87297e-09
-1.54311e-07
-5.74128e-09
-1.49457e-07
-6.57789e-09
-1.4402e-07
-7.37343e-09
-1.38037e-07
-8.11856e-09
-1.31551e-07
-8.80406e-09
-1.24613e-07
-9.42105e-09
-1.17279e-07
-9.9611e-09
-1.09612e-07
-1.04164e-08
-1.01677e-07
-1.078e-08
-9.35483e-08
-1.10457e-08
-8.5299e-08
-1.12088e-08
-7.70074e-08
-1.12652e-08
-6.8753e-08
-1.12128e-08
-6.0616e-08
-1.10503e-08
-5.26762e-08
-1.07783e-08
-4.50121e-08
-1.03987e-08
-3.76994e-08
-9.91503e-09
-3.08102e-08
-9.33243e-09
-2.44116e-08
-8.65753e-09
-1.85646e-08
-7.89859e-09
-1.3323e-08
-7.06547e-09
-8.73203e-09
-6.16967e-09
-4.8271e-09
-5.22454e-09
-1.63219e-09
-4.24544e-09
8.41918e-10
-3.25018e-09
2.59989e-09
-2.2597e-09
3.66484e-09
-1.2991e-09
4.08238e-09
-3.99406e-10
3.92593e-09
4.00099e-10
3.3039e-09
1.04861e-09
2.36853e-09
1.4796e-09
1.32463e-09
1.60699e-09
4.31757e-10
1.32657e-09
5.64936e-10
3.21271e-10
-9.40967e-10
5.54099e-10
-1.13317e-09
2.67475e-10
-2.61342e-10
-8.08365e-10
1.24756e-09
-2.83476e-09
3.10877e-09
-5.88945e-09
5.12492e-09
-9.98879e-09
7.16309e-09
-1.51066e-08
9.13681e-09
-2.11883e-08
1.09918e-08
-2.81609e-08
1.26958e-08
-3.59411e-08
1.42315e-08
-4.44404e-08
1.55919e-08
-5.35687e-08
1.67765e-08
-6.32368e-08
1.77893e-08
-7.33581e-08
1.86369e-08
-8.38492e-08
1.93271e-08
-9.46309e-08
1.98685e-08
-1.05627e-07
2.02691e-08
-1.16767e-07
2.05366e-08
-1.27981e-07
2.06779e-08
-1.39203e-07
2.06985e-08
-1.50371e-07
2.06033e-08
-1.61423e-07
2.03958e-08
-1.72299e-07
2.00786e-08
-1.82939e-07
1.96535e-08
-1.93286e-07
1.91216e-08
-2.03281e-07
1.84832e-08
-2.12866e-07
1.77387e-08
-2.21985e-07
1.6888e-08
-2.30579e-07
1.59313e-08
-2.38591e-07
1.4869e-08
-2.45967e-07
1.37019e-08
-2.52649e-07
1.24317e-08
-2.58586e-07
1.10609e-08
-2.63724e-07
9.59305e-09
-2.68016e-07
8.03276e-09
-2.71416e-07
6.38608e-09
-2.73883e-07
4.6604e-09
-2.7538e-07
2.86458e-09
-2.75877e-07
1.00896e-09
-2.75348e-07
-8.94582e-10
-2.73778e-07
-2.83274e-09
-2.71155e-07
-4.79081e-09
-2.6748e-07
-6.75278e-09
-2.62761e-07
-8.70149e-09
-2.57015e-07
-1.06188e-08
-2.5027e-07
-1.24858e-08
-2.42565e-07
-1.4283e-08
-2.33948e-07
-1.59908e-08
-2.24477e-07
-1.75895e-08
-2.14221e-07
-1.90597e-08
-2.03259e-07
-2.03829e-08
-1.91679e-07
-2.15415e-08
-1.79576e-07
-2.25191e-08
-1.67055e-07
-2.33012e-08
-1.54226e-07
-2.38752e-08
-1.41204e-07
-2.42308e-08
-1.28109e-07
-2.43603e-08
-1.15063e-07
-2.42586e-08
-1.02189e-07
-2.39237e-08
-8.96108e-08
-2.33568e-08
-7.74473e-08
-2.25621e-08
-6.5815e-08
-2.15473e-08
-5.4824e-08
-2.03235e-08
-4.45766e-08
-1.89049e-08
-3.51658e-08
-1.73093e-08
-2.66731e-08
-1.55582e-08
-1.91665e-08
-1.36763e-08
-1.26986e-08
-1.16925e-08
-7.30411e-09
-9.63993e-09
-2.99732e-09
-7.55697e-09
2.31122e-10
-5.48814e-09
2.41807e-09
-3.48605e-09
3.63248e-09
-1.61381e-09
3.98131e-09
5.12775e-11
3.61584e-09
1.41408e-09
2.73946e-09
2.35597e-09
1.61368e-09
2.73277e-09
5.62282e-10
2.37798e-09
1.12722e-09
1.15555e-10
-1.05661e-09
-1.67609e-10
-8.49956e-10
-1.25621e-09
8.27291e-10
-3.41294e-09
3.40425e-09
-6.79734e-09
6.49316e-09
-1.14874e-08
9.81502e-09
-1.74981e-08
1.31738e-08
-2.47977e-08
1.64364e-08
-3.33216e-08
1.95157e-08
-4.29826e-08
2.23568e-08
-5.36797e-08
2.49286e-08
-6.53036e-08
2.72158e-08
-7.7742e-08
2.92148e-08
-9.08819e-08
3.09292e-08
-1.04612e-07
3.23673e-08
-1.18826e-07
3.35405e-08
-1.33418e-07
3.44607e-08
-1.48289e-07
3.51406e-08
-1.63344e-07
3.55917e-08
-1.78491e-07
3.58246e-08
-1.93641e-07
3.58485e-08
-2.08709e-07
3.56708e-08
-2.2361e-07
3.52974e-08
-2.38264e-07
3.47328e-08
-2.52591e-07
3.398e-08
-2.66511e-07
3.30412e-08
-2.79945e-07
3.19174e-08
-2.92815e-07
3.06094e-08
-3.05045e-07
2.91179e-08
-3.16558e-07
2.74436e-08
-3.27276e-07
2.55878e-08
-3.37127e-07
2.35527e-08
-3.46037e-07
2.13418e-08
-3.53936e-07
1.89599e-08
-3.60757e-07
1.64136e-08
-3.66435e-07
1.37115e-08
-3.70914e-07
1.08643e-08
-3.74138e-07
7.88517e-09
-3.76063e-07
4.78957e-09
-3.7665e-07
1.59545e-09
-3.75868e-07
-1.67679e-09
-3.73696e-07
-5.00433e-09
-3.70125e-07
-8.36209e-09
-3.65155e-07
-1.17229e-08
-3.58799e-07
-1.50576e-08
-3.51082e-07
-1.83358e-08
-3.42042e-07
-2.15255e-08
-3.31731e-07
-2.4594e-08
-3.20213e-07
-2.75085e-08
-3.07567e-07
-3.02359e-08
-2.93882e-07
-3.27441e-08
-2.79263e-07
-3.50019e-08
-2.63825e-07
-3.69801e-08
-2.47692e-07
-3.86514e-08
-2.31002e-07
-3.99918e-08
-2.13897e-07
-4.09802e-08
-1.96528e-07
-4.15997e-08
-1.79051e-07
-4.18373e-08
-1.61624e-07
-4.1685e-08
-1.44409e-07
-4.11395e-08
-1.27562e-07
-4.02028e-08
-1.11242e-07
-3.88825e-08
-9.55977e-08
-3.71917e-08
-8.07722e-08
-3.51489e-08
-6.68983e-08
-3.27788e-08
-5.4096e-08
-3.01117e-08
-4.24704e-08
-2.71838e-08
-3.2109e-08
-2.40376e-08
-2.30793e-08
-2.07222e-08
-1.54253e-08
-1.72939e-08
-9.16494e-09
-1.38173e-08
-4.28637e-09
-1.03667e-08
-7.43775e-10
-7.02864e-09
1.54711e-09
-3.9047e-09
2.71401e-09
-1.11561e-09
2.93409e-09
1.19402e-09
2.43958e-09
2.85048e-09
1.52438e-09
3.64797e-09
5.53148e-10
3.34922e-09
1.68037e-09
-1.56091e-10
-9.00498e-10
-1.10643e-09
1.00378e-10
-3.1886e-09
2.90944e-09
-6.62733e-09
6.84296e-09
-1.15585e-08
1.14244e-08
-1.80449e-08
1.63014e-08
-2.60899e-08
2.12188e-08
-3.56514e-08
2.59979e-08
-4.66534e-08
3.05176e-08
-5.89957e-08
3.46992e-08
-7.25621e-08
3.84951e-08
-8.72269e-08
4.18806e-08
-1.02859e-07
4.4847e-08
-1.19327e-07
4.73966e-08
-1.36498e-07
4.95388e-08
-1.54245e-07
5.12874e-08
-1.72442e-07
5.26583e-08
-1.9097e-07
5.36679e-08
-2.0971e-07
5.43322e-08
-2.28551e-07
5.46656e-08
-2.47384e-07
5.46808e-08
-2.66101e-07
5.43884e-08
-2.84601e-07
5.37969e-08
-3.02781e-07
5.29128e-08
-3.20542e-07
5.17408e-08
-3.37785e-07
5.02842e-08
-3.54412e-07
4.85453e-08
-3.70329e-07
4.65257e-08
-3.85438e-07
4.4227e-08
-3.99645e-07
4.16511e-08
-4.12858e-07
3.88008e-08
-4.24986e-07
3.56802e-08
-4.35939e-07
3.22953e-08
-4.45634e-07
2.86543e-08
-4.53988e-07
2.47678e-08
-4.60926e-07
2.06495e-08
-4.66378e-07
1.63162e-08
-4.70281e-07
1.17882e-08
-4.72581e-07
7.08931e-09
-4.73232e-07
2.24675e-09
-4.722e-07
-2.70853e-09
-4.69462e-07
-7.74216e-09
-4.65008e-07
-1.28165e-08
-4.5884e-07
-1.78908e-08
-4.50976e-07
-2.29218e-08
-4.41448e-07
-2.78639e-08
-4.30303e-07
-3.267e-08
-4.17606e-07
-3.72915e-08
-4.03435e-07
-4.16798e-08
-3.87884e-07
-4.57861e-08
-3.71066e-07
-4.95629e-08
-3.53103e-07
-5.29644e-08
-3.34136e-07
-5.59474e-08
-3.14315e-07
-5.8472e-08
-2.93805e-07
-6.05025e-08
-2.72776e-07
-6.20084e-08
-2.51412e-07
-6.29644e-08
-2.29897e-07
-6.33519e-08
-2.08423e-07
-6.31588e-08
-1.87182e-07
-6.23807e-08
-1.66364e-07
-6.10208e-08
-1.46156e-07
-5.90902e-08
-1.2674e-07
-5.66086e-08
-1.08285e-07
-5.3604e-08
-9.09504e-08
-5.01129e-08
-7.48811e-08
-4.61809e-08
-6.02027e-08
-4.18621e-08
-4.70203e-08
-3.72201e-08
-3.54147e-08
-3.23278e-08
-2.54396e-08
-2.72691e-08
-1.71178e-08
-2.21391e-08
-1.04378e-08
-1.70466e-08
-5.34997e-09
-1.21165e-08
-1.76207e-09
-7.4926e-09
4.64765e-10
-3.34244e-09
1.52087e-09
1.37925e-10
1.65306e-09
2.71829e-09
1.17092e-09
4.13011e-09
4.57194e-10
4.06295e-09
2.13756e-09
-4.57757e-10
-4.42721e-10
-2.16167e-09
1.80423e-09
-5.35857e-09
6.10636e-09
-1.02149e-08
1.16994e-08
-1.68269e-08
1.80364e-08
-2.52293e-08
2.47037e-08
-3.54051e-08
3.13946e-08
-4.7296e-08
3.78888e-08
-6.08114e-08
4.4033e-08
-7.58373e-08
4.97251e-08
-9.22433e-08
5.49011e-08
-1.09889e-07
5.95259e-08
-1.28627e-07
6.3585e-08
-1.48308e-07
6.70784e-08
-1.68786e-07
7.0016e-08
-1.89912e-07
7.24138e-08
-2.11545e-07
7.42909e-08
-2.33545e-07
7.56676e-08
-2.55776e-07
7.65638e-08
-2.78109e-07
7.6998e-08
-3.00414e-07
7.69864e-08
-3.22568e-07
7.65427e-08
-3.4445e-07
7.56783e-08
-3.65939e-07
7.44019e-08
-3.86918e-07
7.272e-08
-4.07271e-07
7.06375e-08
-4.26884e-07
6.8158e-08
-4.45643e-07
6.52844e-08
-4.63435e-07
6.20197e-08
-4.80152e-07
5.83675e-08
-4.95683e-07
5.43325e-08
-5.09925e-07
4.99215e-08
-5.22773e-07
4.51437e-08
-5.3413e-07
4.00115e-08
-5.43903e-07
3.45407e-08
-5.52005e-07
2.87511e-08
-5.58356e-07
2.26669e-08
-5.62884e-07
1.63168e-08
-5.65529e-07
9.73443e-09
-5.66241e-07
2.95801e-09
-5.6498e-07
-3.9693e-09
-5.61722e-07
-1.09997e-08
-5.56457e-07
-1.80812e-08
-5.49191e-07
-2.51574e-08
-5.39944e-07
-3.21688e-08
-5.28755e-07
-3.90528e-08
-5.1568e-07
-4.57445e-08
-5.00794e-07
-5.21778e-08
-4.84188e-07
-5.82858e-08
-4.65972e-07
-6.4002e-08
-4.46273e-07
-6.92617e-08
-4.25236e-07
-7.40022e-08
-4.03018e-07
-7.81646e-08
-3.79796e-07
-8.16947e-08
-3.55754e-07
-8.45438e-08
-3.31092e-07
-8.66702e-08
-3.06017e-07
-8.80395e-08
-2.80743e-07
-8.86264e-08
-2.55487e-07
-8.84145e-08
-2.3047e-07
-8.73977e-08
-2.05911e-07
-8.55804e-08
-1.82023e-07
-8.29781e-08
-1.59014e-07
-7.96177e-08
-1.3708e-07
-7.55379e-08
-1.16404e-07
-7.07889e-08
-9.71513e-08
-6.54332e-08
-7.94679e-08
-5.95455e-08
-6.3475e-08
-5.32129e-08
-4.92671e-08
-4.65357e-08
-3.6908e-08
-3.96282e-08
-2.64275e-08
-3.26196e-08
-1.78178e-08
-2.56563e-08
-1.10299e-08
-1.89044e-08
-5.96993e-09
-1.25526e-08
-2.49565e-09
-6.81672e-09
-4.12698e-10
-1.94502e-09
5.29545e-10
1.77606e-09
6.43066e-10
4.01659e-09
3.09276e-10
4.39675e-09
2.44683e-09
-7.7037e-10
3.27644e-10
-3.27208e-09
4.30591e-09
-7.65397e-09
1.04883e-08
-1.40131e-08
1.80586e-08
-2.23951e-08
2.64183e-08
-3.2797e-08
3.51056e-08
-4.51738e-08
4.37715e-08
-5.94452e-08
5.21602e-08
-7.55027e-08
6.00905e-08
-9.32163e-08
6.74387e-08
-1.12441e-07
7.41256e-08
-1.33021e-07
8.01061e-08
-1.54796e-07
8.53598e-08
-1.77602e-07
8.98843e-08
-2.01275e-07
9.36895e-08
-2.25655e-07
9.67932e-08
-2.50581e-07
9.92173e-08
-2.75899e-07
1.00986e-07
-3.01458e-07
1.02123e-07
-3.2711e-07
1.0265e-07
-3.52711e-07
1.02587e-07
-3.7812e-07
1.01952e-07
-4.032e-07
1.00758e-07
-4.27813e-07
9.90155e-08
-4.51828e-07
9.67344e-08
-4.75111e-07
9.39208e-08
-4.97533e-07
9.05798e-08
-5.18964e-07
8.67161e-08
-5.39279e-07
8.23343e-08
-5.58352e-07
7.74401e-08
-5.7606e-07
7.2041e-08
-5.92286e-07
6.61469e-08
-6.06913e-07
5.97711e-08
-6.19832e-07
5.29308e-08
-6.3094e-07
4.56481e-08
-6.40138e-07
3.79498e-08
-6.4734e-07
2.98687e-08
-6.52466e-07
2.14432e-08
-6.5545e-07
1.2718e-08
-6.56236e-07
3.74368e-09
-6.54782e-07
-5.4228e-09
-6.51063e-07
-1.47187e-08
-6.45069e-07
-2.40758e-08
-6.36805e-07
-3.34207e-08
-6.26299e-07
-4.26755e-08
-6.13592e-07
-5.1759e-08
-5.9875e-07
-6.05868e-08
-5.81855e-07
-6.9073e-08
-5.6301e-07
-7.7131e-08
-5.42337e-07
-8.46747e-08
-5.19979e-07
-9.162e-08
-4.96095e-07
-9.78861e-08
-4.70863e-07
-1.03397e-07
-4.44476e-07
-1.08081e-07
-4.17143e-07
-1.11877e-07
-3.89083e-07
-1.1473e-07
-3.60526e-07
-1.16596e-07
-3.31711e-07
-1.17441e-07
-3.02881e-07
-1.17245e-07
-2.74281e-07
-1.15998e-07
-2.46153e-07
-1.13708e-07
-2.18737e-07
-1.10394e-07
-1.92265e-07
-1.0609e-07
-1.66956e-07
-1.00847e-07
-1.43015e-07
-9.47298e-08
-1.20629e-07
-8.782e-08
-9.99599e-08
-8.02141e-08
-8.11474e-08
-7.20254e-08
-6.42996e-08
-6.33836e-08
-4.9492e-08
-5.44358e-08
-3.67635e-08
-4.5348e-08
-2.61134e-08
-3.63064e-08
-1.74976e-08
-2.75202e-08
-1.08257e-08
-1.92244e-08
-5.95841e-09
-1.1684e-08
-2.70449e-09
-5.19893e-09
-8.1794e-10
-1.10483e-10
5.14528e-12
3.19351e-09
1.31636e-10
4.27026e-09
2.57847e-09
-1.08388e-09
1.41155e-09
-4.401e-09
7.62308e-09
-1.00031e-08
1.60904e-08
-1.79129e-08
2.59683e-08
-2.81184e-08
3.66238e-08
-4.05726e-08
4.75598e-08
-5.51963e-08
5.83952e-08
-7.18824e-08
6.88463e-08
-9.05005e-08
7.87087e-08
-1.10903e-07
8.78407e-08
-1.32927e-07
9.61503e-08
-1.56405e-07
1.03584e-07
-1.8116e-07
1.10115e-07
-2.07015e-07
1.1574e-07
-2.33794e-07
1.20468e-07
-2.61321e-07
1.2432e-07
-2.89422e-07
1.27319e-07
-3.1793e-07
1.29494e-07
-3.46678e-07
1.30871e-07
-3.75504e-07
1.31476e-07
-4.04249e-07
1.31333e-07
-4.32759e-07
1.30462e-07
-4.60881e-07
1.28879e-07
-4.88464e-07
1.26598e-07
-5.1536e-07
1.2363e-07
-5.41423e-07
1.19984e-07
-5.66508e-07
1.15665e-07
-5.90474e-07
1.10682e-07
-6.13179e-07
1.05039e-07
-6.34486e-07
9.87472e-08
-6.5426e-07
9.18151e-08
-6.7237e-07
8.42572e-08
-6.88691e-07
7.60914e-08
-7.03101e-07
6.73407e-08
-7.15486e-07
5.80339e-08
-7.25743e-07
4.8206e-08
-7.33773e-07
3.78993e-08
-7.39493e-07
2.7163e-08
-7.42829e-07
1.60539e-08
-7.43722e-07
4.63644e-09
-7.42127e-07
-7.01753e-09
-7.38017e-07
-1.88289e-08
-7.31381e-07
-3.07119e-08
-7.22227e-07
-4.25744e-08
-7.10583e-07
-5.43191e-08
-6.96498e-07
-6.58439e-08
-6.80041e-07
-7.70439e-08
-6.61303e-07
-8.78115e-08
-6.40395e-07
-9.80387e-08
-6.17451e-07
-1.07618e-07
-5.92626e-07
-1.16446e-07
-5.66093e-07
-1.24419e-07
-5.38045e-07
-1.31445e-07
-5.08692e-07
-1.37434e-07
-4.78262e-07
-1.42308e-07
-4.46993e-07
-1.45999e-07
-4.15137e-07
-1.48452e-07
-3.82952e-07
-1.49625e-07
-3.50705e-07
-1.49492e-07
-3.18663e-07
-1.48041e-07
-2.87092e-07
-1.45279e-07
-2.56254e-07
-1.41231e-07
-2.26404e-07
-1.3594e-07
-1.97784e-07
-1.29467e-07
-1.70619e-07
-1.21895e-07
-1.45117e-07
-1.13323e-07
-1.21458e-07
-1.03873e-07
-9.9799e-08
-9.36845e-08
-8.02633e-08
-8.29193e-08
-6.29398e-08
-7.17592e-08
-4.78794e-08
-6.04085e-08
-3.5091e-08
-4.90948e-08
-2.45395e-08
-3.80717e-08
-1.61426e-08
-2.76214e-08
-9.76875e-09
-1.80578e-08
-5.2356e-09
-9.73207e-09
-2.30818e-09
-3.0379e-09
-6.97805e-10
1.58314e-09
-6.14539e-11
3.63392e-09
2.51703e-09
-1.3931e-09
2.80466e-09
-5.52703e-09
1.1757e-08
-1.23609e-08
2.29242e-08
-2.18418e-08
3.54492e-08
-3.3897e-08
4.8679e-08
-4.84311e-08
6.20939e-08
-6.53261e-08
7.52903e-08
-8.44442e-08
8.79643e-08
-1.0563e-07
9.98945e-08
-1.28715e-07
1.10926e-07
-1.5352e-07
1.20955e-07
-1.7986e-07
1.29924e-07
-2.07546e-07
1.37801e-07
-2.36387e-07
1.44581e-07
-2.66194e-07
1.50275e-07
-2.96778e-07
1.54904e-07
-3.27955e-07
1.58496e-07
-3.59542e-07
1.61081e-07
-3.91361e-07
1.6269e-07
-4.23238e-07
1.63353e-07
-4.55001e-07
1.63096e-07
-4.86482e-07
1.61943e-07
-5.17515e-07
1.59912e-07
-5.47937e-07
1.5702e-07
-5.77587e-07
1.5328e-07
-6.06306e-07
1.48703e-07
-6.33937e-07
1.43296e-07
-6.60324e-07
1.3707e-07
-6.85317e-07
1.30032e-07
-7.08765e-07
1.22195e-07
-7.30521e-07
1.13572e-07
-7.50445e-07
1.04181e-07
-7.684e-07
9.40462e-08
-7.84256e-07
8.31964e-08
-7.9789e-07
7.16679e-08
-8.09188e-07
5.95049e-08
-8.18049e-07
4.67597e-08
-8.24379e-07
3.34934e-08
-8.28101e-07
1.97759e-08
-8.29151e-07
5.68636e-09
-8.27481e-07
-8.68727e-09
-8.23062e-07
-2.32484e-08
-8.15881e-07
-3.78925e-08
-8.05948e-07
-5.25074e-08
-7.93292e-07
-6.6975e-08
-7.77965e-07
-8.11714e-08
-7.6004e-07
-9.49691e-08
-7.39613e-07
-1.08238e-07
-7.16805e-07
-1.20847e-07
-6.91757e-07
-1.32666e-07
-6.64634e-07
-1.43569e-07
-6.35621e-07
-1.53432e-07
-6.04926e-07
-1.6214e-07
-5.72773e-07
-1.69587e-07
-5.39404e-07
-1.75676e-07
-5.05077e-07
-1.80326e-07
-4.70062e-07
-1.83468e-07
-4.34636e-07
-1.85051e-07
-3.99087e-07
-1.85041e-07
-3.63703e-07
-1.83425e-07
-3.28772e-07
-1.8021e-07
-2.94578e-07
-1.75424e-07
-2.61398e-07
-1.6912e-07
-2.29495e-07
-1.6137e-07
-1.99117e-07
-1.52273e-07
-1.70489e-07
-1.41951e-07
-1.43814e-07
-1.30548e-07
-1.19265e-07
-1.18233e-07
-9.69836e-08
-1.05201e-07
-7.7073e-08
-9.16698e-08
-5.95987e-08
-7.78828e-08
-4.45828e-08
-6.41107e-08
-3.20022e-08
-5.06523e-08
-2.17866e-08
-3.7837e-08
-1.38164e-08
-2.60279e-08
-7.92254e-09
-1.56259e-08
-3.88562e-09
-7.0748e-09
-1.43713e-09
-8.65344e-10
-2.61436e-10
2.45823e-09
2.2556e-09
-1.69544e-09
4.5001e-09
-6.63769e-09
1.66992e-08
-1.46988e-08
3.09853e-08
-2.57519e-08
4.65023e-08
-3.96621e-08
6.25892e-08
-5.62832e-08
7.87149e-08
-7.54556e-08
9.44628e-08
-9.70077e-08
1.09516e-07
-1.20757e-07
1.23643e-07
-1.46511e-07
1.3668e-07
-1.74073e-07
1.48518e-07
-2.03241e-07
1.59092e-07
-2.33812e-07
1.68371e-07
-2.65581e-07
1.76351e-07
-2.98348e-07
1.83042e-07
-3.31911e-07
1.88468e-07
-3.66076e-07
1.9266e-07
-4.00648e-07
1.95653e-07
-4.35439e-07
1.9748e-07
-4.70262e-07
1.98176e-07
-5.04934e-07
1.97769e-07
-5.39277e-07
1.96285e-07
-5.73112e-07
1.93748e-07
-6.06266e-07
1.90174e-07
-6.38566e-07
1.8558e-07
-6.69841e-07
1.79978e-07
-6.99923e-07
1.73378e-07
-7.28647e-07
1.65793e-07
-7.55848e-07
1.57233e-07
-7.81368e-07
1.47714e-07
-8.05049e-07
1.37253e-07
-8.2674e-07
1.25872e-07
-8.46295e-07
1.13602e-07
-8.63577e-07
1.00478e-07
-8.78453e-07
8.65439e-08
-8.90802e-07
7.18545e-08
-9.00515e-07
5.64727e-08
-9.07494e-07
4.04719e-08
-9.11654e-07
2.39362e-08
-9.12928e-07
6.96006e-09
-9.11263e-07
-1.03515e-08
-9.06628e-07
-2.78834e-08
-8.9901e-07
-4.55113e-08
-8.88415e-07
-6.31024e-08
-8.74874e-07
-8.0516e-08
-8.5844e-07
-9.76056e-08
-8.39189e-07
-1.1422e-07
-8.17222e-07
-1.30205e-07
-7.92664e-07
-1.45405e-07
-7.65664e-07
-1.59666e-07
-7.36395e-07
-1.72838e-07
-7.05053e-07
-1.84774e-07
-6.71854e-07
-1.95338e-07
-6.37038e-07
-2.04403e-07
-6.0086e-07
-2.11854e-07
-5.63594e-07
-2.17592e-07
-5.25526e-07
-2.21536e-07
-4.86953e-07
-2.23624e-07
-4.48181e-07
-2.23813e-07
-4.09519e-07
-2.22087e-07
-3.71276e-07
-2.18453e-07
-3.33757e-07
-2.12943e-07
-2.97262e-07
-2.05615e-07
-2.62075e-07
-1.96557e-07
-2.28465e-07
-1.85883e-07
-1.96679e-07
-1.73736e-07
-1.66942e-07
-1.60285e-07
-1.39445e-07
-1.4573e-07
-1.14348e-07
-1.30298e-07
-9.17739e-08
-1.14244e-07
-7.18035e-08
-9.78532e-08
-5.44753e-08
-8.14389e-08
-3.97815e-08
-6.53461e-08
-2.76668e-08
-4.99517e-08
-1.80271e-08
-3.56676e-08
-1.07097e-08
-2.29433e-08
-5.51416e-09
-1.22703e-08
-2.19441e-09
-4.18509e-09
-4.633e-10
7.27124e-10
1.7923e-09
-1.98969e-09
6.48977e-09
-7.72579e-09
2.24353e-08
-1.69992e-08
4.02587e-08
-2.96115e-08
5.91146e-08
-4.53663e-08
7.83441e-08
-6.40654e-08
9.7414e-08
-8.5506e-08
1.15903e-07
-1.09481e-07
1.33491e-07
-1.35777e-07
1.4994e-07
-1.64179e-07
1.65082e-07
-1.94469e-07
1.78808e-07
-2.26428e-07
1.91051e-07
-2.59838e-07
2.01781e-07
-2.94482e-07
2.10995e-07
-3.30146e-07
2.18706e-07
-3.6662e-07
2.24941e-07
-4.03696e-07
2.29736e-07
-4.41171e-07
2.33128e-07
-4.78847e-07
2.35156e-07
-5.16526e-07
2.35855e-07
-5.54017e-07
2.35259e-07
-5.9113e-07
2.33398e-07
-6.27677e-07
2.30295e-07
-6.63474e-07
2.25972e-07
-6.98339e-07
2.20445e-07
-7.32091e-07
2.1373e-07
-7.64552e-07
2.05839e-07
-7.95546e-07
1.96787e-07
-8.24901e-07
1.86588e-07
-8.52446e-07
1.75259e-07
-8.78016e-07
1.62823e-07
-9.01451e-07
1.49307e-07
-9.22597e-07
1.34747e-07
-9.41305e-07
1.19186e-07
-9.57439e-07
1.02677e-07
-9.70868e-07
8.52839e-08
-9.81476e-07
6.70809e-08
-9.89159e-07
4.81549e-08
-9.93827e-07
2.86043e-08
-9.95407e-07
8.53996e-09
-9.93843e-07
-1.19156e-08
-9.89098e-07
-3.26282e-08
-9.81157e-07
-5.34528e-08
-9.70024e-07
-7.42347e-08
-9.5573e-07
-9.48103e-08
-9.38327e-07
-1.15009e-07
-9.17892e-07
-1.34655e-07
-8.94528e-07
-1.53568e-07
-8.68365e-07
-1.71569e-07
-8.39555e-07
-1.88476e-07
-8.08278e-07
-2.04115e-07
-7.74738e-07
-2.18314e-07
-7.39162e-07
-2.30915e-07
-7.01798e-07
-2.41767e-07
-6.62916e-07
-2.50736e-07
-6.22803e-07
-2.57705e-07
-5.81762e-07
-2.62578e-07
-5.40107e-07
-2.65279e-07
-4.98161e-07
-2.65759e-07
-4.56255e-07
-2.63994e-07
-4.14717e-07
-2.59991e-07
-3.73876e-07
-2.53784e-07
-3.34052e-07
-2.4544e-07
-2.95552e-07
-2.35057e-07
-2.58669e-07
-2.22767e-07
-2.23672e-07
-2.08732e-07
-1.90808e-07
-1.9315e-07
-1.60289e-07
-1.76248e-07
-1.32298e-07
-1.58289e-07
-1.06976e-07
-1.39566e-07
-8.44242e-08
-1.20405e-07
-6.46999e-08
-1.01163e-07
-4.78133e-08
-8.22327e-08
-3.37269e-08
-6.40381e-08
-2.23548e-08
-4.70397e-08
-1.35633e-08
-3.17348e-08
-7.17239e-09
-1.86613e-08
-2.95934e-09
-8.39812e-09
-6.64458e-10
-1.56776e-09
1.12784e-09
-2.2753e-09
8.76505e-09
-8.78731e-09
2.89474e-08
-1.92511e-08
5.07226e-08
-3.33998e-08
7.32633e-08
-5.09769e-08
9.59211e-08
-7.17321e-08
1.18169e-07
-9.54188e-08
1.3959e-07
-1.21792e-07
1.59865e-07
-1.5061e-07
1.78757e-07
-1.8163e-07
1.96102e-07
-2.14613e-07
2.11791e-07
-2.49323e-07
2.2576e-07
-2.85525e-07
2.37983e-07
-3.22991e-07
2.4846e-07
-3.61494e-07
2.57209e-07
-4.00813e-07
2.64261e-07
-4.40732e-07
2.69655e-07
-4.81037e-07
2.73434e-07
-5.21522e-07
2.7564e-07
-5.61981e-07
2.76314e-07
-6.02212e-07
2.75491e-07
-6.42017e-07
2.73203e-07
-6.81201e-07
2.69479e-07
-7.19571e-07
2.64341e-07
-7.56934e-07
2.57808e-07
-7.93102e-07
2.49898e-07
-8.27888e-07
2.40625e-07
-8.61107e-07
2.30007e-07
-8.92578e-07
2.18059e-07
-9.22123e-07
2.04804e-07
-9.49568e-07
1.90268e-07
-9.74743e-07
1.74483e-07
-9.97488e-07
1.57491e-07
-1.01765e-06
1.39344e-07
-1.03507e-06
1.20103e-07
-1.04963e-06
9.9841e-08
-1.06119e-06
7.86455e-08
-1.06965e-06
5.66161e-08
-1.07492e-06
3.38664e-08
-1.0769e-06
1.05235e-08
-1.07554e-06
-1.32717e-08
-1.07081e-06
-3.73653e-08
-1.06267e-06
-6.15912e-08
-1.05113e-06
-8.5772e-08
-1.03622e-06
-1.0972e-07
-1.01799e-06
-1.33241e-07
-9.96512e-07
-1.56131e-07
-9.71894e-07
-1.78186e-07
-9.44264e-07
-1.99198e-07
-9.1378e-07
-2.1896e-07
-8.80625e-07
-2.3727e-07
-8.45008e-07
-2.53931e-07
-8.07165e-07
-2.68758e-07
-7.67353e-07
-2.81578e-07
-7.25854e-07
-2.92235e-07
-6.82967e-07
-3.00592e-07
-6.39009e-07
-3.06535e-07
-5.94313e-07
-3.09975e-07
-5.49219e-07
-3.10852e-07
-5.04077e-07
-3.09136e-07
-4.59237e-07
-3.0483e-07
-4.15051e-07
-2.9797e-07
-3.7186e-07
-2.88631e-07
-3.29996e-07
-2.7692e-07
-2.89776e-07
-2.62986e-07
-2.51495e-07
-2.47013e-07
-2.15421e-07
-2.29224e-07
-1.81794e-07
-2.09876e-07
-1.50816e-07
-1.89267e-07
-1.22654e-07
-1.67728e-07
-9.7431e-08
-1.45628e-07
-7.52245e-08
-1.2337e-07
-5.60661e-08
-1.01391e-07
-3.99386e-08
-8.01656e-08
-2.67764e-08
-6.02018e-08
-1.64663e-08
-4.20449e-08
-8.84982e-09
-2.62778e-08
-3.72722e-09
-1.35207e-08
-8.63921e-10
-4.43105e-09
2.63917e-10
-2.5521e-09
1.13172e-08
-9.8199e-09
3.62152e-08
-2.14474e-08
6.23501e-08
-3.71026e-08
8.89184e-08
-5.64706e-08
1.15289e-07
-7.925e-08
1.40949e-07
-1.0515e-07
1.6549e-07
-1.33889e-07
1.88604e-07
-1.65193e-07
2.10061e-07
-1.98793e-07
2.29702e-07
-2.34428e-07
2.47426e-07
-2.71843e-07
2.63175e-07
-3.10788e-07
2.76929e-07
-3.51022e-07
2.88694e-07
-3.92306e-07
2.98493e-07
-4.3441e-07
3.06365e-07
-4.77108e-07
3.12352e-07
-5.20178e-07
3.16504e-07
-5.63404e-07
3.18866e-07
-6.06573e-07
3.19483e-07
-6.49478e-07
3.18395e-07
-6.91911e-07
3.15637e-07
-7.3367e-07
3.11238e-07
-7.74553e-07
3.05224e-07
-8.14363e-07
2.97618e-07
-8.52901e-07
2.88436e-07
-8.89974e-07
2.77698e-07
-9.2539e-07
2.65422e-07
-9.58958e-07
2.51628e-07
-9.90494e-07
2.3634e-07
-1.01982e-06
2.19589e-07
-1.04675e-06
2.01414e-07
-1.07112e-06
1.81862e-07
-1.09276e-06
1.60991e-07
-1.11153e-06
1.38873e-07
-1.12728e-06
1.15591e-07
-1.13988e-06
9.12442e-08
-1.14921e-06
6.59455e-08
-1.15517e-06
3.98235e-08
-1.15767e-06
1.30225e-08
-1.15664e-06
-1.42985e-08
-1.15204e-06
-4.19654e-08
-1.14384e-06
-6.97904e-08
-1.13204e-06
-9.7573e-08
-1.11666e-06
-1.25101e-07
-1.09775e-06
-1.52155e-07
-1.07537e-06
-1.78504e-07
-1.04964e-06
-2.03916e-07
-1.02069e-06
-2.28155e-07
-9.88661e-07
-2.50987e-07
-9.53751e-07
-2.7218e-07
-9.16171e-07
-2.91511e-07
-8.76162e-07
-3.08767e-07
-8.3399e-07
-3.2375e-07
-7.89946e-07
-3.36279e-07
-7.44342e-07
-3.46196e-07
-6.97509e-07
-3.53368e-07
-6.49794e-07
-3.5769e-07
-6.01558e-07
-3.59089e-07
-5.53168e-07
-3.57526e-07
-5.04999e-07
-3.52999e-07
-4.57422e-07
-3.45547e-07
-4.10806e-07
-3.35247e-07
-3.65507e-07
-3.22219e-07
-3.21868e-07
-3.06625e-07
-2.80211e-07
-2.88671e-07
-2.4083e-07
-2.68604e-07
-2.03991e-07
-2.46715e-07
-1.69924e-07
-2.23334e-07
-1.3882e-07
-1.98832e-07
-1.10827e-07
-1.73621e-07
-8.60468e-08
-1.4815e-07
-6.45345e-08
-1.22903e-07
-4.62954e-08
-9.84047e-08
-3.12858e-08
-7.52114e-08
-1.94144e-08
-5.39163e-08
-1.05441e-08
-3.5148e-08
-4.49733e-09
-1.95675e-08
-1.06178e-09
-7.8666e-09
-7.97871e-10
-2.82007e-09
1.41373e-08
-1.08222e-08
4.42172e-08
-2.35835e-08
7.51114e-08
-4.07099e-08
1.06045e-07
-6.18305e-08
1.3641e-07
-8.6594e-08
1.65712e-07
-1.14666e-07
1.93563e-07
-1.45728e-07
2.19666e-07
-1.79474e-07
2.43806e-07
-2.15608e-07
2.65836e-07
-2.53847e-07
2.85665e-07
-2.93917e-07
3.03245e-07
-3.35554e-07
3.18566e-07
-3.785e-07
3.3164e-07
-4.22509e-07
3.42501e-07
-4.67338e-07
3.51193e-07
-5.12753e-07
3.57767e-07
-5.58525e-07
3.62276e-07
-6.0443e-07
3.64772e-07
-6.5025e-07
3.65303e-07
-6.95769e-07
3.63914e-07
-7.40774e-07
3.60642e-07
-7.85056e-07
3.5552e-07
-8.28407e-07
3.48576e-07
-8.70623e-07
3.39833e-07
-9.11499e-07
3.29313e-07
-9.50835e-07
3.17034e-07
-9.88432e-07
3.03019e-07
-1.02409e-06
2.87289e-07
-1.05763e-06
2.69873e-07
-1.08884e-06
2.50805e-07
-1.11756e-06
2.3013e-07
-1.1436e-06
2.079e-07
-1.16679e-06
1.84183e-07
-1.18697e-06
1.59056e-07
-1.204e-06
1.32615e-07
-1.21772e-06
1.0497e-07
-1.22802e-06
7.62474e-08
-1.23479e-06
4.65911e-08
-1.23793e-06
1.6162e-08
-1.23737e-06
-1.48622e-08
-1.23304e-06
-4.62873e-08
-1.22493e-06
-7.79035e-08
-1.21302e-06
-1.09487e-07
-1.19732e-06
-1.40801e-07
-1.17788e-06
-1.71597e-07
-1.15476e-06
-2.01621e-07
-1.12806e-06
-2.3061e-07
-1.09792e-06
-2.58299e-07
-1.06449e-06
-2.84423e-07
-1.02794e-06
-3.08722e-07
-9.8851e-07
-3.30944e-07
-9.46432e-07
-3.50845e-07
-9.01981e-07
-3.682e-07
-8.55457e-07
-3.82803e-07
-8.07182e-07
-3.94471e-07
-7.57501e-07
-4.03049e-07
-7.06777e-07
-4.08414e-07
-6.55389e-07
-4.10477e-07
-6.03725e-07
-4.0919e-07
-5.5218e-07
-4.04544e-07
-5.01152e-07
-3.96575e-07
-4.51035e-07
-3.85365e-07
-4.02212e-07
-3.71042e-07
-3.55054e-07
-3.53783e-07
-3.09912e-07
-3.33813e-07
-2.6711e-07
-3.11406e-07
-2.26944e-07
-2.86882e-07
-1.89671e-07
-2.60606e-07
-1.55511e-07
-2.32992e-07
-1.24641e-07
-2.04492e-07
-9.71884e-08
-1.75602e-07
-7.32342e-08
-1.46858e-07
-5.28084e-08
-1.18831e-07
-3.58909e-08
-9.21288e-08
-2.24128e-08
-6.73944e-08
-1.22589e-08
-4.5302e-08
-5.27185e-09
-2.65545e-08
-1.25889e-09
-1.18796e-08
-2.05676e-09
-3.07921e-09
1.72165e-08
-1.17931e-08
5.29311e-08
-2.56558e-08
8.89742e-08
-4.42143e-08
1.24603e-07
-6.70436e-08
1.59239e-07
-9.37443e-08
1.92413e-07
-1.2394e-07
2.23758e-07
-1.57275e-07
2.53e-07
-1.9341e-07
2.79942e-07
-2.32026e-07
3.04452e-07
-2.72815e-07
3.26454e-07
-3.15485e-07
3.45915e-07
-3.59755e-07
3.62836e-07
-4.05357e-07
3.77242e-07
-4.5203e-07
3.89175e-07
-4.99524e-07
3.98688e-07
-5.47597e-07
4.0584e-07
-5.96012e-07
4.10691e-07
-6.4454e-07
4.13299e-07
-6.92954e-07
4.13718e-07
-7.41034e-07
4.11994e-07
-7.88562e-07
4.0817e-07
-8.35324e-07
4.02281e-07
-8.81105e-07
3.94357e-07
-9.25696e-07
3.84424e-07
-9.68887e-07
3.72504e-07
-1.01047e-06
3.58619e-07
-1.05025e-06
3.42793e-07
-1.08801e-06
3.2505e-07
-1.12356e-06
3.05422e-07
-1.1567e-06
2.83947e-07
-1.18724e-06
2.60675e-07
-1.21501e-06
2.35664e-07
-1.23981e-06
2.08987e-07
-1.26149e-06
1.80734e-07
-1.27988e-06
1.51007e-07
-1.29484e-06
1.19929e-07
-1.30623e-06
8.76395e-08
-1.31394e-06
5.42973e-08
-1.31786e-06
2.00797e-08
-1.3179e-06
-1.4817e-08
-1.31401e-06
-5.01784e-08
-1.30614e-06
-8.57729e-08
-1.29427e-06
-1.21353e-07
-1.27842e-06
-1.56656e-07
-1.25861e-06
-1.91408e-07
-1.2349e-06
-2.25325e-07
-1.2074e-06
-2.58115e-07
-1.17622e-06
-2.89483e-07
-1.14151e-06
-3.19133e-07
-1.10346e-06