/*--------------------------------*- C++ -*----------------------------------*\
  =========                 |
  \\      /  F ield         | OpenFOAM: The Open Source CFD Toolbox
   \\    /   O peration     | Website:  https://openfoam.org
    \\  /    A nd           | Version:  7
     \\/     M anipulation  |
\*---------------------------------------------------------------------------*/
FoamFile
{
    version     2.0;
    format      ascii;
    class       surfaceScalarField;
    location    "0.75";
    object      phi;
}
// * * * * * * * * * * * * * * * * * * * * * * * * * * * * * * * * * * * * * //

dimensions      [0 3 -1 0 0 0 0];

internalField   nonuniform List<scalar> 
12640
(
2.58829e-10
-2.58969e-10
4.99712e-10
-2.40912e-10
4.70919e-10
2.87971e-11
1.05533e-10
3.65387e-10
-5.9211e-10
6.97657e-10
-1.58586e-09
9.9373e-10
-2.8274e-09
1.24155e-09
-4.26786e-09
1.44044e-09
-5.86278e-09
1.59492e-09
-7.57409e-09
1.71132e-09
-9.37045e-09
1.79635e-09
-1.12269e-08
1.85641e-09
-1.3124e-08
1.89715e-09
-1.50473e-08
1.92325e-09
-1.69857e-08
1.93839e-09
-1.89309e-08
1.94525e-09
-2.08766e-08
1.94569e-09
-2.28174e-08
1.94081e-09
-2.47485e-08
1.93107e-09
-2.66649e-08
1.91638e-09
-2.85612e-08
1.89628e-09
-3.04312e-08
1.86999e-09
-3.22677e-08
1.8365e-09
-3.40624e-08
1.79468e-09
-3.58057e-08
1.74334e-09
-3.7487e-08
1.68129e-09
-3.90944e-08
1.60736e-09
-4.06148e-08
1.52044e-09
-4.20343e-08
1.41956e-09
-4.33382e-08
1.30387e-09
-4.45109e-08
1.17268e-09
-4.55364e-08
1.02553e-09
-4.63986e-08
8.62183e-10
-4.70813e-08
6.82671e-10
-4.75686e-08
4.87329e-10
-4.78454e-08
2.76835e-10
-4.78977e-08
5.2242e-11
-4.77126e-08
-1.85104e-10
-4.72793e-08
-4.33255e-10
-4.65894e-08
-6.89929e-10
-4.5637e-08
-9.52395e-10
-4.44195e-08
-1.21748e-09
-4.29379e-08
-1.48162e-09
-4.1197e-08
-1.7409e-09
-3.92059e-08
-1.9911e-09
-3.69781e-08
-2.22785e-09
-3.45314e-08
-2.44665e-09
-3.18883e-08
-2.64307e-09
-2.90755e-08
-2.81283e-09
-2.61235e-08
-2.95198e-09
-2.30665e-08
-3.05701e-09
-1.99415e-08
-3.12501e-09
-1.67877e-08
-3.15377e-09
-1.36458e-08
-3.14191e-09
-1.05569e-08
-3.08892e-09
-7.56164e-09
-2.99523e-09
-4.69946e-09
-2.86218e-09
-2.00743e-09
-2.69204e-09
4.8047e-10
-2.4879e-09
2.73417e-09
-2.25369e-09
4.72783e-09
-1.99366e-09
6.44068e-09
-1.71285e-09
7.85718e-09
-1.41651e-09
8.96725e-09
-1.11006e-09
9.76628e-09
-7.9903e-10
1.02552e-08
-4.8888e-10
1.04402e-08
-1.85008e-10
1.03329e-08
1.07302e-10
9.95015e-09
3.82726e-10
9.31432e-09
6.35833e-10
8.45358e-09
8.60749e-10
7.40278e-09
1.0508e-09
6.2048e-09
1.19798e-09
4.91262e-09
1.29219e-09
3.59228e-09
1.32035e-09
2.32664e-09
1.26565e-09
1.21872e-09
1.10791e-09
3.93368e-10
8.25346e-10
-1.55701e-11
4.08941e-10
-1.55709e-11
2.42253e-10
-5.01247e-10
1.96816e-10
-1.95442e-10
-4.80687e-10
7.06253e-10
-1.92513e-09
1.80983e-09
-4.14504e-09
2.91758e-09
-7.0797e-09
3.92845e-09
-1.06362e-08
4.79801e-09
-1.4711e-08
5.51531e-09
-1.92035e-08
6.08739e-09
-2.40222e-08
6.53005e-09
-2.90884e-08
6.8625e-09
-3.43362e-08
7.1042e-09
-3.97122e-08
7.27313e-09
-4.51736e-08
7.38473e-09
-5.06867e-08
7.45146e-09
-5.62243e-08
7.48281e-09
-6.1764e-08
7.48546e-09
-6.72867e-08
7.46353e-09
-7.27746e-08
7.41895e-09
-7.82101e-08
7.35185e-09
-8.35748e-08
7.26092e-09
-8.88485e-08
7.14375e-09
-9.40092e-08
6.99714e-09
-9.90319e-08
6.81744e-09
-1.03889e-07
6.60074e-09
-1.08551e-07
6.3431e-09
-1.12984e-07
6.04067e-09
-1.17154e-07
5.68994e-09
-1.21022e-07
5.28776e-09
-1.2455e-07
4.83154e-09
-1.27696e-07
4.3193e-09
-1.30421e-07
3.74984e-09
-1.32681e-07
3.12281e-09
-1.34437e-07
2.43882e-09
-1.3565e-07
1.69957e-09
-1.36281e-07
9.07932e-10
-1.36297e-07
6.82975e-11
-1.35668e-07
-8.14382e-10
-1.34368e-07
-1.73255e-09
-1.3238e-07
-2.6779e-09
-1.29692e-07
-3.64051e-09
-1.26301e-07
-4.60901e-09
-1.22212e-07
-5.57073e-09
-1.17441e-07
-6.51187e-09
-1.12014e-07
-7.41777e-09
-1.05969e-07
-8.27312e-09
-9.93528e-08
-9.06245e-09
-9.22255e-08
-9.77045e-09
-8.46559e-08
-1.03824e-08
-7.6723e-08
-1.08848e-08
-6.85145e-08
-1.12656e-08
-6.01247e-08
-1.15148e-08
-5.16537e-08
-1.16248e-08
-4.32049e-08
-1.15907e-08
-3.4883e-08
-1.14108e-08
-2.6792e-08
-1.10863e-08
-1.90326e-08
-1.06216e-08
-1.17003e-08
-1.00243e-08
-4.88331e-09
-9.30489e-09
1.33936e-09
-8.47637e-09
6.89969e-09
-7.55398e-09
1.17415e-08
-6.55466e-09
1.58218e-08
-5.49684e-09
1.91115e-08
-4.39971e-09
2.15954e-08
-3.28297e-09
2.3273e-08
-2.16645e-09
2.4158e-08
-1.06999e-09
2.42788e-08
-1.34254e-11
2.36782e-08
9.83295e-10
2.24146e-08
1.89945e-09
2.05623e-08
2.71304e-09
1.82135e-08
3.39964e-09
1.54803e-08
3.93117e-09
1.2498e-08
4.27449e-09
9.42828e-09
4.39011e-09
6.46144e-09
4.23248e-09
3.81522e-09
3.75414e-09
1.72368e-09
2.9169e-09
4.05149e-10
1.72746e-09
3.8959e-10
-2.60815e-11
-4.75162e-10
-7.23209e-10
5.01704e-10
-2.40531e-09
2.38835e-09
-5.19162e-09
4.59611e-09
-9.08003e-09
6.80599e-09
-1.3992e-08
8.84045e-09
-1.98073e-08
1.06133e-08
-2.6389e-08
1.20969e-08
-3.35996e-08
1.3298e-08
-4.13113e-08
1.42417e-08
-4.94104e-08
1.49615e-08
-5.77994e-08
1.54932e-08
-6.63969e-08
1.58706e-08
-7.51356e-08
1.61235e-08
-8.39604e-08
1.62762e-08
-9.28255e-08
1.63479e-08
-1.01692e-07
1.63521e-08
-1.10526e-07
1.62973e-08
-1.19295e-07
1.6188e-08
-1.27968e-07
1.60247e-08
-1.36512e-07
1.58053e-08
-1.44894e-07
1.55251e-08
-1.53075e-07
1.51783e-08
-1.61015e-07
1.47578e-08
-1.68671e-07
1.42562e-08
-1.75993e-07
1.36657e-08
-1.82932e-07
1.29791e-08
-1.89431e-07
1.21898e-08
-1.95436e-07
1.12919e-08
-2.00885e-07
1.02808e-08
-2.05719e-07
9.15307e-09
-2.09876e-07
7.90699e-09
-2.13296e-07
6.54258e-09
-2.15919e-07
5.06186e-09
-2.17688e-07
3.46903e-09
-2.18551e-07
1.77069e-09
-2.18459e-07
-2.33615e-11
-2.17371e-07
-1.90253e-09
-2.15253e-07
-3.85058e-09
-2.12081e-07
-5.85023e-09
-2.0784e-07
-7.88075e-09
-2.02531e-07
-9.9187e-09
-1.96163e-07
-1.19381e-08
-1.88765e-07
-1.39107e-08
-1.80376e-07
-1.58068e-08
-1.71053e-07
-1.75953e-08
-1.60871e-07
-1.9245e-08
-1.49916e-07
-2.0725e-08
-1.38293e-07
-2.20056e-08
-1.26118e-07
-2.30596e-08
-1.13521e-07
-2.38626e-08
-1.00642e-07
-2.43945e-08
-8.76267e-08
-2.46397e-08
-7.4629e-08
-2.45884e-08
-6.18035e-08
-2.42363e-08
-4.93039e-08
-2.35858e-08
-3.72802e-08
-2.26453e-08
-2.58748e-08
-2.14297e-08
-1.52203e-08
-1.99594e-08
-5.43614e-09
-1.82605e-08
3.37349e-09
-1.63636e-08
1.11219e-08
-1.4303e-08
1.77412e-08
-1.21162e-08
2.31839e-08
-9.84241e-09
2.74235e-08
-7.52257e-09
3.04551e-08
-5.1981e-09
3.22959e-08
-2.91079e-09
3.29852e-08
-7.0275e-10
3.25852e-08
1.38333e-09
3.11812e-08
3.30346e-09
2.88831e-08
5.01115e-09
2.58268e-08
6.45593e-09
2.21764e-08
7.58159e-09
1.81264e-08
8.32448e-09
1.39037e-08
8.61279e-09
9.76757e-09
8.36863e-09
6.00551e-09
7.51622e-09
2.92225e-09
6.00014e-09
8.21113e-10
3.82862e-09
1.21071e-09
-3.85314e-10
-8.98924e-11
-1.92434e-09
2.04075e-09
-4.81536e-09
5.27937e-09
-9.11807e-09
8.89886e-09
-1.47932e-08
1.24811e-08
-2.17341e-08
1.57813e-08
-2.97947e-08
1.8674e-08
-3.88126e-08
2.11149e-08
-4.86243e-08
2.31097e-08
-5.90756e-08
2.4693e-08
-7.00276e-08
2.59134e-08
-8.13585e-08
2.68242e-08
-9.29648e-08
2.74769e-08
-1.04759e-07
2.79173e-08
-1.16666e-07
2.81838e-08
-1.28625e-07
2.83065e-08
-1.4058e-07
2.83071e-08
-1.52482e-07
2.81997e-08
-1.64286e-07
2.79914e-08
-1.75945e-07
2.76839e-08
-1.87413e-07
2.72738e-08
-1.98643e-07
2.67546e-08
-2.09581e-07
2.6117e-08
-2.20174e-07
2.53504e-08
-2.30361e-07
2.44431e-08
-2.40079e-07
2.33837e-08
-2.49261e-07
2.21609e-08
-2.57836e-07
2.07649e-08
-2.65731e-07
1.9187e-08
-2.72871e-07
1.74206e-08
-2.79179e-07
1.54612e-08
-2.84579e-07
1.33069e-08
-2.88995e-07
1.09588e-08
-2.92354e-07
8.42115e-09
-2.94587e-07
5.70184e-09
-2.95629e-07
2.8126e-09
-2.95422e-07
-2.30462e-10
-2.93917e-07
-3.40768e-09
-2.91074e-07
-6.69349e-09
-2.86865e-07
-1.00586e-08
-2.81277e-07
-1.34688e-08
-2.7431e-07
-1.68858e-08
-2.65981e-07
-2.02669e-08
-2.56325e-07
-2.35664e-08
-2.45397e-07
-2.67358e-08
-2.33267e-07
-2.97247e-08
-2.2003e-07
-3.24825e-08
-2.05796e-07
-3.49591e-08
-1.90695e-07
-3.71065e-08
-1.74874e-07
-3.88803e-08
-1.58496e-07
-4.02409e-08
-1.41735e-07
-4.11555e-08
-1.24776e-07
-4.15983e-08
-1.07812e-07
-4.15525e-08
-9.10372e-08
-4.1011e-08
-7.46467e-08
-3.99763e-08
-5.88306e-08
-3.84614e-08
-4.3771e-08
-3.64893e-08
-2.96378e-08
-3.40926e-08
-1.65856e-08
-3.13127e-08
-4.75036e-09
-2.81989e-08
5.75339e-09
-2.48068e-08
1.48346e-08
-2.11974e-08
2.24276e-08
-1.74354e-08
2.84933e-08
-1.35883e-08
3.30203e-08
-9.7251e-09
3.60254e-08
-5.91595e-09
3.75544e-08
-2.23168e-09
3.7682e-08
1.25571e-09
3.65132e-08
4.47226e-09
3.41838e-08
7.34056e-09
3.08617e-08
9.77799e-09
2.67486e-08
1.16947e-08
2.20809e-08
1.29921e-08
1.7131e-08
1.35627e-08
1.22061e-08
1.32936e-08
7.64573e-09
1.20766e-08
3.81753e-09
9.82834e-09
1.11641e-09
6.52975e-09
2.32712e-09
-7.74089e-10
6.8418e-10
-3.23945e-09
4.50609e-09
-7.44863e-09
9.48857e-09
-1.33717e-08
1.48219e-08
-2.09104e-08
2.00198e-08
-2.99178e-08
2.47887e-08
-4.02183e-08
2.89745e-08
-5.16248e-08
3.25214e-08
-6.39522e-08
3.54371e-08
-7.70259e-08
3.77667e-08
-9.06875e-08
3.95751e-08
-1.04797e-07
4.09339e-08
-1.19233e-07
4.19131e-08
-1.33892e-07
4.25758e-08
-1.48683e-07
4.29751e-08
-1.6353e-07
4.31529e-08
-1.78362e-07
4.31398e-08
-1.93118e-07
4.29556e-08
-2.07738e-07
4.26109e-08
-2.22162e-07
4.21082e-08
-2.36332e-07
4.14434e-08
-2.50185e-07
4.06078e-08
-2.63657e-07
3.95888e-08
-2.76678e-07
3.83721e-08
-2.89177e-07
3.69419e-08
-3.01076e-07
3.52827e-08
-3.12295e-07
3.33797e-08
-3.2275e-07
3.12196e-08
-3.32354e-07
2.87915e-08
-3.41021e-07
2.60869e-08
-3.4866e-07
2.31008e-08
-3.55185e-07
1.98315e-08
-3.60508e-07
1.6282e-08
-3.64546e-07
1.24593e-08
-3.6722e-07
8.37597e-09
-3.68458e-07
4.04976e-09
-3.68193e-07
-4.95469e-10
-3.6637e-07
-5.23018e-09
-3.62946e-07
-1.01175e-08
-3.5789e-07
-1.51147e-08
-3.51186e-07
-2.01723e-08
-3.42838e-07
-2.52346e-08
-3.32864e-07
-3.02406e-08
-3.21306e-07
-3.5124e-08
-3.08227e-07
-3.98151e-08
-2.9371e-07
-4.42416e-08
-2.77862e-07
-4.83304e-08
-2.60812e-07
-5.20093e-08
-2.42709e-07
-5.5209e-08
-2.23725e-07
-5.7865e-08
-2.04046e-07
-5.992e-08
-1.83876e-07
-6.13254e-08
-1.63431e-07
-6.20434e-08
-1.42935e-07
-6.20486e-08
-1.22617e-07
-6.13288e-08
-1.02707e-07
-5.98865e-08
-8.34294e-08
-5.77386e-08
-6.50018e-08
-5.49168e-08
-4.76277e-08
-5.14667e-08
-3.14936e-08
-4.74469e-08
-1.67649e-08
-4.29275e-08
-3.58301e-09
-3.79887e-08
7.93831e-09
-3.27187e-08
1.77147e-08
-2.72117e-08
2.5693e-08
-2.15666e-08
3.18532e-08
-1.58852e-08
3.62084e-08
-1.02712e-08
3.88064e-08
-4.82971e-09
3.97299e-08
3.32277e-10
3.90968e-08
5.10536e-09
3.70613e-08
9.37601e-09
3.38146e-08
1.30247e-08
2.95855e-08
1.59239e-08
2.46413e-08
1.79364e-08
1.92883e-08
1.89157e-08
1.38716e-08
1.87102e-08
8.77585e-09
1.71723e-08
4.42761e-09
1.41766e-08
1.30775e-09
9.64962e-09
3.63487e-09
-1.1639e-09
1.84807e-09
-4.58143e-09
7.92363e-09
-1.0154e-08
1.50611e-08
-1.77459e-08
2.24138e-08
-2.71856e-08
2.94595e-08
-3.82756e-08
3.58786e-08
-5.08044e-08
4.15033e-08
-6.45587e-08
4.62757e-08
-7.93322e-08
5.02105e-08
-9.49326e-08
5.33672e-08
-1.11186e-07
5.58284e-08
-1.27937e-07
5.76854e-08
-1.45052e-07
5.90276e-08
-1.62412e-07
5.99356e-08
-1.79914e-07
6.04776e-08
-1.97469e-07
6.07078e-08
-2.14995e-07
6.06656e-08
-2.32416e-07
6.03772e-08
-2.49662e-07
5.98564e-08
-2.66661e-07
5.91068e-08
-2.83341e-07
5.81237e-08
-2.99629e-07
5.68961e-08
-3.15449e-07
5.54086e-08
-3.3072e-07
5.36429e-08
-3.45358e-07
5.15797e-08
-3.59274e-07
4.91996e-08
-3.72379e-07
4.64845e-08
-3.84578e-07
4.34183e-08
-3.95774e-07
3.99879e-08
-4.05871e-07
3.61836e-08
-4.1477e-07
3.19999e-08
-4.22375e-07
2.74363e-08
-4.28591e-07
2.24976e-08
-4.33326e-07
1.71943e-08
-4.36494e-07
1.1544e-08
-4.38015e-07
5.57088e-09
-4.37817e-07
-6.92696e-10
-4.35841e-07
-7.20695e-09
-4.32035e-07
-1.39228e-08
-4.26367e-07
-2.07829e-08
-4.18818e-07
-2.77215e-08
-4.09388e-07
-3.46646e-08
-3.98098e-07
-4.15304e-08
-3.84991e-07
-4.8231e-08
-3.70133e-07
-5.46731e-08
-3.53615e-07
-6.076e-08
-3.35552e-07
-6.63937e-08
-3.16084e-07
-7.14772e-08
-2.95376e-07
-7.5917e-08
-2.73615e-07
-7.96258e-08
-2.5101e-07
-8.25252e-08
-2.27787e-07
-8.45485e-08
-2.04187e-07
-8.5643e-08
-1.80463e-07
-8.57721e-08
-1.56875e-07
-8.49172e-08
-1.33683e-07
-8.30787e-08
-1.11145e-07
-8.02769e-08
-8.95097e-08
-7.65516e-08
-6.90145e-08
-7.19619e-08
-4.98768e-08
-6.65846e-08
-3.22917e-08
-6.05126e-08
-1.64274e-08
-5.3853e-08
-2.42166e-09
-4.67244e-08
9.62098e-09
-3.92544e-08
1.96316e-08
-3.15772e-08
2.75785e-08
-2.38321e-08
3.34686e-08
-1.61613e-08
3.73481e-08
-8.70924e-09
3.93032e-08
-1.62278e-09
3.94601e-08
4.94839e-09
3.7986e-08
1.08501e-08
3.50889e-08
1.59218e-08
3.10184e-08
1.99944e-08
2.60661e-08
2.28887e-08
2.05661e-08
2.44157e-08
1.48969e-08
2.43795e-08
9.48384e-09
2.25853e-08
4.80775e-09
1.88527e-08
1.42218e-09
1.30352e-08
5.05704e-09
-1.54239e-09
3.39048e-09
-5.90667e-09
1.22879e-08
-1.28469e-08
2.20013e-08
-2.21162e-08
3.16831e-08
-3.34619e-08
4.08052e-08
-4.66281e-08
4.90449e-08
-6.13623e-08
5.62376e-08
-7.74214e-08
6.23348e-08
-9.45773e-08
6.73664e-08
-1.12621e-07
7.14107e-08
-1.31364e-07
7.45713e-08
-1.50639e-07
7.69611e-08
-1.70301e-07
7.86893e-08
-1.90221e-07
7.98551e-08
-2.10285e-07
8.05417e-08
-2.30393e-07
8.08156e-08
-2.50453e-07
8.07254e-08
-2.70379e-07
8.03033e-08
-2.90089e-07
7.95664e-08
-3.09501e-07
7.85195e-08
-3.28535e-07
7.71575e-08
-3.47106e-07
7.54673e-08
-3.65128e-07
7.34308e-08
-3.82512e-07
7.10264e-08
-3.99164e-07
6.82316e-08
-4.14988e-07
6.50236e-08
-4.29885e-07
6.13814e-08
-4.43753e-07
5.72866e-08
-4.56489e-07
5.27242e-08
-4.67989e-07
4.76838e-08
-4.78149e-07
4.21598e-08
-4.86866e-07
3.61525e-08
-4.94037e-07
2.9669e-08
-4.99566e-07
2.27231e-08
-5.03359e-07
1.53371e-08
-5.0533e-07
7.54187e-09
-5.054e-07
-6.22109e-10
-5.03502e-07
-9.10519e-09
-4.99579e-07
-1.78455e-08
-4.93591e-07
-2.67715e-08
-4.85512e-07
-3.58003e-08
-4.75338e-07
-4.48388e-08
-4.63084e-07
-5.3784e-08
-4.48791e-07
-6.25242e-08
-4.32523e-07
-7.09412e-08
-4.14371e-07
-7.89118e-08
-3.94454e-07
-8.63104e-08
-3.72919e-07
-9.30124e-08
-3.49939e-07
-9.8897e-08
-3.25714e-07
-1.03851e-07
-3.00469e-07
-1.07771e-07
-2.74449e-07
-1.10569e-07
-2.47918e-07
-1.12174e-07
-2.21155e-07
-1.12535e-07
-1.94447e-07
-1.11625e-07
-1.68086e-07
-1.0944e-07
-1.42363e-07
-1.06001e-07
-1.17559e-07
-1.01355e-07
-9.39452e-08
-9.55756e-08
-7.1772e-08
-8.87577e-08
-5.1266e-08
-8.10186e-08
-3.26247e-08
-7.24944e-08
-1.60122e-08
-6.33369e-08
-1.55599e-09
-5.37106e-08
1.06564e-08
-4.37896e-08
2.05789e-08
-3.37547e-08
2.82092e-08
-2.37915e-08
3.35885e-08
-1.40886e-08
3.68034e-08
-4.83761e-09
3.79848e-08
3.76699e-09
3.73089e-08
1.1526e-08
3.49969e-08
1.82338e-08
3.13153e-08
2.3676e-08
2.65764e-08
2.76275e-08
2.11397e-08
2.98524e-08
1.54139e-08
3.01053e-08
9.86276e-09
2.81364e-08
5.01503e-09
2.37004e-08
1.48288e-09
1.65673e-08
6.53994e-09
-1.90584e-09
5.29631e-09
-7.19504e-09
1.75771e-08
-1.54826e-08
3.02889e-08
-2.6411e-08
4.26115e-08
-3.96427e-08
5.40369e-08
-5.48594e-08
6.42615e-08
-7.17631e-08
7.31413e-08
-9.00781e-08
8.06499e-08
-1.09553e-07
8.68415e-08
-1.29962e-07
9.18194e-08
-1.51103e-07
9.57124e-08
-1.72799e-07
9.86569e-08
-1.94893e-07
1.00784e-07
-2.1725e-07
1.02211e-07
-2.39747e-07
1.03038e-07
-2.62274e-07
1.03343e-07
-2.84733e-07
1.03184e-07
-3.07028e-07
1.02598e-07
-3.29069e-07
1.01607e-07
-3.50766e-07
1.00217e-07
-3.72029e-07
9.84211e-08
-3.92768e-07
9.62059e-08
-4.12888e-07
9.35507e-08
-4.32293e-07
9.04313e-08
-4.50883e-07
8.68221e-08
-4.68557e-07
8.26978e-08
-4.85211e-07
7.80351e-08
-5.00738e-07
7.28135e-08
-5.15031e-07
6.70167e-08
-5.2798e-07
6.06334e-08
-5.39478e-07
5.36579e-08
-5.49417e-07
4.60912e-08
-5.5769e-07
3.79417e-08
-5.64193e-07
2.92263e-08
-5.68827e-07
1.99708e-08
-5.71496e-07
1.02117e-08
-5.72116e-07
-2.70606e-12
-5.70606e-07
-1.0615e-08
-5.66901e-07
-2.15504e-08
-5.60949e-07
-3.27237e-08
-5.52714e-07
-4.40357e-08
-5.42179e-07
-5.53736e-08
-5.2935e-07
-6.66127e-08
-5.14258e-07
-7.76167e-08
-4.96958e-07
-8.82404e-08
-4.77538e-07
-9.83319e-08
-4.56113e-07
-1.07736e-07
-4.32829e-07
-1.16296e-07
-4.07865e-07
-1.23861e-07
-3.81428e-07
-1.30288e-07
-3.53755e-07
-1.35444e-07
-3.25109e-07
-1.39215e-07
-2.95774e-07
-1.41508e-07
-2.66054e-07
-1.42255e-07
-2.36266e-07
-1.41413e-07
-2.06733e-07
-1.38972e-07
-1.7778e-07
-1.34954e-07
-1.49726e-07
-1.29409e-07
-1.22878e-07
-1.22424e-07
-9.75227e-08
-1.14113e-07
-7.39229e-08
-1.04618e-07
-5.23095e-08
-9.41078e-08
-3.28775e-08
-8.2769e-08
-1.57809e-08
-7.08071e-08
-1.13008e-09
-5.84404e-08
1.10113e-08
-4.58961e-08
2.06277e-08
-3.34079e-08
2.77531e-08
-2.12141e-08
3.2471e-08
-9.55553e-09
3.49147e-08
1.3233e-09
3.5267e-08
1.11737e-08
3.37602e-08
1.97407e-08
3.06758e-08
2.67604e-08
2.63455e-08
3.19578e-08
2.11527e-08
3.50453e-08
1.55356e-08
3.57224e-08
9.99353e-09
3.36785e-08
5.09777e-09
2.85962e-08
1.50778e-09
2.01573e-08
8.04773e-09
-2.25373e-09
7.55003e-09
-8.43836e-09
2.37617e-08
-1.8039e-08
3.98895e-08
-3.05905e-08
5.51631e-08
-4.56707e-08
6.9117e-08
-6.28964e-08
8.14872e-08
-8.19219e-08
9.21668e-08
-1.02437e-07
1.01165e-07
-1.24166e-07
1.0857e-07
-1.46865e-07
1.14518e-07
-1.70319e-07
1.19166e-07
-1.94341e-07
1.22679e-07
-2.18767e-07
1.2521e-07
-2.43454e-07
1.26898e-07
-2.68272e-07
1.27857e-07
-2.93107e-07
1.28178e-07
-3.17851e-07
1.27929e-07
-3.42405e-07
1.27152e-07
-3.66671e-07
1.25873e-07
-3.90554e-07
1.24099e-07
-4.13958e-07
1.21825e-07
-4.36787e-07
1.19035e-07
-4.58942e-07
1.15706e-07
-4.80323e-07
1.11812e-07
-5.00827e-07
1.07327e-07
-5.20351e-07
1.02222e-07
-5.38788e-07
9.64716e-08
-5.56029e-07
9.00546e-08
-5.71965e-07
8.2953e-08
-5.86486e-07
7.51543e-08
-5.9948e-07
6.66522e-08
-6.10836e-07
5.74473e-08
-6.20443e-07
4.75483e-08
-6.2819e-07
3.69732e-08
-6.33969e-07
2.57502e-08
-6.37677e-07
1.39191e-08
-6.39212e-07
1.53309e-09
-6.38486e-07
-1.13416e-08
-6.35415e-07
-2.46217e-08
-6.29929e-07
-3.82089e-08
-6.21977e-07
-5.1988e-08
-6.11523e-07
-6.58277e-08
-5.98555e-07
-7.95805e-08
-5.83087e-07
-9.3085e-08
-5.6516e-07
-1.06167e-07
-5.44847e-07
-1.18645e-07
-5.22255e-07
-1.30328e-07
-4.97524e-07
-1.41027e-07
-4.70832e-07
-1.50554e-07
-4.42389e-07
-1.5873e-07
-4.12443e-07
-1.6539e-07
-3.81269e-07
-1.70389e-07
-3.49174e-07
-1.73604e-07
-3.16487e-07
-1.74942e-07
-2.83554e-07
-1.74346e-07
-2.50734e-07
-1.71792e-07
-2.18391e-07
-1.67296e-07
-1.86885e-07
-1.60915e-07
-1.56565e-07
-1.52744e-07
-1.27762e-07
-1.42916e-07
-1.00779e-07
-1.31601e-07
-7.58882e-08
-1.18999e-07
-5.33202e-08
-1.05337e-07
-3.32623e-08
-9.0865e-08
-1.58525e-08
-7.58502e-08
-1.17695e-09
-6.05716e-08
1.07322e-08
-4.53171e-08
1.98977e-08
-3.03796e-08
2.63978e-08
-1.60557e-08
3.03661e-08
-2.64492e-09
3.19905e-08
9.54934e-09
3.15133e-08
2.02179e-08
2.92309e-08
2.90428e-08
2.54942e-08
3.56945e-08
2.07106e-08
3.98289e-08
1.53472e-08
4.10858e-08
9.9378e-09
3.90879e-08
5.09198e-09
3.3442e-08
1.50937e-09
2.374e-08
9.55711e-09
-2.58662e-09
1.01366e-08
-9.63406e-09
3.08092e-08
-2.05057e-08
5.07612e-08
-3.46337e-08
6.92911e-08
-5.15125e-08
8.59957e-08
-7.06943e-08
1.00669e-07
-9.17848e-08
1.13257e-07
-1.14438e-07
1.23819e-07
-1.38353e-07
1.32485e-07
-1.63267e-07
1.39432e-07
-1.88954e-07
1.44853e-07
-2.15216e-07
1.48942e-07
-2.41884e-07
1.51878e-07
-2.68807e-07
1.53821e-07
-2.95853e-07
1.54903e-07
-3.22901e-07
1.55227e-07
-3.49842e-07
1.54869e-07
-3.76569e-07
1.53879e-07
-4.02982e-07
1.52287e-07
-4.28983e-07
1.501e-07
-4.54473e-07
1.47315e-07
-4.79353e-07
1.43915e-07
-5.03523e-07
1.39876e-07
-5.26883e-07
1.35173e-07
-5.49331e-07
1.29774e-07
-5.70762e-07
1.23652e-07
-5.9107e-07
1.1678e-07
-6.1015e-07
1.09134e-07
-6.27892e-07
1.00695e-07
-6.44185e-07
9.14478e-08
-6.58918e-07
8.13845e-08
-6.71974e-07
7.05038e-08
-6.83238e-07
5.88124e-08
-6.92592e-07
4.6327e-08
-6.99917e-07
3.3075e-08
-7.05095e-07
1.9097e-08
-7.0801e-07
4.44833e-09
-7.08552e-07
-1.07997e-08
-7.06617e-07
-2.6557e-08
-7.02111e-07
-4.27145e-08
-6.94956e-07
-5.91429e-08
-6.85091e-07
-7.56925e-08
-6.72478e-07
-9.21939e-08
-6.57104e-07
-1.08459e-07
-6.38988e-07
-1.24284e-07
-6.18181e-07
-1.39451e-07
-5.94774e-07
-1.53735e-07
-5.68895e-07
-1.66906e-07
-5.40713e-07
-1.78735e-07
-5.1044e-07
-1.89003e-07
-4.78328e-07
-1.97502e-07
-4.44667e-07
-2.0405e-07
-4.09782e-07
-2.08488e-07
-3.74031e-07
-2.10694e-07
-3.37793e-07
-2.10584e-07
-3.01468e-07
-2.08117e-07
-2.65462e-07
-2.03302e-07
-2.30184e-07
-1.96193e-07
-1.96033e-07
-1.86895e-07
-1.63391e-07
-1.75558e-07
-1.32613e-07
-1.62379e-07
-1.04018e-07
-1.47594e-07
-7.78825e-08
-1.31472e-07
-5.44341e-08
-1.14313e-07
-3.38453e-08
-9.64389e-08
-1.62307e-08
-7.81862e-08
-1.64425e-09
-5.99035e-08
9.92213e-09
-4.19459e-08
1.85385e-08
-2.46721e-08
2.43367e-08
-8.44307e-09
2.75091e-08
6.37695e-09
2.83079e-08
1.9419e-08
2.70449e-08
3.03058e-08
2.4091e-08
3.86483e-08
1.98786e-08
4.40413e-08
1.49047e-08
4.60597e-08
9.73681e-09
4.42558e-08
5.0216e-09
3.81572e-08
1.49564e-09
2.7266e-08
1.10527e-08
-2.90538e-09
1.3042e-08
-1.0782e-08
3.86858e-08
-2.28789e-08
6.2858e-08
-3.85301e-08
8.49423e-08
-5.71497e-08
1.04615e-07
-7.82266e-08
1.21746e-07
-1.01318e-07
1.36349e-07
-1.26043e-07
1.48543e-07
-1.52073e-07
1.58515e-07
-1.79128e-07
1.66488e-07
-2.06971e-07
1.72695e-07
-2.35395e-07
1.77365e-07
-2.64223e-07
1.80707e-07
-2.93303e-07
1.82901e-07
-3.22497e-07
1.84097e-07
-3.51684e-07
1.84413e-07
-3.8075e-07
1.83935e-07
-4.09589e-07
1.82718e-07
-4.38099e-07
1.80797e-07
-4.66181e-07
1.78182e-07
-4.93737e-07
1.74871e-07
-5.20669e-07
1.70847e-07
-5.4688e-07
1.66087e-07
-5.72271e-07
1.60564e-07
-5.96744e-07
1.54247e-07
-6.202e-07
1.47108e-07
-6.42536e-07
1.39117e-07
-6.6365e-07
1.30249e-07
-6.83436e-07
1.20481e-07
-7.01786e-07
1.09797e-07
-7.18585e-07
9.81836e-08
-7.33716e-07
8.56347e-08
-7.47055e-07
7.21522e-08
-7.58476e-07
5.77474e-08
-7.67844e-07
4.24435e-08
-7.75025e-07
2.62774e-08
-7.79879e-07
9.30276e-09
-7.82271e-07
-8.40821e-09
-7.82066e-07
-2.67619e-08
-7.79139e-07
-4.56412e-08
-7.73377e-07
-6.49049e-08
-7.64684e-07
-8.43863e-08
-7.52983e-07
-1.03894e-07
-7.3823e-07
-1.23212e-07
-7.20408e-07
-1.42106e-07
-6.99541e-07
-1.60319e-07
-6.75692e-07
-1.77584e-07
-6.4897e-07
-1.93627e-07
-6.19534e-07
-2.08172e-07
-5.87587e-07
-2.20949e-07
-5.53385e-07
-2.31704e-07
-5.1723e-07
-2.40205e-07
-4.79467e-07
-2.4625e-07
-4.40483e-07
-2.49678e-07
-4.00695e-07
-2.50371e-07
-3.60547e-07
-2.48266e-07
-3.20497e-07
-2.43352e-07
-2.81011e-07
-2.35679e-07
-2.42548e-07
-2.25358e-07
-2.05551e-07
-2.12555e-07
-1.70437e-07
-1.97494e-07
-1.37583e-07
-1.80447e-07
-1.07324e-07
-1.61732e-07
-7.99352e-08
-1.41702e-07
-5.56339e-08
-1.2074e-07
-3.45708e-08
-9.92493e-08
-1.68276e-08
-7.76467e-08
-2.41615e-09
-5.63574e-08
8.72231e-09
-3.58105e-08
1.67158e-08
-1.64366e-08
2.17605e-08
1.33225e-09
2.4119e-08
1.70605e-08
2.41193e-08
3.03055e-08
2.21544e-08
4.06132e-08
1.86836e-08
4.75121e-08
1.42356e-08
5.05077e-08
9.41304e-09
4.90783e-08
4.90017e-09
4.26701e-08
1.47106e-09
3.06951e-08
1.25238e-08
-3.21077e-09
1.62528e-08
-1.1883e-08
4.7358e-08
-2.51573e-08
7.61324e-08
-4.22747e-08
1.0206e-07
-6.25725e-08
1.24913e-07
-8.54781e-08
1.44652e-07
-1.10502e-07
1.61372e-07
-1.37227e-07
1.75268e-07
-1.653e-07
1.86589e-07
-1.94425e-07
1.95612e-07
-2.24349e-07
2.0262e-07
-2.54861e-07
2.07877e-07
-2.85778e-07
2.11624e-07
-3.16945e-07
2.14067e-07
-3.48224e-07
2.15376e-07
-3.7949e-07
2.1568e-07
-4.10633e-07
2.15077e-07
-4.41546e-07
2.13632e-07
-4.7213e-07
2.11381e-07
-5.02288e-07
2.0834e-07
-5.31926e-07
2.04508e-07
-5.6095e-07
1.99871e-07
-5.8927e-07
1.94407e-07
-6.16794e-07
1.88088e-07
-6.43431e-07
1.80884e-07
-6.69089e-07
1.72766e-07
-6.93674e-07
1.63702e-07
-7.17091e-07
1.53665e-07
-7.39238e-07
1.42629e-07
-7.6001e-07
1.30569e-07
-7.79292e-07
1.17466e-07
-7.96964e-07
1.03306e-07
-8.12892e-07
8.80809e-08
-8.26937e-07
7.1792e-08
-8.38946e-07
5.44528e-08
-8.4876e-07
3.60913e-08
-8.56212e-07
1.67542e-08
-8.6113e-07
-3.49005e-09
-8.63343e-07
-2.4549e-08
-8.62683e-07
-4.6301e-08
-8.58992e-07
-6.85955e-08
-8.52128e-07
-9.12505e-08
-8.41969e-07
-1.14053e-07
-8.28423e-07
-1.36759e-07
-8.11431e-07
-1.59097e-07
-7.90978e-07
-1.80772e-07
-7.67092e-07
-2.0147e-07
-7.39855e-07
-2.20864e-07
-7.09405e-07
-2.38622e-07
-6.75937e-07
-2.54418e-07
-6.39703e-07
-2.67938e-07
-6.01016e-07
-2.78892e-07
-5.60242e-07
-2.87025e-07
-5.17796e-07
-2.92123e-07
-4.7414e-07
-2.94028e-07
-4.29767e-07
-2.92639e-07
-3.85196e-07
-2.87923e-07
-3.40957e-07
-2.79918e-07
-2.97582e-07
-2.68733e-07
-2.55588e-07
-2.54549e-07
-2.15467e-07
-2.37616e-07
-1.77669e-07
-2.18245e-07
-1.42595e-07
-1.96805e-07
-1.10587e-07
-1.73711e-07
-8.19147e-08
-1.49412e-07
-5.67755e-08
-1.24388e-07
-3.52875e-08
-9.91348e-08
-1.74881e-08
-7.41568e-08
-3.33472e-09
-4.99639e-08
7.29468e-09
-2.7066e-08
1.4599e-08
-5.97205e-09
1.88516e-08
1.28078e-08
2.03988e-08
2.87584e-08
1.96579e-08
4.13541e-08
1.71182e-08
5.00517e-08
1.33428e-08
5.42831e-08
8.97278e-09
5.34484e-08
4.73267e-09
4.69102e-08
1.43746e-09
3.39903e-08
1.39613e-08
-3.50333e-09
1.97561e-08
-1.29378e-08
5.67925e-08
-2.7341e-08
9.05356e-08
-4.58655e-08
1.20584e-07
-6.77755e-08
1.46823e-07
-9.244e-08
1.69316e-07
-1.19324e-07
1.88256e-07
-1.47976e-07
2.0392e-07
-1.7802e-07
2.16633e-07
-2.09141e-07
2.26734e-07
-2.41077e-07
2.34556e-07
-2.73609e-07
2.40409e-07
-3.06552e-07
2.44567e-07
-3.39747e-07
2.47263e-07
-3.73059e-07
2.48687e-07
-4.06364e-07
2.48985e-07
-4.39553e-07
2.48267e-07
-4.72526e-07
2.46604e-07
-5.05186e-07
2.44041e-07
-5.37445e-07
2.40598e-07
-5.69214e-07
2.36277e-07
-6.0041e-07
2.31067e-07
-6.30952e-07
2.24949e-07
-6.6076e-07
2.17895e-07
-6.89753e-07
2.09878e-07
-7.17853e-07
2.00865e-07
-7.44976e-07
1.90825e-07
-7.71035e-07
1.79724e-07
-7.95937e-07
1.67531e-07
-8.19579e-07
1.54211e-07
-8.41848e-07
1.39735e-07
-8.62615e-07
1.24073e-07
-8.81739e-07
1.07204e-07
-8.99059e-07
8.91126e-08
-9.14401e-07
6.97951e-08
-9.27575e-07
4.92647e-08
-9.38375e-07
2.75545e-08
-9.46588e-07
4.72328e-09
-9.51995e-07
-1.91426e-08
-9.54374e-07
-4.39215e-08
-9.53513e-07
-6.94565e-08
-9.49211e-07
-9.55522e-08
-9.4129e-07
-1.21974e-07
-9.296e-07
-1.48449e-07
-9.14029e-07
-1.74668e-07
-8.9451e-07
-2.00291e-07
-8.7103e-07
-2.2495e-07
-8.43635e-07
-2.48259e-07
-8.12434e-07
-2.69823e-07
-7.77605e-07
-2.89247e-07
-7.39396e-07
-3.06147e-07
-6.98126e-07
-3.20163e-07
-6.54179e-07
-3.30972e-07
-6.08004e-07
-3.38298e-07
-5.60107e-07
-3.41925e-07
-5.11038e-07
-3.41708e-07
-4.61384e-07
-3.37577e-07
-4.11753e-07
-3.29549e-07
-3.6276e-07
-3.17726e-07
-3.1501e-07
-3.02299e-07
-2.69083e-07
-2.83542e-07
-2.25522e-07
-2.61807e-07
-1.8481e-07
-2.37517e-07
-1.47366e-07
-2.11154e-07
-1.13532e-07
-1.83247e-07
-8.35612e-08
-1.54359e-07
-5.76195e-08
-1.25076e-07
-3.57784e-08
-9.59979e-08
-1.80169e-08
-6.77255e-08
-4.2227e-09
-4.08602e-08
5.80437e-09
-1.59991e-08
1.23492e-08
6.26295e-09
1.57779e-08
2.53297e-08
1.65355e-08
4.05966e-08
1.51449e-08
5.14423e-08
1.22082e-08
5.72199e-08
8.40894e-09
5.72476e-08
4.51731e-09
5.08019e-08
1.39469e-09
3.71129e-08
1.5356e-08
-3.7834e-09
2.35395e-08
-1.39469e-08
6.6956e-08
-2.94299e-08
1.06019e-07
-4.93013e-08
1.40456e-07
-7.27558e-08
1.70278e-07
-9.91069e-08
1.95667e-07
-1.27776e-07
2.16925e-07
-1.58282e-07
2.34425e-07
-1.90223e-07
2.48574e-07
-2.2327e-07
2.5978e-07
-2.5715e-07
2.68437e-07
-2.9164e-07
2.74899e-07
-3.26552e-07
2.79479e-07
-3.61727e-07
2.82439e-07
-3.97033e-07
2.83992e-07
-4.3235e-07
2.84303e-07
-4.67575e-07
2.83492e-07
-5.02613e-07
2.81643e-07
-5.37379e-07
2.78807e-07
-5.71791e-07
2.7501e-07
-6.05775e-07
2.70261e-07
-6.39261e-07
2.64553e-07
-6.72181e-07
2.57869e-07
-7.04471e-07
2.50185e-07
-7.36067e-07
2.41474e-07
-7.66905e-07
2.31703e-07
-7.96917e-07
2.20837e-07
-8.26027e-07
2.08834e-07
-8.54151e-07
1.95654e-07
-8.81189e-07
1.8125e-07
-9.07028e-07
1.65573e-07
-9.3153e-07
1.48576e-07
-9.5454e-07
1.30214e-07
-9.75874e-07
1.10447e-07
-9.95328e-07
8.92485e-08
-1.01267e-06
6.66082e-08
-1.02766e-06
4.25384e-08
-1.04001e-06
1.70806e-08
-1.04947e-06
-9.68937e-09
-1.05573e-06
-3.76565e-08
-1.05853e-06
-6.66599e-08
-1.05759e-06
-9.64928e-08
-1.05266e-06
-1.269e-07
-1.04353e-06
-1.57577e-07
-1.03002e-06
-1.88176e-07
-1.01201e-06
-2.18304e-07
-9.89425e-07
-2.47536e-07
-9.62266e-07
-2.75419e-07
-9.30608e-07
-3.01481e-07
-8.94605e-07
-3.2525e-07
-8.54494e-07
-3.46258e-07
-8.10594e-07
-3.64062e-07
-7.6331e-07
-3.78256e-07
-7.13121e-07
-3.88486e-07
-6.6058e-07
-3.94466e-07
-6.06301e-07
-3.95987e-07
-5.50944e-07
-3.92934e-07
-4.95206e-07
-3.85287e-07
-4.39797e-07
-3.73135e-07
-3.85427e-07
-3.56669e-07
-3.32784e-07
-3.36185e-07
-2.82514e-07
-3.12076e-07
-2.35207e-07
-2.84824e-07
-1.91378e-07
-2.54984e-07
-1.51452e-07
-2.23172e-07
-1.15761e-07
-1.9005e-07
-8.45278e-08
-1.5631e-07
-5.78699e-08
-1.22656e-07
-3.57958e-08
-8.97996e-08
-1.82082e-08
-5.84478e-08
-4.90788e-09
-2.92994e-08
4.40134e-09
-3.04627e-09
1.01076e-08
1.96234e-08
1.26871e-08
3.80171e-08
1.2701e-08
5.14283e-08
1.07958e-08
5.91252e-08
7.70376e-09
6.03396e-08
4.24708e-09
5.42586e-08
1.34115e-09
4.00189e-08
1.66971e-08
-4.05107e-09
2.75906e-08
-1.49104e-08
7.78153e-08
-3.14239e-08
1.22532e-07
-5.25807e-08
1.61613e-07
-7.75104e-08
1.95207e-07
-1.05474e-07
2.23631e-07
-1.35854e-07
2.47305e-07
-1.68137e-07
2.66708e-07
-2.01903e-07
2.82339e-07
-2.36806e-07
2.94684e-07
-2.72567e-07
3.04198e-07
-3.08956e-07
3.11288e-07
-3.45787e-07
3.16309e-07
-3.82903e-07
3.19555e-07
-4.20176e-07
3.21264e-07
-4.57492e-07
3.2162e-07
-4.94758e-07
3.20758e-07
-5.31889e-07
3.18774e-07
-5.68811e-07
3.15729e-07
-6.05458e-07
3.11658e-07
-6.41772e-07
3.06575e-07
-6.777e-07
3.00481e-07
-7.13194e-07
2.93363e-07
-7.4821e-07
2.85202e-07
-7.82705e-07
2.75969e-07
-8.16633e-07
2.65631e-07
-8.49944e-07
2.54147e-07
-8.82576e-07
2.41466e-07
-9.14454e-07
2.27532e-07
-9.45483e-07
2.12279e-07
-9.75545e-07
1.95636e-07
-1.00449e-06
1.77525e-07
-1.03215e-06
1.57872e-07
-1.05831e-06
1.36604e-07
-1.08272e-06
1.13661e-07
-1.10511e-06
8.90005e-08
-1.12518e-06
6.26056e-08
-1.14259e-06
3.4493e-08
-1.15701e-06
4.72246e-09
-1.16806e-06
-2.66044e-08
-1.17539e-06
-5.93247e-08
-1.17866e-06
-9.32232e-08
-1.17754e-06
-1.28024e-07
-1.17173e-06
-1.63391e-07
-1.16097e-06
-1.9893e-07
-1.14508e-06
-2.34196e-07
-1.12392e-06
-2.68697e-07
-1.09743e-06
-3.01903e-07
-1.06566e-06
-3.33259e-07
-1.02871e-06
-3.62199e-07
-9.86804e-07
-3.88162e-07
-9.40263e-07
-4.10603e-07
-8.89501e-07
-4.29018e-07
-8.35028e-07
-4.42959e-07
-7.77444e-07
-4.5205e-07
-7.17426e-07
-4.56005e-07
-6.55719e-07
-4.54641e-07
-5.93113e-07