/*--------------------------------*- C++ -*----------------------------------*\
  =========                 |
  \\      /  F ield         | OpenFOAM: The Open Source CFD Toolbox
   \\    /   O peration     | Website:  https://openfoam.org
    \\  /    A nd           | Version:  7
     \\/     M anipulation  |
\*---------------------------------------------------------------------------*/
FoamFile
{
    version     2.0;
    format      ascii;
    class       surfaceScalarField;
    location    "0.925";
    object      phi;
}
// * * * * * * * * * * * * * * * * * * * * * * * * * * * * * * * * * * * * * //

dimensions      [0 3 -1 0 0 0 0];

internalField   nonuniform List<scalar> 
12640
(
2.70449e-10
-2.70372e-10
6.02584e-10
-3.32113e-10
7.24168e-10
-1.21601e-10
5.34592e-10
1.89579e-10
1.87437e-11
5.15822e-10
-7.97073e-10
8.15829e-10
-1.87502e-09
1.07794e-09
-3.16994e-09
1.29493e-09
-4.63877e-09
1.46882e-09
-6.24381e-09
1.60502e-09
-7.95383e-09
1.71002e-09
-9.74423e-09
1.7904e-09
-1.15965e-08
1.85227e-09
-1.34974e-08
1.90095e-09
-1.54382e-08
1.94072e-09
-1.7413e-08
1.97484e-09
-1.94186e-08
2.00565e-09
-2.14532e-08
2.03456e-09
-2.35153e-08
2.06214e-09
-2.56036e-08
2.08828e-09
-2.77159e-08
2.11225e-09
-2.98487e-08
2.13281e-09
-3.1997e-08
2.1483e-09
-3.41537e-08
2.1567e-09
-3.63094e-08
2.15575e-09
-3.84524e-08
2.14296e-09
-4.05681e-08
2.11571e-09
-4.26394e-08
2.07133e-09
-4.46465e-08
2.00712e-09
-4.6567e-08
1.92051e-09
-4.83761e-08
1.80906e-09
-5.00467e-08
1.67064e-09
-5.15502e-08
1.50348e-09
-5.28565e-08
1.3063e-09
-5.39349e-08
1.07838e-09
-5.47546e-08
8.19705e-10
-5.52857e-08
5.31023e-10
-5.54996e-08
2.13961e-10
-5.53707e-08
-1.28941e-10
-5.48765e-08
-4.9419e-10
-5.39992e-08
-8.7728e-10
-5.27264e-08
-1.27278e-09
-5.10521e-08
-1.67437e-09
-4.89771e-08
-2.07496e-09
-4.65103e-08
-2.46684e-09
-4.36684e-08
-2.84186e-09
-4.04767e-08
-3.19166e-09
-3.69688e-08
-3.50797e-09
-3.31859e-08
-3.78281e-09
-2.91771e-08
-4.00887e-09
-2.49973e-08
-4.17973e-09
-2.07072e-08
-4.29015e-09
-1.63709e-08
-4.3363e-09
-1.20549e-08
-4.31597e-09
-7.82628e-09
-4.22863e-09
-3.75078e-09
-4.07551e-09
1.08922e-10
-3.8597e-09
3.69559e-09
-3.58667e-09
6.95658e-09
-3.26099e-09
9.84756e-09
-2.89097e-09
1.23325e-08
-2.48497e-09
1.43845e-08
-2.05194e-09
1.59857e-08
-1.6012e-09
1.71278e-08
-1.14211e-09
1.78115e-08
-6.83763e-10
1.80463e-08
-2.34808e-10
1.78497e-08
1.96664e-10
1.72466e-08
6.03113e-10
1.62692e-08
9.77409e-10
1.49566e-08
1.31254e-09
1.33555e-08
1.60111e-09
1.15209e-08
1.83465e-09
9.51822e-09
2.00267e-09
7.4268e-09
2.09143e-09
5.34425e-09
2.08256e-09
3.39207e-09
1.95217e-09
1.72023e-09
1.67186e-09
5.07214e-10
1.21301e-09
-6.41331e-11
5.71339e-10
-6.4124e-11
3.35079e-10
-6.05429e-10
5.31785e-10
-5.28866e-10
1.91907e-10
2.18299e-10
-8.61708e-10
1.24318e-09
-2.67797e-09
2.33209e-09
-5.22609e-09
3.36391e-09
-8.42868e-09
4.28053e-09
-1.21933e-08
5.05949e-09
-1.64249e-08
5.70044e-09
-2.10353e-08
6.21546e-09
-2.59477e-08
6.62242e-09
-3.10985e-08
6.94114e-09
-3.64372e-08
7.19094e-09
-4.19253e-08
7.38905e-09
-4.75345e-08
7.54991e-09
-5.32445e-08
7.68485e-09
-5.90408e-08
7.80199e-09
-6.49126e-08
7.90641e-09
-7.08509e-08
8.00042e-09
-7.68465e-08
8.08385e-09
-8.28886e-08
8.15435e-09
-8.89636e-08
8.20776e-09
-9.50536e-08
8.23836e-09
-1.01136e-07
8.23922e-09
-1.07183e-07
8.20241e-09
-1.13159e-07
8.11928e-09
-1.19024e-07
7.98072e-09
-1.2473e-07
7.77743e-09
-1.30223e-07
7.50022e-09
-1.35443e-07
7.14024e-09
-1.40324e-07
6.68943e-09
-1.44794e-07
6.14074e-09
-1.48779e-07
5.48859e-09
-1.52202e-07
4.72913e-09
-1.54984e-07
3.8607e-09
-1.57048e-07
2.88409e-09
-1.5832e-07
1.80288e-09
-1.5873e-07
6.237e-10
-1.58215e-07
-6.43597e-10
-1.56723e-07
-1.98604e-09
-1.54214e-07
-3.38705e-09
-1.50659e-07
-4.82709e-09
-1.4605e-07
-6.2837e-09
-1.40393e-07
-7.73191e-09
-1.33715e-07
-9.14478e-09
-1.26063e-07
-1.04941e-08
-1.17503e-07
-1.1751e-08
-1.08124e-07
-1.28872e-08
-9.80315e-08
-1.38754e-08
-8.73498e-08
-1.46906e-08
-7.62185e-08
-1.5311e-08
-6.47901e-08
-1.57186e-08
-5.32262e-08
-1.59002e-08
-4.1694e-08
-1.58481e-08
-3.03625e-08
-1.55602e-08
-1.93978e-08
-1.50402e-08
-8.95939e-09
-1.42981e-08
8.03269e-10
-1.33493e-08
9.75636e-09
-1.22141e-08
1.77824e-08
-1.0917e-08
2.47842e-08
-9.48676e-09
3.06864e-08
-7.9541e-09
3.54365e-08
-6.35132e-09
3.90056e-08
-4.71125e-09
4.13883e-08
-3.06639e-09
4.26017e-08
-1.4482e-09
4.26851e-08
1.13223e-10
4.1699e-08
1.58927e-09
3.97241e-08
2.95227e-09
3.68618e-08
4.17479e-09
3.32347e-08
5.22822e-09
2.89885e-08
6.0809e-09
2.42953e-08
6.69589e-09
1.93582e-08
7.02852e-09
1.44163e-08
7.02448e-09
9.74795e-09
6.62054e-09
5.66764e-09
5.75218e-09
2.50797e-09
4.3727e-09
5.69106e-10
2.51019e-09
5.04978e-10
1.30516e-10
-7.35962e-10
-2.27503e-10
-1.70858e-10
-1.45621e-09
1.44697e-09
-3.7373e-09
3.52429e-09
-7.11544e-09
5.71022e-09
-1.15466e-08
7.79509e-09
-1.69331e-08
9.667e-09
-2.31522e-08
1.12786e-08
-3.00755e-08
1.26237e-08
-3.75803e-08
1.37203e-08
-4.55573e-08
1.45994e-08
-5.39133e-08
1.52972e-08
-6.25723e-08
1.58499e-08
-7.14741e-08
1.62908e-08
-8.05723e-08
1.66481e-08
-8.98317e-08
1.69443e-08
-9.92254e-08
1.71957e-08
-1.08732e-07
1.74127e-08
-1.18332e-07
1.76002e-08
-1.28006e-07
1.77579e-08
-1.37733e-07
1.78813e-08
-1.47487e-07
1.7962e-08
-1.57237e-07
1.79885e-08
-1.66945e-07
1.79467e-08
-1.76562e-07
1.78204e-08
-1.86035e-07
1.7592e-08
-1.95298e-07
1.7243e-08
-2.04275e-07
1.67547e-08
-2.12883e-07
1.61084e-08
-2.21029e-07
1.52865e-08
-2.28613e-07
1.42731e-08
-2.35527e-07
1.30546e-08
-2.41659e-07
1.16205e-08
-2.46893e-07
9.96389e-09
-2.51115e-07
8.08264e-09
-2.54211e-07
5.97968e-09
-2.56072e-07
3.66367e-09
-2.56598e-07
1.14951e-09
-2.557e-07
-1.54152e-09
-2.53304e-07
-4.38151e-09
-2.49355e-07
-7.33589e-09
-2.43818e-07
-1.0364e-08
-2.36682e-07
-1.34196e-08
-2.27963e-07
-1.64516e-08
-2.17702e-07
-1.94053e-08
-2.05973e-07
-2.22234e-08
-1.92876e-07
-2.48481e-08
-1.78541e-07
-2.72221e-08
-1.63125e-07
-2.92909e-08
-1.46812e-07
-3.10042e-08
-1.29805e-07
-3.23181e-08
-1.12327e-07
-3.31965e-08
-9.46145e-08
-3.36125e-08
-7.69128e-08
-3.35498e-08
-5.94695e-08
-3.30035e-08
-4.25296e-08
-3.19801e-08
-2.63297e-08
-3.04981e-08
-1.10919e-08
-2.85871e-08
2.98082e-09
-2.62868e-08
1.57099e-08
-2.36461e-08
2.69444e-08
-2.07212e-08
3.65643e-08
-1.7574e-08
4.44829e-08
-1.42699e-08
5.06474e-08
-1.08758e-08
5.50402e-08
-7.45911e-09
5.76777e-08
-4.08569e-09
5.86104e-08
-8.19462e-10
5.79217e-08
2.27797e-09
5.57272e-08
5.14669e-09
5.2175e-08
7.72709e-09
4.74454e-08
9.95776e-09
4.17538e-08
1.17726e-08
3.53523e-08
1.30974e-08
2.85337e-08
1.38472e-08
2.16337e-08
1.39245e-08
1.50309e-08
1.32233e-08
9.14026e-09
1.16428e-08
4.39504e-09
9.11795e-09
1.21625e-09
5.68899e-09
1.72123e-09
-2.03425e-10
-5.32515e-10
-1.35226e-09
9.77944e-10
-3.74648e-09
3.84119e-09
-7.51422e-09
7.292e-09
-1.26668e-08
1.08628e-08
-1.91336e-08
1.42619e-08
-2.6793e-08
1.73264e-08
-3.5498e-08
1.99836e-08
-4.50952e-08
2.22209e-08
-5.54377e-08
2.40627e-08
-6.63922e-08
2.5554e-08
-7.78439e-08
2.67489e-08
-8.9697e-08
2.7703e-08
-1.01874e-07
2.84676e-08
-1.14313e-07
2.90871e-08
-1.26966e-07
2.9597e-08
-1.39793e-07
3.00232e-08
-1.52763e-07
3.03824e-08
-1.65845e-07
3.06826e-08
-1.7901e-07
3.09233e-08
-1.92226e-07
3.10971e-08
-2.05455e-07
3.11906e-08
-2.18651e-07
3.11848e-08
-2.31761e-07
3.10567e-08
-2.44721e-07
3.07799e-08
-2.57454e-07
3.03257e-08
-2.69875e-07
2.96639e-08
-2.81885e-07
2.87639e-08
-2.93372e-07
2.75958e-08
-3.04217e-07
2.61312e-08
-3.14288e-07
2.43449e-08
-3.23449e-07
2.22156e-08
-3.31556e-07
1.97271e-08
-3.38462e-07
1.68699e-08
-3.44021e-07
1.36419e-08
-3.48091e-07
1.00496e-08
-3.50537e-07
6.10892e-09
-3.51233e-07
1.84593e-09
-3.50071e-07
-2.70305e-09
-3.46962e-07
-7.49086e-09
-3.41838e-07
-1.246e-08
-3.34659e-07
-1.75432e-08
-3.25414e-07
-2.26645e-08
-3.14125e-07
-2.77404e-08
-3.00849e-07
-3.26819e-08
-2.85676e-07
-3.73962e-08
-2.68734e-07
-4.17895e-08
-2.50187e-07
-4.57694e-08
-2.3023e-07
-4.92477e-08
-2.09091e-07
-5.21433e-08
-1.87025e-07
-5.43847e-08
-1.64308e-07
-5.59131e-08
-1.41236e-07
-5.66841e-08
-1.18116e-07
-5.66701e-08
-9.52584e-08
-5.58612e-08
-7.29724e-08
-5.4266e-08
-5.15583e-08
-5.19122e-08
-3.13002e-08
-4.88451e-08
-1.246e-08
-4.5127e-08
4.72881e-09
-4.08349e-08
2.00661e-08
-3.60585e-08
3.33891e-08
-3.08971e-08
4.45759e-08
-2.54566e-08
5.35472e-08
-1.98471e-08
6.02676e-08
-1.41796e-08
6.47462e-08
-8.56421e-09
6.70355e-08
-3.10878e-09
6.72316e-08
2.08189e-09
6.54729e-08
6.90538e-09
6.194e-08
1.126e-08
5.68555e-08
1.50422e-08
5.04854e-08
1.81427e-08
4.31398e-08
2.0443e-08
3.51752e-08
2.18118e-08
2.69948e-08
2.21049e-08
1.90478e-08
2.11703e-08
1.18255e-08
1.88651e-08
5.85459e-09
1.50889e-08
1.69633e-09
9.84724e-09
3.41759e-09
-5.89181e-10
5.66495e-11
-2.66929e-09
3.05807e-09
-6.40619e-09
7.57806e-09
-1.18433e-08
1.27291e-08
-1.89335e-08
1.7953e-08
-2.75649e-08
2.28933e-08
-3.75848e-08
2.73463e-08
-4.88213e-08
3.12201e-08
-6.10992e-08
3.44988e-08
-7.42519e-08
3.72154e-08
-8.81285e-08
3.94306e-08
-1.02598e-07
4.12183e-08
-1.17549e-07
4.26546e-08
-1.32892e-07
4.38105e-08
-1.48553e-07
4.47477e-08
-1.64472e-07
4.55158e-08
-1.806e-07
4.61514e-08
-1.96895e-07
4.66778e-08
-2.13319e-07
4.71061e-08
-2.29831e-07
4.74354e-08
-2.46389e-07
4.76551e-08
-2.62944e-07
4.77452e-08
-2.79437e-07
4.76785e-08
-2.95802e-07
4.74213e-08
-3.11958e-07
4.69355e-08
-3.27811e-07
4.61791e-08
-3.43256e-07
4.51086e-08
-3.58171e-07
4.36797e-08
-3.72425e-07
4.18494e-08
-3.85871e-07
3.95773e-08
-3.98353e-07
3.68274e-08
-4.09708e-07
3.35699e-08
-4.19764e-07
2.97829e-08
-4.28348e-07
2.54541e-08
-4.35288e-07
2.05823e-08
-4.40417e-07
1.51787e-08
-4.43577e-07
9.26836e-09
-4.44622e-07
2.89087e-09
-4.43425e-07
-3.89942e-09
-4.39883e-07
-1.10328e-08
-4.33918e-07
-1.84249e-08
-4.25484e-07
-2.59777e-08
-4.14567e-07
-3.35809e-08
-4.01194e-07
-4.11137e-08
-3.85428e-07
-4.84476e-08
-3.67375e-07
-5.54493e-08
-3.47181e-07
-6.19837e-08
-3.25032e-07
-6.79179e-08
-3.01155e-07
-7.31249e-08
-2.75811e-07
-7.74874e-08
-2.49294e-07
-8.09021e-08
-2.21924e-07
-8.32828e-08
-1.94044e-07
-8.45637e-08
-1.66012e-07
-8.47024e-08
-1.38192e-07
-8.36817e-08
-1.10947e-07
-8.15105e-08
-8.46347e-08
-7.82246e-08
-5.95942e-08
-7.38856e-08
-3.61417e-08
-6.85795e-08
-1.45624e-08
-6.24143e-08
4.89558e-09
-5.55165e-08
2.20265e-08
-4.8028e-08
3.66712e-08
-4.01013e-08
4.87202e-08
-3.18961e-08
5.81159e-08
-2.35752e-08
6.4853e-08
-1.53014e-08
6.89793e-08
-7.23499e-09
7.05943e-08
4.66877e-10
6.98492e-08
7.65038e-09
6.69461e-08
1.41632e-08
6.21368e-08
1.98515e-08
5.57233e-08
2.45562e-08
4.80581e-08
2.81082e-08
3.95443e-08
3.03257e-08
3.06361e-08
3.10131e-08
2.18394e-08
2.9967e-08
1.37127e-08
2.69918e-08
6.87345e-09
2.19282e-08
2.01791e-09
1.47028e-08
5.43549e-09
-9.95401e-10
1.05205e-09
-4.0811e-09
6.14375e-09
-9.2695e-09
1.27665e-08
-1.6498e-08
1.99576e-08
-2.56433e-08
2.70983e-08
-3.65391e-08
3.37891e-08
-4.89939e-08
3.98011e-08
-6.2807e-08
4.50332e-08
-7.77812e-08
4.94731e-08
-9.37326e-08
5.31668e-08
-1.10496e-07
5.61938e-08
-1.27927e-07
5.86499e-08
-1.45906e-07
6.06332e-08
-1.64331e-07
6.22357e-08
-1.83121e-07
6.35373e-08
-2.02207e-07
6.46024e-08
-2.21535e-07
6.54785e-08
-2.41052e-07
6.61957e-08
-2.60714e-07
6.6768e-08
-2.80473e-07
6.7194e-08
-3.00277e-07
6.74587e-08
-3.20066e-07
6.7535e-08
-3.39774e-07
6.73859e-08
-3.59318e-07
6.6966e-08
-3.78606e-07
6.62234e-08
-3.97529e-07
6.51018e-08
-4.15963e-07
6.35421e-08
-4.33768e-07
6.1485e-08
-4.50791e-07
5.88725e-08
-4.66865e-07
5.56509e-08
-4.8181e-07
5.17725e-08
-4.95438e-07
4.71981e-08
-5.07555e-07
4.18995e-08
-5.17962e-07
3.58616e-08
-5.26464e-07
2.90844e-08
-5.3287e-07
2.15848e-08
-5.37e-07
1.33982e-08
-5.38689e-07
4.57934e-09
-5.37791e-07
-4.79716e-09
-5.34187e-07
-1.46367e-08
-5.27787e-07
-2.4825e-08
-5.18534e-07
-3.52301e-08
-5.06412e-07
-4.57037e-08
-4.91441e-07
-5.6084e-08
-4.7369e-07
-6.6199e-08
-4.53269e-07
-7.58701e-08
-4.30336e-07
-8.49166e-08
-4.05094e-07
-9.31601e-08
-3.77789e-07
-1.0043e-07
-3.48709e-07
-1.06568e-07
-3.18177e-07
-1.11433e-07
-2.86552e-07
-1.14908e-07
-2.54215e-07
-1.16901e-07
-2.21567e-07
-1.1735e-07
-1.89022e-07
-1.16227e-07
-1.56994e-07
-1.13539e-07
-1.25892e-07
-1.09327e-07
-9.6109e-08
-1.03668e-07
-6.80153e-08
-9.66733e-08
-4.19479e-08
-8.84817e-08
-1.82046e-08
-7.92598e-08
2.96323e-09
-6.91958e-08
2.13558e-08
-5.84938e-08
3.68289e-08
-4.73693e-08
4.92973e-08
-3.60436e-08
5.87359e-08
-2.47399e-08
6.51801e-08
-1.36793e-08
6.87263e-08
-3.07931e-09
6.95302e-08
6.84645e-09
6.78063e-08
1.58872e-08
6.38261e-08
2.38317e-08
5.79178e-08
3.04644e-08
5.04655e-08
3.55605e-08
4.19091e-08
3.88821e-08
3.2745e-08
4.01772e-08
2.3529e-08
3.91831e-08
1.48823e-08
3.56385e-08
7.50593e-09
2.93046e-08
2.21156e-09
1.99972e-08
7.64706e-09
-1.40932e-09
2.46135e-09
-5.53606e-09
1.02705e-08
-1.2238e-08
1.94684e-08
-2.13342e-08
2.90538e-08
-3.26133e-08
3.83774e-08
-4.58446e-08
4.70204e-08
-6.07904e-08
5.47469e-08
-7.72168e-08
6.14596e-08
-9.49032e-08
6.71596e-08
-1.13649e-07
7.19121e-08
-1.33275e-07
7.58201e-08
-1.53629e-07
7.9004e-08
-1.74582e-07
8.15864e-08
-1.96028e-07
8.36814e-08
-2.17879e-07
8.53879e-08
-2.40062e-07
8.67857e-08
-2.62517e-07
8.79332e-08
-2.85188e-07
8.88675e-08
-3.08026e-07
8.96052e-08
-3.30975e-07
9.01434e-08
-3.53979e-07
9.04622e-08
-3.7697e-07
9.05266e-08
-3.99873e-07
9.02883e-08
-4.22595e-07
8.96887e-08
-4.45033e-07
8.86608e-08
-4.67063e-07
8.71318e-08
-4.88546e-07
8.50259e-08
-5.09328e-07
8.22665e-08
-5.29235e-07
7.87794e-08
-5.4808e-07
7.44958e-08
-5.65662e-07
6.93548e-08
-5.81771e-07
6.33071e-08
-5.96189e-07
5.63172e-08
-6.08694e-07
4.83667e-08
-6.19066e-07
3.94568e-08
-6.27092e-07
2.96103e-08
-6.32567e-07
1.88733e-08
-6.35304e-07
7.31678e-09
-6.35138e-07
-4.96304e-09
-6.3193e-07
-1.78452e-08
-6.25571e-07
-3.11834e-08
-6.15992e-07
-4.48093e-08
-6.03162e-07
-5.85339e-08
-5.87095e-07
-7.21512e-08
-5.67852e-07
-8.54419e-08
-5.45544e-07
-9.81784e-08
-5.20331e-07
-1.10129e-07
-4.92424e-07
-1.21067e-07
-4.62083e-07
-1.30771e-07
-4.29614e-07
-1.39037e-07
-3.95367e-07
-1.45681e-07
-3.59727e-07
-1.50548e-07
-3.23114e-07
-1.53514e-07
-2.85971e-07
-1.54494e-07
-2.48754e-07
-1.53443e-07
-2.11931e-07
-1.50362e-07
-1.75962e-07
-1.45296e-07
-1.41296e-07
-1.38334e-07
-1.08361e-07
-1.29609e-07
-7.75475e-08
-1.19295e-07
-4.92088e-08
-1.07599e-07
-2.36466e-08
-9.4758e-08
-1.10699e-09
-8.10335e-08
1.82258e-08
-6.67021e-08
3.42325e-08
-5.20504e-08
4.68618e-08
-3.73692e-08
5.61312e-08
-2.29486e-08
6.21268e-08
-9.07494e-09
6.50027e-08
3.97064e-09
6.49788e-08
1.5911e-08
6.234e-08
2.64705e-08
5.7434e-08
3.53705e-08
5.06701e-08
4.23243e-08
4.25197e-08
4.70326e-08
3.35169e-08
4.91799e-08
2.42639e-08
4.84361e-08
1.54398e-08
4.44627e-08
7.81952e-09
3.69248e-08
2.30648e-09
2.55102e-08
9.95352e-09
-1.82328e-09
4.28464e-09
-7.00673e-09
1.54539e-08
-1.52543e-08
2.7716e-08
-2.6262e-08
4.00615e-08
-3.9723e-08
5.18384e-08
-5.53353e-08
6.26327e-08
-7.2809e-08
7.22206e-08
-9.18737e-08
8.05243e-08
-1.12283e-07
8.75689e-08
-1.33818e-07
9.34475e-08
-1.56291e-07
9.82922e-08
-1.79539e-07
1.02252e-07
-2.03429e-07
1.05477e-07
-2.27852e-07
1.08105e-07
-2.52719e-07
1.10254e-07
-2.77954e-07
1.12021e-07
-3.03495e-07
1.13475e-07
-3.29287e-07
1.1466e-07
-3.55276e-07
1.15594e-07
-3.81406e-07
1.16273e-07
-4.07614e-07
1.16671e-07
-4.33832e-07
1.16744e-07
-4.59975e-07
1.16431e-07
-4.85944e-07
1.15658e-07
-5.11626e-07
1.14343e-07
-5.36887e-07
1.12393e-07
-5.61575e-07
1.09714e-07
-5.85519e-07
1.0621e-07
-6.08529e-07
1.01789e-07
-6.30399e-07
9.63658e-08
-6.50908e-07
8.98638e-08
-6.69823e-07
8.22218e-08
-6.86902e-07
7.33961e-08
-7.01899e-07
6.3364e-08
-7.14569e-07
5.21269e-08
-7.24672e-07
3.97127e-08
-7.31977e-07
2.61784e-08
-7.36271e-07
1.16113e-08
-7.37364e-07
-3.87027e-09
-7.3509e-07
-2.01188e-08
-7.2932e-07
-3.69541e-08
-7.19959e-07
-5.41698e-08
-7.06959e-07
-7.15343e-08
-6.90316e-07
-8.87944e-08
-6.70077e-07
-1.0568e-07
-6.46345e-07
-1.21911e-07
-6.19274e-07
-1.37201e-07
-5.89075e-07
-1.51265e-07
-5.56015e-07
-1.6383e-07
-5.20414e-07
-1.74639e-07
-4.82638e-07
-1.83457e-07
-4.43102e-07
-1.90084e-07
-4.02258e-07
-1.94358e-07
-3.60588e-07
-1.96163e-07
-3.18598e-07
-1.95433e-07
-2.76806e-07
-1.92155e-07
-2.35729e-07
-1.86372e-07
-1.95878e-07
-1.78185e-07
-1.5774e-07
-1.67747e-07
-1.21771e-07
-1.55264e-07
-8.83835e-08
-1.40986e-07
-5.79387e-08
-1.25203e-07
-3.0736e-08
-1.08236e-07
-7.00769e-09
-9.04303e-08
1.30862e-08
-7.21442e-08
2.94612e-08
-5.37443e-08
4.21103e-08
-3.55977e-08
5.11037e-08
-1.80683e-08
5.65878e-08
-1.51354e-09
5.87838e-08
1.3715e-08
5.79848e-08
2.72695e-08
5.45539e-08
3.88013e-08
4.8923e-08
4.79552e-08
4.1592e-08
5.43636e-08
3.31308e-08
5.7641e-08
2.41854e-08
5.73816e-08
1.5488e-08
5.316e-08
7.87722e-09
4.45356e-08
2.32687e-09
3.10606e-08
1.22804e-08
-2.23483e-09
6.51947e-09
-8.4789e-09
2.1698e-08
-1.82852e-08
3.75223e-08
-3.1225e-08
5.30012e-08
-4.68924e-08
6.75058e-08
-6.49096e-08
8.06499e-08
-8.4931e-08
9.22421e-08
-1.06646e-07
1.02239e-07
-1.29782e-07
1.10705e-07
-1.54102e-07
1.17767e-07
-1.79406e-07
1.23596e-07
-2.05527e-07
1.28374e-07
-2.3233e-07
1.3228e-07
-2.59704e-07
1.35479e-07
-2.87561e-07
1.38111e-07
-3.15828e-07
1.40288e-07
-3.44445e-07
1.42092e-07
-3.73357e-07
1.43572e-07
-4.02513e-07
1.44749e-07
-4.31857e-07
1.45617e-07
-4.61327e-07
1.46141e-07
-4.9085e-07
1.46268e-07
-5.20341e-07
1.45922e-07
-5.49696e-07
1.45014e-07
-5.78794e-07
1.4344e-07
-6.07491e-07
1.4109e-07
-6.35625e-07
1.37848e-07
-6.6301e-07
1.33596e-07
-6.89441e-07
1.28221e-07
-7.14693e-07
1.21618e-07
-7.38524e-07
1.13695e-07
-7.60678e-07
1.04375e-07
-7.80887e-07
9.36057e-08
-7.9888e-07
8.13569e-08
-8.14382e-07
6.76289e-08
-8.27123e-07
5.24537e-08
-8.36843e-07
3.58979e-08
-8.43295e-07
1.80641e-08
-8.46259e-07
-9.06705e-10
-8.45536e-07
-2.08421e-08
-8.40964e-07
-4.15257e-08
-8.32421e-07
-6.27131e-08
-8.19827e-07
-8.41276e-08
-8.03155e-07
-1.05467e-07
-7.82429e-07
-1.26406e-07
-7.57731e-07
-1.46609e-07
-7.29205e-07
-1.65727e-07
-6.97052e-07
-1.83417e-07
-6.6154e-07
-1.99343e-07
-6.22994e-07
-2.13185e-07
-5.81798e-07
-2.24653e-07
-5.38388e-07
-2.33493e-07
-4.9325e-07
-2.39497e-07
-4.46906e-07
-2.42507e-07
-3.99912e-07
-2.42427e-07
-3.52841e-07
-2.39226e-07
-3.06274e-07
-2.32939e-07
-2.60789e-07
-2.2367e-07
-2.16943e-07
-2.11593e-07
-1.75265e-07
-1.96942e-07
-1.36239e-07
-1.80012e-07
-1.00293e-07
-1.61149e-07
-6.77901e-08
-1.40739e-07
-3.90213e-08
-1.19199e-07
-1.41959e-08
-9.69696e-08
6.56065e-09
-7.45008e-08
2.32095e-08
-5.22466e-08
3.57988e-08
-3.06576e-08
4.44627e-08
-1.01775e-08
4.9419e-08
8.75872e-09
5.09663e-08
2.57222e-08
4.94813e-08
4.02863e-08
4.54166e-08
5.202e-08
3.92999e-08
6.04803e-08
3.17365e-08
6.52045e-08
2.34142e-08
6.57039e-08
1.51147e-08
6.14595e-08
7.73073e-09
5.19196e-08
2.29102e-09
3.65003e-08
1.45714e-08
-2.64316e-09
9.16262e-09
-9.94505e-09
2.89999e-08
-2.13108e-08
4.88881e-08
-3.6187e-08
6.78775e-08
-5.40674e-08
8.53861e-08
-7.44962e-08
1.01079e-07
-9.70697e-08
1.14816e-07
-1.21436e-07
1.26606e-07
-1.47294e-07
1.36562e-07
-1.74389e-07
1.44863e-07
-2.02512e-07
1.51719e-07
-2.31492e-07
1.57354e-07
-2.61193e-07
1.6198e-07
-2.91506e-07
1.65792e-07
-3.22347e-07
1.68952e-07
-3.5365e-07
1.71591e-07
-3.85359e-07
1.738e-07
-4.17425e-07
1.75638e-07
-4.49801e-07
1.77126e-07
-4.82436e-07
1.78252e-07
-5.15271e-07
1.78976e-07
-5.48236e-07
1.79232e-07
-5.81243e-07
1.78929e-07
-6.14187e-07
1.77958e-07
-6.46942e-07
1.76195e-07
-6.79357e-07
1.73506e-07
-7.1126e-07
1.6975e-07
-7.42451e-07
1.64787e-07
-7.72711e-07
1.5848e-07
-8.01793e-07
1.50701e-07
-8.29436e-07
1.41337e-07
-8.55357e-07
1.30296e-07
-8.79262e-07
1.17511e-07
-9.00849e-07
1.02944e-07
-9.1981e-07
8.65904e-08
-9.35842e-07
6.84849e-08
-9.48645e-07
4.87015e-08
-9.57938e-07
2.73568e-08
-9.63457e-07
4.61177e-09
-9.64966e-07
-1.93329e-08
-9.62262e-07
-4.4229e-08
-9.55184e-07
-6.97913e-08
-9.43615e-07
-9.56971e-08
-9.2749e-07
-1.21592e-07
-9.06802e-07
-1.47094e-07
-8.81606e-07
-1.71805e-07
-8.52022e-07
-1.95311e-07
-8.18238e-07
-2.17201e-07
-7.80512e-07
-2.37068e-07
-7.39172e-07
-2.54525e-07
-6.9461e-07
-2.69214e-07
-6.47286e-07
-2.80818e-07
-5.97714e-07
-2.89068e-07
-5.46462e-07
-2.9376e-07
-4.94134e-07
-2.94755e-07
-4.41367e-07
-2.91993e-07
-3.88812e-07
-2.85494e-07
-3.37122e-07
-2.7536e-07
-2.86937e-07
-2.61778e-07
-2.38868e-07
-2.45011e-07
-1.93481e-07
-2.25398e-07
-1.51288e-07
-2.03342e-07
-1.12728e-07
-1.79299e-07
-7.81596e-08
-1.53767e-07
-4.78541e-08
-1.27275e-07
-2.19878e-08
-1.00367e-07
-6.39597e-10
-7.35948e-08
1.62101e-08
-4.75073e-08
2.86776e-08
-2.26449e-08
3.69737e-08
4.6255e-10
4.14003e-08
2.12957e-08
4.23462e-08
3.93404e-08
4.02849e-08
5.40814e-08
3.57725e-08
6.49927e-08
2.94495e-08
7.15274e-08
2.20454e-08
7.3108e-08
1.43885e-08
6.91165e-08
7.41961e-09
5.88884e-08
2.21218e-09
4.17077e-08
1.67836e-08
-3.04796e-09
1.22106e-08
-1.14008e-08
3.73528e-08
-2.43183e-08
6.18055e-08
-4.11235e-08
8.46827e-08
-6.12098e-08
1.05472e-07
-8.40428e-08
1.23912e-07
-1.0916e-07
1.39933e-07
-1.36168e-07
1.53614e-07
-1.64737e-07
1.65131e-07
-1.94595e-07
1.74721e-07
-2.25525e-07
1.82649e-07
-2.57353e-07
1.89182e-07
-2.89945e-07
1.94572e-07
-3.23199e-07
1.99045e-07
-3.57037e-07
2.0279e-07
-3.91401e-07
2.05955e-07
-4.26245e-07
2.08644e-07
-4.61529e-07
2.10922e-07
-4.97214e-07
2.12811e-07
-5.33258e-07
2.14296e-07
-5.69609e-07
2.15327e-07
-6.06199e-07
2.15822e-07
-6.42945e-07
2.15675e-07
-6.79742e-07
2.14754e-07
-7.16459e-07
2.12912e-07
-7.52942e-07
2.09989e-07
-7.89008e-07
2.05816e-07
-8.24446e-07
2.00225e-07
-8.59017e-07
1.93051e-07
-8.92459e-07
1.84142e-07
-9.24482e-07
1.7336e-07
-9.54779e-07
1.60593e-07
-9.83024e-07
1.45756e-07
-1.00888e-06
1.288e-07
-1.032e-06
1.09713e-07
-1.05205e-06
8.85289e-08
-1.06867e-06
6.53261e-08
-1.08155e-06
4.02333e-08
-1.09037e-06
1.34294e-08
-1.09484e-06
-1.48573e-08
-1.09472e-06
-4.43479e-08
-1.0898e-06
-7.47158e-08
-1.0799e-06
-1.05591e-07
-1.06493e-06
-1.36565e-07
-1.04483e-06
-1.67195e-07
-1.01962e-06
-1.97016e-07
-9.89387e-07
-2.25544e-07
-9.54297e-07
-2.52291e-07
-9.14592e-07
-2.76773e-07
-8.70594e-07
-2.98523e-07
-8.22702e-07
-3.17106e-07
-7.71392e-07
-3.32128e-07
-7.17208e-07
-3.43252e-07
-6.60759e-07
-3.50208e-07
-6.02706e-07
-3.52807e-07
-5.43752e-07
-3.50947e-07
-4.84626e-07
-3.44621e-07
-4.26065e-07
-3.3392e-07
-3.68804e-07
-3.19039e-07
-3.1355e-07
-3.00266e-07
-2.60967e-07
-2.77981e-07
-2.11664e-07
-2.52646e-07
-1.66169e-07
-2.24793e-07
-1.24928e-07
-1.95008e-07
-8.82858e-08
-1.63918e-07
-5.6481e-08
-1.32172e-07
-2.9643e-08
-1.00433e-07
-7.78976e-09
-6.93606e-08
9.17153e-09
-3.96062e-08
2.14406e-08
-1.18065e-08
2.93201e-08
1.34162e-08
3.32106e-08
3.54498e-08
3.36068e-08
5.36851e-08
3.10947e-08
6.75048e-08
2.63513e-08
7.62708e-08
2.01486e-08
7.93107e-08
1.33603e-08
7.59048e-08
6.97283e-09
6.52759e-08
2.09973e-09
4.65808e-08
1.88834e-08
-3.44894e-09
1.56595e-08
-1.28429e-08
4.67467e-08
-2.72982e-08
7.62608e-08
-4.60161e-08
1.03401e-07
-6.82906e-08
1.27747e-07
-9.35092e-08
1.4913e-07
-1.21151e-07
1.67575e-07
-1.50782e-07
1.83244e-07
-1.82043e-07
1.96393e-07
-2.1465e-07
2.07328e-07
-2.48374e-07
2.16374e-07
-2.83044e-07
2.23852e-07
-3.1853e-07
2.30058e-07
-3.54737e-07
2.35252e-07
-3.91598e-07
2.39652e-07
-4.29069e-07
2.43425e-07
-4.67114e-07
2.4669e-07
-5.05709e-07
2.49516e-07
-5.44825e-07
2.51928e-07
-5.84433e-07
2.53904e-07
-6.24489e-07
2.55383e-07
-6.64935e-07
2.56268e-07
-7.05691e-07
2.56431e-07
-7.46655e-07
2.55718e-07
-7.87697e-07
2.53954e-07
-8.28654e-07
2.50947e-07
-8.69337e-07
2.46499e-07
-9.09521e-07
2.40409e-07
-9.4895e-07
2.3248e-07
-9.87338e-07
2.2253e-07
-1.02437e-06
2.10394e-07
-1.05971e-06
1.95933e-07
-1.093e-06
1.79042e-07
-1.12385e-06
1.59655e-07
-1.15189e-06
1.3775e-07
-1.17672e-06
1.13356e-07
-1.19794e-06
8.65525e-08
-1.21519e-06
5.74776e-08
-1.22808e-06
2.63263e-08
-1.23629e-06
-6.64744e-09
-1.2395e-06
-4.11359e-08
-1.23745e-06
-7.67694e-08
-1.22991e-06
-1.13131e-07
-1.21672e-06
-1.49754e-07
-1.19778e-06
-1.86135e-07
-1.17306e-06
-2.21735e-07
-1.14261e-06
-2.55994e-07
-1.10656e-06
-2.8834e-07
-1.06513e-06
-3.18202e-07
-1.01863e-06
-3.45025e-07
-9.67457e-07
-3.68282e-07
-9.12095e-07
-3.87491e-07
-8.53117e-07
-4.0223e-07
-7.91174e-07
-4.12152e-07
-7.26983e-07
-4.16999e-07
-6.61316e-07
-4.16614e-07
-5.94987e-07
-4.1095e-07
-5.2883e-07
-4.00078e-07
-4.63682e-07
-3.84187e-07
-4.00363e-07
-3.63584e-07
-3.39653e-07
-3.38691e-07
-2.82272e-07
-3.10027e-07
-2.2886e-07
-2.78205e-07
-1.79964e-07
-2.43905e-07
-1.36018e-07
-2.07863e-07
-9.73416e-08
-1.70849e-07
-6.41263e-08
-1.33648e-07
-3.64377e-08
-9.70492e-08
-1.42148e-08
-6.18291e-08
2.72587e-09
-2.87472e-08
1.4685e-08
1.45702e-09
2.20742e-08
2.80606e-08
2.54103e-08
5.03491e-08
2.53107e-08
6.76044e-08
2.24917e-08
7.90898e-08
1.77695e-08
8.40329e-08
1.20649e-08
8.16094e-08
6.41055e-09
7.09302e-08
1.9602e-09
5.10312e-08
2.08436e-08
-3.84559e-09
1.95051e-08
-1.42682e-08
5.71694e-08
-3.02423e-08
9.22349e-08
-5.08493e-08
1.24008e-07
-7.52852e-08
1.52183e-07
-1.02861e-07
1.76707e-07
-1.33e-07
1.97714e-07
-1.65227e-07
2.1547e-07
-1.99158e-07
2.30324e-07
-2.34492e-07
2.42662e-07
-2.70999e-07
2.52881e-07
-3.08507e-07
2.6136e-07
-3.46894e-07
2.68445e-07
-3.86077e-07
2.74435e-07
-4.26003e-07
2.79578e-07
-4.66642e-07
2.84064e-07
-5.07977e-07
2.88025e-07
-5.49999e-07
2.91538e-07
-5.92696e-07
2.94625e-07
-6.36053e-07
2.9726e-07
-6.80039e-07
2.99369e-07
-7.24606e-07
3.00835e-07
-7.69684e-07
3.01509e-07
-8.15172e-07
3.01206e-07
-8.6094e-07
2.99722e-07
-9.06822e-07
2.96829e-07
-9.52619e-07
2.92295e-07
-9.9809e-07
2.8588e-07
-1.04296e-06
2.77353e-07
-1.08693e-06
2.66493e-07
-1.12963e-06
2.53103e-07
-1.17072e-06
2.37015e-07
-1.20977e-06
2.18097e-07
-1.24638e-06
1.96263e-07
-1.28011e-06
1.71475e-07
-1.3105e-06
1.43753e-07
-1.33713e-06
1.13176e-07
-1.35953e-06
7.98857e-08
-1.3773e-06
4.40921e-08
-1.39002e-06
6.07268e-09
-1.39732e-06
-3.38364e-08
-1.39887e-06
-7.52239e-08
-1.39437e-06
-1.17624e-07
-1.38361e-06
-1.60512e-07
-1.36643e-06
-2.03318e-07
-1.34274e-06
-2.45426e-07
-1.31254e-06
-2.86195e-07
-1.27592e-06
-3.24961e-07
-1.23306e-06
-3.61058e-07
-1.18426e-06
-3.9383e-07
-1.12989e-06
-4.22647e-07
-1.07046e-06
-4.46924e-07
-1.00655e-06
-4.66139e-07
-9.3885e-07
-4.79852e-07
-8.68131e-07
-4.87717e-07
-7.95239e-07
-4.89506e-07
-7.21074e-07
-4.85115e-07
-6.46576e-07
-4.74576e-07
-5.72697e-07
-4.58065e-07
-5.00384e-07
-4.35898e-07
-4.30547e-07
-4.08527e-07
-3.64041e-07
-3.76534e-07
-3.01636e-07
-3.4061e-07
-2.44001e-07
-3.0154e-07
-1.91683e-07
-2.60181e-07
-1.45098e-07
-2.17434e-07
-1.04517e-07
-1.74229e-07
-7.00663e-08
-1.31499e-07
-4.1728e-08
-9.01674e-08
-1.93416e-08
-5.11335e-08
-2.61267e-09
-1.52719e-08
8.88001e-09
1.65679e-08
1.56761e-08
4.3553e-08
1.84269e-08
6.48536e-08
1.7891e-08
7.96256e-08
1.49327e-08
8.69911e-08
1.05235e-08
8.60187e-08
5.74575e-09
7.57079e-08
1.79791e-09
5.4979e-08
2.26415e-08
-4.23713e-09
2.37422e-08
-1.56732e-08
6.86055e-08
-3.31424e-08
1.09704e-07
-5.5608e-08
1.46473e-07
-8.21709e-08
1.78746e-07
-1.12068e-07
2.06604e-07
-1.44668e-07
2.30313e-07
-1.79457e-07
2.50259e-07
-2.16027e-07
2.66895e-07
-2.54067e-07
2.80702e-07
-2.93342e-07
2.92156e-07
-3.33687e-07
3.01704e-07
-3.74987e-07
3.09746e-07
-4.17177e-07
3.16625e-07
-4.60219e-07
3.22621e-07
-5.04103e-07
3.27948e-07
-5.48832e-07
3.32754e-07
-5.94417e-07
3.37122e-07
-6.40866e-07
3.41075e-07
-6.88181e-07
3.44575e-07
-7.36347e-07
3.47535e-07
-7.85329e-07
3.49818e-07
-8.35066e-07
3.51245e-07
-8.85461e-07
3.51602e-07
-9.36385e-07
3.50646e-07
-9.87667e-07
3.48112e-07
-1.0391e-06
3.43724e-07
-1.09042e-06
3.37202e-07
-1.14134e-06
3.28271e-07
-1.19151e-06
3.16669e-07
-1.24057e-06
3.02161e-07
-1.2881e-06
2.84541e-07
-1.33365e-06
2.63649e-07
-1.37676e-06
2.39371e-07
-1.41693e-06
2.11649e-07
-1.45367e-06
1.80491e-07
-1.48646e-06
1.4597e-07
-1.51481e-06
1.08231e-07
-1.53821e-06
6.7494e-08
-1.55619e-06
2.40569e-08
-1.56832e-06
-2.17101e-08
-1.57418e-06
-6.93629e-08
-1.57342e-06
-1.18381e-07
-1.56575e-06
-1.68184e-07
-1.55094e-06
-2.18129e-07
-1.52884e-06
-2.67524e-07
-1.4994e-06
-3.15638e-07
-1.46265e-06
-3.61712e-07
-1.41873e-06
-4.04975e-07
-1.3679e-06
-4.44659e-07
-1.31053e-06
-4.8002e-07
-1.24709e-06
-5.10357e-07
-1.17821e-06
-5.35029e-07
-1.10457e-06
-5.53483e-07
-1.02702e-06
-5.6527e-07
-9.46459e-07
-5.70067e-07
-8.6388e-07
-5.67694e-07
-7.80331e-07
-5.58126e-07
-6.9689e-07
-5.41506e-07
-6.14644e-07
-5.18144e-07
-5.34653e-07
-4.88518e-07
-4.57924e-07
-4.53262e-07
-3.85383e-07
-4.13151e-07
-3.17845e-07
-3.69078e-07
-2.55994e-07
-3.22032e-07
-2.00364e-07
-2.73064e-07
-1.51328e-07
-2.23265e-07
-1.09092e-07
-1.73736e-07
-7.36929e-08
-1.25567e-07
-4.50038e-08
-7.98226e-08
-2.27427e-08
-3.7533e-08
-6.48183e-09
3.07002e-10
4.34153e-09
3.27297e-08
1.0415e-08
5.87801e-08
1.25436e-08
7.74971e-08
1.16444e-08
8.78903e-08
8.74536e-09
8.89177e-08
4.98546e-09
7.94678e-08
1.61555e-09
5.83489e-08
2.4257e-08
-4.62249e-09
2.83647e-08
-1.70537e-08
8.10366e-08
-3.59889e-08
1.28639e-07
-6.02764e-08
1.70761e-07
-8.89243e-08
2.07393e-07
-1.21099e-07
2.38779e-07
-1.56115e-07
2.6533e-07
-1.93425e-07
2.87569e-07
-2.32601e-07
3.0607e-07
-2.7332e-07
3.2142e-07
-3.15348e-07
3.34184e-07
-3.58526e-07
3.44882e-07
-4.02756e-07
3.53976e-07
-4.47987e-07
3.61855e-07
-4.94204e-07
3.68838e-07
-5.41418e-07
3.75162e-07
-5.89657e-07
3.80993e-07
-6.38953e-07
3.86419e-07
-6.89339e-07
3.9146e-07
-7.40836e-07
3.96072e-07
-7.93447e-07
4.00146e-07
-8.47152e-07
4.03523e-07
-9.01897e-07
4.05991e-07
-9.57595e-07
4.07299e-07
-1.01411e-06
4.07163e-07
-1.07127e-06
4.05273e-07
-1.12885e-06
4.01305e-07
-1.18658e-06
3.9493e-07
-1.24414e-06
3.85824e-07
-1.30114e-06
3.73678e-07
-1.3572e-06
3.58212e-07
-1.41183e-06
3.3918e-07
-1.46457e-06
3.16382e-07
-1.51487e-06
2.89675e-07
-1.5622e-06
2.58979e-07
-1.60599e-06
2.24281e-07
-1.64567e-06
1.85647e-07
-1.68066e-06
1.43222e-07
-1.7104e-06
9.72368e-08
-1.73435e-06
4.80048e-08
-1.75199e-06
-4.0682e-09
-1.76285e-06
-5.85103e-08
-1.76648e-06
-1.14742e-07
-1.76254e-06
-1.72126e-07
-1.75072e-06
-2.29948e-07
-1.73081e-06
-2.87437e-07
-1.70268e-06
-3.43768e-07
-1.66631e-06
-3.98083e-07
-1.62179e-06
-4.49497e-07
-1.56932e-06
-4.97126e-07
-1.50924e-06
-5.40099e-07
-1.44202e-06
-5.77581e-07
-1.36824e-06
-6.08802e-07
-1.28865e-06
-6.33075e-07
-1.2041e-06
-6.49824e-07
-1.11556e-06
-6.58609e-07
-1.0241e-06
-6.59148e-07
-9.30892e-07
-6.51338e-07
-8.37133e-07
-6.35264e-07
-7.44064e-07