/*--------------------------------*- C++ -*----------------------------------*\
  =========                 |
  \\      /  F ield         | OpenFOAM: The Open Source CFD Toolbox
   \\    /   O peration     | Website:  https://openfoam.org
    \\  /    A nd           | Version:  7
     \\/     M anipulation  |
\*---------------------------------------------------------------------------*/
FoamFile
{
    version     2.0;
    format      ascii;
    class       volVectorField;
    location    "1.575";
    object      U;
}
// * * * * * * * * * * * * * * * * * * * * * * * * * * * * * * * * * * * * * //

dimensions      [0 1 -1 0 0 0 0];

internalField   nonuniform List<vector> 
6400
(
(1.10239e-05 -1.10378e-05 0)
(5.66219e-05 -2.81862e-05 0)
(0.00012846 -3.21635e-05 0)
(0.000194887 -2.76898e-05 0)
(0.000239879 -1.93724e-05 0)
(0.00025728 -9.83563e-06 0)
(0.00024528 -3.94794e-07 0)
(0.000204391 8.35915e-06 0)
(0.00013623 1.62586e-05 0)
(4.26982e-05 2.33609e-05 0)
(-7.44868e-05 2.98346e-05 0)
(-0.000214013 3.58886e-05 0)
(-0.000375049 4.1727e-05 0)
(-0.000557234 4.75251e-05 0)
(-0.000760591 5.34205e-05 0)
(-0.000985424 5.95105e-05 0)
(-0.0012322 6.58471e-05 0)
(-0.00150141 7.24414e-05 0)
(-0.00179349 7.92699e-05 0)
(-0.00210867 8.62767e-05 0)
(-0.00244693 9.33764e-05 0)
(-0.00280787 0.000100462 0)
(-0.00319069 0.000107403 0)
(-0.00359406 0.000114048 0)
(-0.00401614 0.000120226 0)
(-0.00445447 0.000125751 0)
(-0.00490598 0.000130422 0)
(-0.00536693 0.000134027 0)
(-0.00583294 0.000136343 0)
(-0.00629893 0.000137143 0)
(-0.00675922 0.000136208 0)
(-0.00720751 0.000133325 0)
(-0.007637 0.000128302 0)
(-0.00804044 0.000120973 0)
(-0.00841027 0.000111209 0)
(-0.0087388 9.8932e-05 0)
(-0.0090183 8.41184e-05 0)
(-0.00924129 6.68142e-05 0)
(-0.00940067 4.71424e-05 0)
(-0.00949001 2.53082e-05 0)
(-0.00950368 1.58695e-06 0)
(-0.00943718 -2.36846e-05 0)
(-0.00928734 -5.00261e-05 0)
(-0.00905248 -7.69122e-05 0)
(-0.0087326 -0.000103759 0)
(-0.00832951 -0.000129933 0)
(-0.0078469 -0.000154773 0)
(-0.00729037 -0.000177608 0)
(-0.0066674 -0.000197792 0)
(-0.00598721 -0.000214722 0)
(-0.00526061 -0.000227871 0)
(-0.00449971 -0.000236811 0)
(-0.00371768 -0.000241237 0)
(-0.00292831 -0.000240986 0)
(-0.00214566 -0.000236044 0)
(-0.00138364 -0.000226557 0)
(-0.000655546 -0.000212822 0)
(2.63011e-05 -0.000195278 0)
(0.00065094 -0.000174477 0)
(0.00120908 -0.000151065 0)
(0.00169334 -0.000125756 0)
(0.00209838 -9.92834e-05 0)
(0.00242097 -7.23733e-05 0)
(0.00265997 -4.57102e-05 0)
(0.00281621 -1.99093e-05 0)
(0.00289229 4.50549e-06 0)
(0.0028924 2.71125e-05 0)
(0.00282199 4.75958e-05 0)
(0.00268761 6.57282e-05 0)
(0.00249663 8.13496e-05 0)
(0.00225716 9.43214e-05 0)
(0.00197807 0.000104461 0)
(0.00166913 0.000111448 0)
(0.00134149 0.000114697 0)
(0.00100836 0.000113183 0)
(0.000686119 0.000105273 0)
(0.000395382 8.86588e-05 0)
(0.00016136 6.05214e-05 0)
(1.32868e-05 1.97837e-05 0)
(-1.76928e-05 -1.77535e-05 0)
(2.872e-05 -5.69507e-05 0)
(0.000118044 -0.000117135 0)
(0.000237246 -0.000123985 0)
(0.000332452 -9.61436e-05 0)
(0.000373992 -4.98239e-05 0)
(0.000348006 4.38279e-06 0)
(0.000248586 6.02651e-05 0)
(7.48129e-05 0.000114515 0)
(-0.000171391 0.000165771 0)
(-0.000486979 0.000213833 0)
(-0.00086886 0.000259168 0)
(-0.00131451 0.000302551 0)
(-0.00182221 0.000344827 0)
(-0.00239111 0.000386764 0)
(-0.00302109 0.000428972 0)
(-0.00371252 0.000471844 0)
(-0.00446599 0.000515548 0)
(-0.00528205 0.000560029 0)
(-0.00616092 0.000605021 0)
(-0.0071022 0.000650069 0)
(-0.00810468 0.000694545 0)
(-0.00916609 0.000737678 0)
(-0.010283 0.000778565 0)
(-0.0114504 0.000816187 0)
(-0.0126621 0.000849432 0)
(-0.0139101 0.000877112 0)
(-0.0151848 0.000897986 0)
(-0.0164749 0.00091078 0)
(-0.0177675 0.00091422 0)
(-0.0190481 0.000907067 0)
(-0.0203007 0.000888161 0)
(-0.0215082 0.000856456 0)
(-0.0226522 0.000811074 0)
(-0.0237136 0.00075135 0)
(-0.0246729 0.000676884 0)
(-0.0255108 0.000587586 0)
(-0.026208 0.000483717 0)
(-0.0267467 0.000365929 0)
(-0.0271099 0.000235291 0)
(-0.0272831 9.32932e-05 0)
(-0.0272539 -5.81806e-05 0)
(-0.0270128 -0.000216761 0)
(-0.0265541 -0.000379715 0)
(-0.0258755 -0.000543988 0)
(-0.0249789 -0.000706253 0)
(-0.0238706 -0.000862998 0)
(-0.0225613 -0.00101063 0)
(-0.0210661 -0.00114557 0)
(-0.0194042 -0.00126441 0)
(-0.0175989 -0.00136402 0)
(-0.0156772 -0.00144165 0)
(-0.0136687 -0.00149512 0)
(-0.0116055 -0.00152283 0)
(-0.00952125 -0.00152393 0)
(-0.00745001 -0.00149833 0)
(-0.00542569 -0.00144672 0)
(-0.00348094 -0.00137056 0)
(-0.00164628 -0.00127206 0)
(5.0711e-05 -0.00115405 0)
(0.00158613 -0.00101988 0)
(0.00294035 -0.000873262 0)
(0.00409842 -0.000718147 0)
(0.00505029 -0.000558513 0)
(0.00579088 -0.000398229 0)
(0.00631995 -0.000240906 0)
(0.00664179 -8.9787e-05 0)
(0.00676487 5.23237e-05 0)
(0.00670128 0.000183071 0)
(0.00646638 0.00030052 0)
(0.0060783 0.000403029 0)
(0.00555774 0.000489055 0)
(0.00492797 0.000556889 0)
(0.00421505 0.00060429 0)
(0.00344856 0.000628057 0)
(0.0026625 0.000623578 0)
(0.00189653 0.000584588 0)
(0.00119607 0.000503617 0)
(0.00061062 0.000373719 0)
(0.000196619 0.000195786 0)
(2.01168e-05 1.33655e-05 0)
(3.354e-05 -0.000130536 0)
(0.00012566 -0.000236952 0)
(0.000228947 -0.000229849 0)
(0.000281533 -0.00014931 0)
(0.00024905 -2.64904e-05 0)
(0.000114455 0.000116656 0)
(-0.000130323 0.000266136 0)
(-0.000487378 0.000413941 0)
(-0.000955172 0.00055628 0)
(-0.00153059 0.000692134 0)
(-0.00221025 0.000822148 0)
(-0.00299127 0.000947815 0)
(-0.00387169 0.0010709 0)
(-0.00485045 0.00119304 0)
(-0.00592727 0.0013155 0)
(-0.00710233 0.00143906 0)
(-0.00837591 0.0015639 0)
(-0.00974798 0.00168966 0)
(-0.0112178 0.0018154 0)
(-0.0127835 0.00193971 0)
(-0.0144419 0.00206071 0)
(-0.0161879 0.00217613 0)
(-0.0180146 0.00228338 0)
(-0.0199128 0.00237958 0)
(-0.0218712 0.00246162 0)
(-0.0238758 0.00252626 0)
(-0.0259102 0.00257014 0)
(-0.0279558 0.00258991 0)
(-0.0299913 0.0025823 0)
(-0.0319936 0.00254422 0)
(-0.0339375 0.00247286 0)
(-0.0357963 0.00236583 0)
(-0.0375421 0.00222125 0)
(-0.0391463 0.00203788 0)
(-0.0405802 0.00181524 0)
(-0.0418158 0.00155369 0)
(-0.0428259 0.00125453 0)
(-0.0435854 0.000920081 0)
(-0.0440715 0.000553677 0)
(-0.0442648 0.000159695 0)
(-0.0441496 -0.000256558 0)
(-0.0437145 -0.000688565 0)
(-0.0429534 -0.00112913 0)
(-0.0418653 -0.0015703 0)
(-0.0404552 -0.00200357 0)
(-0.0387339 -0.00242007 0)
(-0.0367181 -0.00281083 0)
(-0.0344307 -0.00316706 0)
(-0.0319 -0.00348037 0)
(-0.0291598 -0.00374312 0)
(-0.0262483 -0.00394867 0)
(-0.0232079 -0.00409167 0)
(-0.020084 -0.00416826 0)
(-0.0169238 -0.00417629 0)
(-0.0137759 -0.00411542 0)
(-0.0106882 -0.00398722 0)
(-0.00770747 -0.0037951 0)
(-0.00487781 -0.00354426 0)
(-0.00223953 -0.00324146 0)
(0.000171742 -0.00289481 0)
(0.002326 -0.00251341 0)
(0.00419947 -0.00210702 0)
(0.00577507 -0.00168569 0)
(0.00704264 -0.00125932 0)
(0.00799889 -0.000837422 0)
(0.00864721 -0.000428732 0)
(0.00899724 -4.10984e-05 0)
(0.00906443 0.000318605 0)
(0.00886943 0.000644422 0)
(0.00843765 0.000931069 0)
(0.0077989 0.00117354 0)
(0.00698725 0.00136656 0)
(0.00604123 0.00150388 0)
(0.00500426 0.00157758 0)
(0.00392537 0.00157745 0)
(0.00285995 0.00149106 0)
(0.00186884 0.00130528 0)
(0.0010156 0.00101033 0)
(0.000377283 0.0006108 0)
(6.15517e-05 0.00016271 0)
(2.9035e-05 -0.000198481 0)
(9.33764e-05 -0.00032916 0)
(0.000132746 -0.000279663 0)
(8.75095e-05 -0.000115033 0)
(-7.58812e-05 0.000117527 0)
(-0.000374525 0.000384262 0)
(-0.00081649 0.000662925 0)
(-0.00140399 0.000940415 0)
(-0.00213565 0.00121021 0)
(-0.0030085 0.00147028 0)
(-0.00401931 0.00172136 0)
(-0.00516537 0.00196564 0)
(-0.00644481 0.0022058 0)
(-0.00785663 0.0024443 0)
(-0.00940043 0.002683 0)
(-0.0110761 0.00292284 0)
(-0.0128833 0.00316377 0)
(-0.0148209 0.00340471 0)
(-0.0168866 0.00364359 0)
(-0.0190767 0.00387744 0)
(-0.0213851 0.00410248 0)
(-0.0238033 0.00431422 0)
(-0.0263205 0.00450763 0)
(-0.0289226 0.00467716 0)
(-0.0315926 0.00481697 0)
(-0.0343105 0.00492096 0)
(-0.0370531 0.00498302 0)
(-0.0397943 0.00499711 0)
(-0.0425055 0.00495745 0)
(-0.0451553 0.00485876 0)
(-0.0477107 0.00469639 0)
(-0.0501368 0.00446658 0)
(-0.0523981 0.0041666 0)
(-0.0544586 0.00379501 0)
(-0.0562829 0.00335177 0)
(-0.0578367 0.00283842 0)
(-0.0590877 0.00225819 0)
(-0.0600064 0.00161606 0)
(-0.0605667 0.000918814 0)
(-0.0607471 0.000174982 0)
(-0.0605305 -0.000605462 0)
(-0.0599055 -0.00141053 0)
(-0.0588669 -0.00222713 0)
(-0.0574161 -0.00304109 0)
(-0.0555609 -0.00383739 0)
(-0.0533161 -0.00460055 0)
(-0.0507034 -0.00531504 0)
(-0.0477514 -0.00596566 0)
(-0.0444949 -0.00653805 0)
(-0.040975 -0.00701912 0)
(-0.0372379 -0.00739749 0)
(-0.0333344 -0.00766395 0)
(-0.029319 -0.00781178 0)
(-0.0252488 -0.00783712 0)
(-0.021182 -0.00773915 0)
(-0.0171771 -0.00752024 0)
(-0.013291 -0.00718589 0)
(-0.00957833 -0.00674467 0)
(-0.00608951 -0.00620788 0)
(-0.00286994 -0.00558922 0)
(4.1226e-05 -0.00490428 0)
(0.00261192 -0.00416994 0)
(0.00481785 -0.00340382 0)
(0.00664291 -0.00262358 0)
(0.00807933 -0.00184644 0)
(0.00912767 -0.00108857 0)
(0.00979649 -0.000364838 0)
(0.0101019 0.000311404 0)
(0.0100671 0.000928233 0)
(0.00972187 0.00147487 0)
(0.00910195 0.00194111 0)
(0.00824903 0.00231654 0)
(0.0072105 0.00258959 0)
(0.00603968 0.00274656 0)
(0.0047962 0.00277107 0)
(0.00354639 0.00264428 0)
(0.00236195 0.00234709 0)
(0.00131763 0.00186524 0)
(0.000510464 0.0012004 0)
(9.04737e-05 0.000399906 0)
(1.91318e-05 -0.000241259 0)
(3.38786e-05 -0.000354618 0)
(-2.86547e-05 -0.00022464 0)
(-0.00021683 5.96395e-05 0)
(-0.000558744 0.000435303 0)
(-0.00106907 0.000857538 0)
(-0.00175411 0.00129655 0)
(-0.00261495 0.00173461 0)
(-0.00364981 0.0021628 0)
(-0.00485574 0.00257828 0)
(-0.00622976 0.00298193 0)
(-0.00776953 0.00337664 0)
(-0.00947351 0.00376589 0)
(-0.0113409 0.00415281 0)
(-0.0133711 0.00453956 0)
(-0.0155638 0.00492694 0)
(-0.0179176 0.00531421 0)
(-0.02043 0.00569909 0)
(-0.023097 0.00607781 0)
(-0.0259121 0.00644522 0)
(-0.0288659 0.00679498 0)
(-0.0319463 0.00711973 0)
(-0.0351377 0.00741128 0)
(-0.0384209 0.00766082 0)
(-0.0417733 0.00785911 0)
(-0.0451685 0.00799675 0)
(-0.0485768 0.00806438 0)
(-0.0519654 0.00805299 0)
(-0.0552983 0.00795415 0)
(-0.0585375 0.00776033 0)
(-0.061643 0.00746523 0)
(-0.0645736 0.00706398 0)
(-0.0672878 0.0065535 0)
(-0.0697441 0.00593272 0)
(-0.0719024 0.00520276 0)
(-0.0737246 0.00436716 0)
(-0.0751751 0.00343195 0)
(-0.0762222 0.00240571 0)
(-0.0768384 0.00129958 0)
(-0.0770014 0.000127171 0)
(-0.0766944 -0.00109591 0)
(-0.0759063 -0.00235141 0)
(-0.0746336 -0.00361962 0)
(-0.0728795 -0.00487939 0)
(-0.0706542 -0.00610853 0)
(-0.0679755 -0.00728436 0)
(-0.0648683 -0.00838419 0)
(-0.0613649 -0.00938593 0)
(-0.0575045 -0.0102687 0)
(-0.0533324 -0.0110135 0)
(-0.0489002 -0.0116038 0)
(-0.0442643 -0.0120258 0)
(-0.0394852 -0.0122697 0)
(-0.0346265 -0.0123294 0)
(-0.0297539 -0.0122031 0)
(-0.0249332 -0.0118937 0)
(-0.0202297 -0.0114085 0)
(-0.0157063 -0.0107594 0)
(-0.0114221 -0.00996216 0)
(-0.00743113 -0.00903636 0)
(-0.00378101 -0.00800446 0)
(-0.000511924 -0.00689114 0)
(0.00234435 -0.00572243 0)
(0.00476503 -0.0045248 0)
(0.00673679 -0.00332453 0)
(0.00825591 -0.00214666 0)
(0.00932807 -0.00101465 0)
(0.00996809 4.99776e-05 0)
(0.0101995 0.00102765 0)
(0.0100539 0.00190046 0)
(0.00957072 0.00265146 0)
(0.0087964 0.00326379 0)
(0.00778444 0.0037195 0)
(0.00659509 0.00399844 0)
(0.00529557 0.00407761 0)
(0.00396036 0.00393136 0)
(0.00266996 0.00353357 0)
(0.00150937 0.00286221 0)
(0.000593721 0.00190831 0)
(0.000107504 0.000695548 0)
(5.98437e-06 -0.000247215 0)
(-4.48198e-05 -0.000286446 0)
(-0.000239245 -2.87117e-05 0)
(-0.000607184 0.000415829 0)
(-0.00116765 0.000970231 0)
(-0.00193058 0.00158003 0)
(-0.0028988 0.00220924 0)
(-0.00407118 0.00283653 0)
(-0.00544485 0.00345137 0)
(-0.00701653 0.00405057 0)
(-0.00878345 0.00463545 0)
(-0.0107436 0.00520965 0)
(-0.012896 0.00577737 0)
(-0.0152399 0.00634216 0)
(-0.0177748 0.00690615 0)
(-0.0204996 0.00746951 0)
(-0.023412 0.00803032 0)
(-0.0265079 0.0085845 0)
(-0.0297809 0.00912594 0)
(-0.0332214 0.00964668 0)
(-0.0368167 0.0101372 0)
(-0.0405503 0.0105865 0)
(-0.0444019 0.0109828 0)
(-0.0483469 0.0113134 0)
(-0.052357 0.0115653 0)
(-0.0563999 0.0117254 0)
(-0.0604396 0.0117809 0)
(-0.0644371 0.0117197 0)
(-0.0683505 0.0115309 0)
(-0.0721357 0.0112049 0)
(-0.0757473 0.0107341 0)
(-0.0791394 0.0101131 0)
(-0.0822658 0.00933902 0)
(-0.0850817 0.00841185 0)
(-0.087544 0.00733466 0)
(-0.0896121 0.00611373 0)
(-0.0912491 0.00475863 0)
(-0.0924221 0.00328225 0)
(-0.0931032 0.00170069 0)
(-0.0932703 3.31578e-05 0)
(-0.0929069 -0.00169782 0)
(-0.0920026 -0.0034681 0)
(-0.0905548 -0.00525087 0)
(-0.0885678 -0.00701764 0)
(-0.0860531 -0.00873876 0)
(-0.0830298 -0.0103841 0)
(-0.0795243 -0.0119235 0)
(-0.0755708 -0.0133278 0)
(-0.0712103 -0.0145691 0)
(-0.0664907 -0.0156223 0)
(-0.0614663 -0.0164649 0)
(-0.0561968 -0.0170786 0)
(-0.0507469 -0.0174494 0)
(-0.0451849 -0.0175685 0)
(-0.0395817 -0.0174327 0)
(-0.0340095 -0.0170447 0)
(-0.0285402 -0.0164131 0)
(-0.0232443 -0.0155526 0)
(-0.0181887 -0.0144833 0)
(-0.0134357 -0.0132305 0)
(-0.00904143 -0.0118235 0)
(-0.00505422 -0.0102952 0)
(-0.00151377 -0.00868063 0)
(0.0015497 -0.00701588 0)
(0.00411634 -0.00533716 0)
(0.00617705 -0.00367968 0)
(0.0077332 -0.00207688 0)
(0.00879678 -0.000559946 0)
(0.00938993 0.000842385 0)
(0.00954441 0.00210354 0)
(0.00930108 0.00319846 0)
(0.00870933 0.00410258 0)
(0.00782661 0.00479056 0)
(0.00671808 0.00523504 0)
(0.00545665 0.00540572 0)
(0.00412331 0.00526929 0)
(0.00280612 0.00479092 0)
(0.0015995 0.00393763 0)
(0.000633247 0.00268417 0)
(0.000115211 0.00102346 0)
(-9.42741e-06 -0.00020811 0)
(-0.000137791 -0.00010357 0)
(-0.000487962 0.000337785 0)
(-0.00106601 0.000988165 0)
(-0.00187857 0.00175928 0)
(-0.00292893 0.00258922 0)
(-0.00421494 0.0034376 0)
(-0.0057322 0.00428105 0)
(-0.00747606 0.00510848 0)
(-0.00944257 0.00591715 0)
(-0.0116289 0.00670927 0)
(-0.0140336 0.00748936 0)
(-0.0166557 0.00826228 0)
(-0.019495 0.00903173 0)
(-0.0225507 0.00979936 0)
(-0.025821 0.0105642 0)
(-0.0293025 0.0113226 0)
(-0.032989 0.0120681 0)
(-0.0368715 0.0127914 0)
(-0.0409374 0.0134812 0)
(-0.04517 0.0141241 0)
(-0.0495485 0.0147051 0)
(-0.0540476 0.0152081 0)
(-0.0586377 0.0156162 0)
(-0.0632849 0.0159124 0)
(-0.0679513 0.0160798 0)
(-0.0725954 0.0161021 0)
(-0.0771729 0.0159645 0)
(-0.0816367 0.0156535 0)
(-0.0859383 0.0151582 0)
(-0.0900282 0.0144701 0)
(-0.0938569 0.0135839 0)
(-0.0973754 0.0124975 0)
(-0.100537 0.0112128 0)
(-0.103296 0.00973527 0)
(-0.105612 0.00807466 0)
(-0.107447 0.0062446 0)
(-0.108767 0.00426276 0)
(-0.109546 0.00215059 0)
(-0.109759 -6.6787e-05 0)
(-0.109392 -0.00236063 0)
(-0.108433 -0.00469995 0)
(-0.106882 -0.0070509 0)
(-0.10474 -0.00937771 0)
(-0.10202 -0.0116433 0)
(-0.0987397 -0.01381 0)
(-0.0949264 -0.0158403 0)
(-0.0906135 -0.0176974 0)
(-0.0858422 -0.0193465 0)
(-0.080661 -0.0207555 0)
(-0.0751252 -0.0218959 0)
(-0.0692963 -0.0227437 0)
(-0.0632415 -0.0232803 0)
(-0.0570325 -0.0234935 0)
(-0.0507446 -0.0233776 0)
(-0.0444554 -0.0229344 0)
(-0.0382431 -0.022173 0)
(-0.0321852 -0.0211103 0)
(-0.0263567 -0.0197701 0)
(-0.0208281 -0.018183 0)
(-0.0156644 -0.0163854 0)
(-0.0109226 -0.0144181 0)
(-0.00665117 -0.0123256 0)
(-0.00288843 -0.0101544 0)
(0.000338331 -0.00795145 0)
(0.00301339 -0.00576311 0)
(0.00513281 -0.00363411 0)
(0.00670447 -0.00160663 0)
(0.00774782 0.000279977 0)
(0.00829336 0.00198908 0)
(0.00838204 0.00348614 0)
(0.00806465 0.0047377 0)
(0.00740118 0.00570999 0)
(0.00646036 0.0063675 0)
(0.00531955 0.00667175 0)
(0.0040652 0.00658072 0)
(0.00279195 0.00604929 0)
(0.00160241 0.0050311 0)
(0.000636908 0.00348172 0)
(0.000115944 0.0013619 0)
(-2.65567e-05 -0.000117601 0)
(-0.000242018 0.000211052 0)
(-0.000767306 0.000899217 0)
(-0.0015805 0.0018056 0)
(-0.00267321 0.00283374 0)
(-0.00404032 0.00391701 0)
(-0.00567347 0.005013 0)
(-0.00756403 0.00609812 0)
(-0.00970498 0.0071622 0)
(-0.0120913 0.0082039 0)
(-0.0147201 0.0092269 0)
(-0.0175899 0.0102369 0)
(-0.0207003 0.0112392 0)
(-0.0240511 0.0122376 0)
(-0.0276412 0.0132326 0)
(-0.031468 0.0142217 0)
(-0.0355266 0.0151988 0)
(-0.0398089 0.0161541 0)
(-0.044303 0.0170749 0)
(-0.0489929 0.0179458 0)
(-0.053858 0.0187489 0)
(-0.058873 0.0194648 0)
(-0.0640081 0.0200728 0)
(-0.0692285 0.0205515 0)
(-0.0744954 0.0208798 0)
(-0.079766 0.021037 0)
(-0.0849942 0.0210036 0)
(-0.0901311 0.0207623 0)
(-0.0951259 0.0202978 0)
(-0.0999267 0.0195981 0)
(-0.104481 0.0186545 0)
(-0.108738 0.0174624 0)
(-0.112646 0.0160212 0)
(-0.116157 0.0143351 0)
(-0.119226 0.0124127 0)
(-0.121811 0.0102672 0)
(-0.123874 0.0079169 0)
(-0.125382 0.00538417 0)
(-0.126306 0.00269595 0)
(-0.126623 -0.000116787 0)
(-0.126318 -0.00301972 0)
(-0.125378 -0.00597469 0)
(-0.1238 -0.00894114 0)
(-0.121585 -0.0118763 0)
(-0.118744 -0.0147358 0)
(-0.115293 -0.0174744 0)
(-0.111257 -0.0200472 0)
(-0.106667 -0.0224097 0)
(-0.101563 -0.0245197 0)
(-0.0959918 -0.0263377 0)
(-0.0900095 -0.0278283 0)
(-0.0836775 -0.0289613 0)
(-0.0770645 -0.0297125 0)
(-0.0702446 -0.0300648 0)
(-0.0632972 -0.0300094 0)
(-0.0563045 -0.0295459 0)
(-0.0493511 -0.028683 0)
(-0.0425217 -0.0274388 0)
(-0.0358995 -0.0258401 0)
(-0.0295641 -0.0239224 0)
(-0.0235897 -0.0217286 0)
(-0.0180433 -0.0193079 0)
(-0.0129827 -0.0167142 0)
(-0.00845559 -0.0140048 0)
(-0.00449768 -0.0112383 0)
(-0.00113236 -0.00847351 0)
(0.00163 -0.00576737 0)
(0.00379211 -0.00317446 0)
(0.00536964 -0.000746108 0)
(0.00639077 0.00146958 0)
(0.00689551 0.00342726 0)
(0.00693504 0.00508336 0)
(0.00657093 0.00639456 0)
(0.00587459 0.00731619 0)
(0.00492707 0.00780064 0)
(0.00381943 0.00779608 0)
(0.00265197 0.00724594 0)
(0.001534 0.00608925 0)
(0.000612489 0.00426171 0)
(0.000111659 0.00169386 0)
(-4.51074e-05 2.95039e-05 0)
(-0.000355577 0.000671236 0)
(-0.00107198 0.00167566 0)
(-0.00214101 0.00289216 0)
(-0.00353705 0.0042197 0)
(-0.00524521 0.00559016 0)
(-0.0072498 0.0069618 0)
(-0.00953721 0.00831302 0)
(-0.0120975 0.00963625 0)
(-0.0149244 0.0109327 0)
(-0.0180145 0.0122083 0)
(-0.0213664 0.01347 0)
(-0.0249801 0.0147239 0)
(-0.0288551 0.015973 0)
(-0.0329901 0.0172168 0)
(-0.0373816 0.0184502 0)
(-0.0420229 0.0196641 0)
(-0.0469036 0.020845 0)
(-0.0520091 0.0219759 0)
(-0.0573199 0.0230368 0)
(-0.0628115 0.0240049 0)
(-0.0684543 0.0248558 0)
(-0.0742141 0.0255643 0)
(-0.0800516 0.0261044 0)
(-0.0859238 0.0264509 0)
(-0.0917836 0.0265796 0)
(-0.0975811 0.0264683 0)
(-0.103264 0.0260974 0)
(-0.108779 0.0254505 0)
(-0.114072 0.0245151 0)
(-0.119089 0.0232828 0)
(-0.123778 0.0217503 0)
(-0.128086 0.019919 0)
(-0.131965 0.0177956 0)
(-0.135371 0.0153921 0)
(-0.13826 0.0127256 0)
(-0.140594 0.0098184 0)
(-0.142341 0.00669787 0)
(-0.14347 0.00339588 0)
(-0.143958 -5.11892e-05 0)
(-0.143786 -0.00360239 0)
(-0.142941 -0.00721438 0)
(-0.141417 -0.01084 0)
(-0.139212 -0.0144297 0)
(-0.136333 -0.017932 0)
(-0.132793 -0.0212944 0)
(-0.128612 -0.0244641 0)
(-0.123821 -0.027389 0)
(-0.118454 -0.0300188 0)
(-0.112557 -0.0323063 0)
(-0.106184 -0.0342083 0)
(-0.0993948 -0.0356871 0)
(-0.0922594 -0.0367118 0)
(-0.0848536 -0.0372596 0)
(-0.0772598 -0.0373167 0)
(-0.0695652 -0.0368795 0)
(-0.0618604 -0.0359549 0)
(-0.0542377 -0.034561 0)
(-0.046789 -0.0327269 0)
(-0.0396038 -0.0304919 0)
(-0.0327667 -0.0279052 0)
(-0.0263555 -0.025024 0)
(-0.020439 -0.0219123 0)
(-0.0150752 -0.0186384 0)
(-0.0103097 -0.0152736 0)
(-0.00617467 -0.0118898 0)
(-0.00268821 -0.00855763 0)
(0.000146192 -0.00534545 0)
(0.00233946 -0.00231801 0)
(0.00391652 0.000463708 0)
(0.00491566 0.00294217 0)
(0.00538773 0.00506236 0)
(0.00539526 0.00677026 0)
(0.00501178 0.00801097 0)
(0.00432147 0.00872674 0)
(0.00341937 0.00885511 0)
(0.00241056 0.00832732 0)
(0.00140965 0.0070676 0)
(0.000566977 0.00499261 0)
(0.000103917 0.00200661 0)
(-6.49551e-05 0.000237597 0)
(-0.000477128 0.00128846 0)
(-0.00139787 0.00268368 0)
(-0.00273968 0.0042676 0)
(-0.00445789 0.00593855 0)
(-0.0065267 0.00763051 0)
(-0.00892219 0.00930546 0)
(-0.0116252 0.0109463 0)
(-0.0146224 0.0125499 0)
(-0.017906 0.0141213 0)
(-0.021472 0.0156694 0)
(-0.025319 0.0172029 0)
(-0.0294469 0.0187283 0)
(-0.0338553 0.0202481 0)
(-0.0385423 0.0217596 0)
(-0.0435031 0.023255 0)
(-0.0487294 0.0247213 0)
(-0.0542084 0.0261409 0)
(-0.0599226 0.0274917 0)
(-0.0658489 0.0287487 0)
(-0.0719593 0.0298839 0)
(-0.0782203 0.030868 0)
(-0.0845934 0.0316707 0)
(-0.0910358 0.0322619 0)
(-0.0975006 0.0326125 0)
(-0.103938 0.0326951 0)
(-0.110294 0.0324852 0)
(-0.116516 0.0319616 0)
(-0.122547 0.0311072 0)
(-0.128333 0.0299096 0)
(-0.133818 0.0283613 0)
(-0.138951 0.0264606 0)
(-0.143679 0.0242111 0)
(-0.147953 0.0216224 0)
(-0.151729 0.0187096 0)
(-0.154964 0.0154937 0)
(-0.15762 0.0120009 0)
(-0.159661 0.00826291 0)
(-0.161057 0.00431628 0)
(-0.161782 0.000202345 0)
(-0.161816 -0.00403291 0)
(-0.161142 -0.00834038 0)
(-0.159749 -0.012667 0)
(-0.157633 -0.0169568 0)
(-0.154795 -0.0211515 0)
(-0.151244 -0.0251914 0)
(-0.146996 -0.029016 0)
(-0.142074 -0.0325652 0)
(-0.136512 -0.0357802 0)
(-0.130349 -0.0386052 0)
(-0.123637 -0.0409883 0)
(-0.116435 -0.0428834 0)
(-0.108811 -0.0442515 0)
(-0.100842 -0.0450624 0)
(-0.0926123 -0.045296 0)
(-0.0842144 -0.0449436 0)
(-0.0757445 -0.0440089 0)
(-0.0673027 -0.0425085 0)
(-0.0589903 -0.0404724 0)
(-0.0509073 -0.0379432 0)
(-0.04315 -0.0349753 0)
(-0.0358083 -0.031634 0)
(-0.0289635 -0.0279929 0)
(-0.0226856 -0.0241325 0)
(-0.0170316 -0.0201373 0)
(-0.0120442 -0.0160935 0)
(-0.00775039 -0.0120869 0)
(-0.00416119 -0.00820095 0)
(-0.0012715 -0.00451546 0)
(0.000939501 -0.00110588 0)
(0.00250764 0.00195656 0)
(0.00348288 0.004604 0)
(0.00392826 0.00677045 0)
(0.00391905 0.00838969 0)
(0.0035422 0.00939294 0)
(0.00289626 0.00970639 0)
(0.00209033 0.0092489 0)
(0.00124325 0.00793032 0)
(0.000506402 0.00565017 0)
(9.39609e-05 0.00229099 0)
(-8.59728e-05 0.000510482 0)
(-0.00060551 0.00207233 0)
(-0.00174143 0.00393686 0)
(-0.00336959 0.00594785 0)
(-0.00542478 0.00800733 0)
(-0.00786934 0.0100552 0)
(-0.0106705 0.0120607 0)
(-0.0138029 0.0140136 0)
(-0.01725 0.0159175 0)
(-0.0210019 0.0177827 0)
(-0.0250539 0.0196217 0)
(-0.0294045 0.0214454 0)
(-0.0340536 0.0232606 0)
(-0.0390004 0.0250688 0)
(-0.0442424 0.026865 0)
(-0.0497734 0.0286378 0)
(-0.0555834 0.0303699 0)
(-0.0616572 0.0320387 0)
(-0.0679741 0.0336169 0)
(-0.0745081 0.035074 0)
(-0.0812275 0.0363767 0)
(-0.0880953 0.0374904 0)
(-0.0950697 0.0383803 0)
(-0.102105 0.0390121 0)
(-0.10915 0.0393532 0)
(-0.116154 0.0393737 0)
(-0.123061 0.0390471 0)
(-0.129816 0.0383512 0)
(-0.136363 0.0372687 0)
(-0.142646 0.0357878 0)
(-0.14861 0.0339023 0)
(-0.154203 0.0316121 0)
(-0.159373 0.0289234 0)
(-0.164071 0.0258484 0)
(-0.168253 0.0224052 0)
(-0.171876 0.0186183 0)
(-0.174899 0.0145174 0)
(-0.177288 0.0101381 0)
(-0.179009 0.00552103 0)
(-0.180035 0.000711849 0)
(-0.18034 -0.00423956 0)
(-0.179906 -0.00927826 0)
(-0.178717 -0.0143459 0)
(-0.176763 -0.0193806 0)
(-0.174041 -0.0243177 0)
(-0.170554 -0.0290905 0)
(-0.166311 -0.0336307 0)
(-0.161331 -0.03787 0)
(-0.15564 -0.0417408 0)
(-0.149275 -0.045178 0)
(-0.142281 -0.04812 0)
(-0.134714 -0.0505111 0)
(-0.12664 -0.0523027 0)
(-0.118137 -0.0534557 0)
(-0.109289 -0.0539416 0)
(-0.100193 -0.053745 0)
(-0.0909503 -0.0528643 0)
(-0.0816683 -0.051313 0)
(-0.0724582 -0.0491201 0)
(-0.0634313 -0.0463301 0)
(-0.0546968 -0.043002 0)
(-0.0463582 -0.0392084 0)
(-0.038511 -0.0350329 0)
(-0.0312391 -0.0305682 0)
(-0.0246131 -0.025913 0)
(-0.0186878 -0.0211691 0)
(-0.0135011 -0.0164389 0)
(-0.00907317 -0.0118228 0)
(-0.0054059 -0.0074174 0)
(-0.00248369 -0.0033144 0)
(-0.000273936 0.000399549 0)
(0.00127184 0.00364221 0)
(0.00221684 0.00633421 0)
(0.00263781 0.00839689 0)
(0.00262422 0.00974955 0)
(0.0022778 0.0103065 0)
(0.00171124 0.0099744 0)
(0.00104688 0.00864953 0)
(0.000435849 0.00621651 0)
(8.27861e-05 0.00254079 0)
(-0.000108024 0.000851455 0)
(-0.000739588 0.00303077 0)
(-0.00209925 0.00544602 0)
(-0.00402412 0.00794527 0)
(-0.0064272 0.0104389 0)
(-0.00925828 0.012877 0)
(-0.0124752 0.0152394 0)
(-0.0160463 0.0175261 0)
(-0.0199513 0.0197491 0)
(-0.0241782 0.0219255 0)
(-0.0287218 0.0240724 0)
(-0.0335801 0.026203 0)
(-0.0387528 0.0283246 0)
(-0.0442387 0.0304372 0)
(-0.0500345 0.032533 0)
(-0.0561326 0.0345965 0)
(-0.062521 0.0366055 0)
(-0.069182 0.038532 0)
(-0.0760924 0.040343 0)
(-0.0832228 0.0420024 0)
(-0.0905386 0.0434714 0)
(-0.0979996 0.0447105 0)
(-0.105561 0.0456803 0)
(-0.113175 0.0463427 0)
(-0.120789 0.0466622 0)
(-0.128348 0.0466066 0)
(-0.135798 0.0461482 0)
(-0.143082 0.0452643 0)
(-0.150144 0.0439377 0)
(-0.156928 0.0421575 0)
(-0.163379 0.039919 0)
(-0.169445 0.037224 0)
(-0.175076 0.0340809 0)
(-0.180223 0.0305044 0)
(-0.18484 0.0265155 0)
(-0.188884 0.0221414 0)
(-0.192314 0.017415 0)
(-0.195094 0.0123751 0)
(-0.197189 0.00706585 0)
(-0.198566 0.00153644 0)
(-0.1992 -0.00415906 0)
(-0.199065 -0.00996151 0)
(-0.198143 -0.0158077 0)
(-0.196418 -0.0216303 0)
(-0.193881 -0.0273587 0)
(-0.190529 -0.0329193 0)
(-0.186365 -0.0382364 0)
(-0.181399 -0.0432334 0)
(-0.175653 -0.0478337 0)
(-0.169155 -0.0519622 0)
(-0.161945 -0.055547 0)
(-0.154074 -0.0585214 0)
(-0.145605 -0.0608261 0)
(-0.136611 -0.0624108 0)
(-0.127178 -0.0632371 0)
(-0.117404 -0.0632803 0)
(-0.107394 -0.0625312 0)
(-0.097264 -0.0609981 0)
(-0.0871336 -0.0587068 0)
(-0.0771262 -0.0557019 0)
(-0.0673645 -0.0520458 0)
(-0.0579674 -0.0478171 0)
(-0.0490462 -0.0431095 0)
(-0.0407013 -0.0380279 0)
(-0.033019 -0.0326861 0)
(-0.0260688 -0.0272031 0)
(-0.0199018 -0.0216994 0)
(-0.0145491 -0.0162943 0)
(-0.0100216 -0.0111033 0)
(-0.00631026 -0.00623651 0)
(-0.00338667 -0.00179796 0)
(-0.00120451 0.00211391 0)
(0.000299131 0.00540482 0)
(0.00120224 0.00798237 0)
(0.00159666 0.00975309 0)
(0.00158721 0.0106191 0)
(0.00128995 0.0104748 0)
(0.000830547 0.00920421 0)
(0.000359464 0.00667923 0)
(7.11829e-05 0.00275231 0)
(-0.000130943 0.00126324 0)
(-0.000878145 0.00416996 0)
(-0.00246781 0.00721924 0)
(-0.00469654 0.0102687 0)
(-0.00745457 0.013242 0)
(-0.0106786 0.016104 0)
(-0.0143169 0.018849 0)
(-0.0183312 0.0214899 0)
(-0.0226973 0.0240497 0)
(-0.0274014 0.0265535 0)
(-0.0324372 0.0290238 0)
(-0.0378026 0.0314767 0)
(-0.0434966 0.0339196 0)
(-0.0495178 0.0363509 0)
(-0.0558616 0.0387592 0)
(-0.0625191 0.0411246 0)
(-0.0694761 0.0434196 0)
(-0.0767128 0.0456103 0)
(-0.084203 0.0476579 0)
(-0.0919148 0.0495204 0)
(-0.0998108 0.0511536 0)
(-0.107848 0.0525132 0)
(-0.11598 0.0535557 0)
(-0.124156 0.0542396 0)
(-0.132322 0.0545268 0)
(-0.140425 0.0543836 0)
(-0.148406 0.0537813 0)
(-0.156211 0.052697 0)
(-0.163782 0.0511142 0)
(-0.171064 0.049023 0)
(-0.178005 0.0464203 0)
(-0.184551 0.0433096 0)
(-0.190652 0.0397014 0)
(-0.19626 0.0356127 0)
(-0.201329 0.031067 0)
(-0.205816 0.0260938 0)
(-0.209678 0.0207287 0)
(-0.212877 0.0150132 0)
(-0.215377 0.00899416 0)
(-0.217145 0.00272405 0)
(-0.218148 -0.00373965 0)
(-0.21836 -0.0103342 0)
(-0.217757 -0.0169921 0)
(-0.21632 -0.0236415 0)
(-0.214031 -0.0302061 0)
(-0.210883 -0.0366063 0)
(-0.206871 -0.0427592 0)
(-0.201998 -0.0485802 0)
(-0.196277 -0.0539835 0)
(-0.189728 -0.0588841 0)
(-0.182384 -0.0631989 0)
(-0.174287 -0.0668497 0)
(-0.165495 -0.0697643 0)
(-0.156076 -0.0718801 0)
(-0.146114 -0.0731463 0)
(-0.135705 -0.0735266 0)
(-0.124958 -0.0730015 0)
(-0.113993 -0.0715708 0)
(-0.102939 -0.0692551 0)
(-0.0919316 -0.0660963 0)
(-0.0811069 -0.0621579 0)
(-0.0706004 -0.0575237 0)
(-0.0605415 -0.052296 0)
(-0.0510493 -0.0465925 0)
(-0.0422286 -0.0405426 0)
(-0.0341667 -0.0342835 0)
(-0.0269307 -0.0279561 0)
(-0.0205653 -0.0217007 0)
(-0.0150929 -0.0156543 0)
(-0.0105125 -0.00994774 0)
(-0.00680174 -0.00470494 0)
(-0.00391721 -4.2682e-05 0)
(-0.00179693 0.00392802 0)
(-0.000361962 0.0070996 0)
(0.000481867 0.00936483 0)
(0.000842467 0.0106131 0)
(0.000839437 0.010727 0)
(0.000602026 0.009579 0)
(0.000280452 0.0070303 0)
(5.97517e-05 0.00292374 0)
(-0.000154529 0.00174791 0)
(-0.00101982 0.00549425 0)
(-0.00284331 0.00926182 0)
(-0.00537976 0.0129234 0)
(-0.00849593 0.0164214 0)
(-0.0121151 0.0197401 0)
(-0.0161757 0.022892 0)
(-0.020633 0.0259066 0)
(-0.0254588 0.0288195 0)
(-0.0306374 0.0316657 0)
(-0.0361614 0.0344737 0)
(-0.0420283 0.0372626 0)
(-0.0482367 0.0400402 0)
(-0.0547843 0.0428025 0)
(-0.0616655 0.0455344 0)
(-0.0688697 0.0482112 0)
(-0.0763809 0.0507993 0)
(-0.0841767 0.0532589 0)
(-0.0922286 0.0555451 0)
(-0.100502 0.0576101 0)
(-0.108958 0.0594046 0)
(-0.11755 0.0608797 0)
(-0.126231 0.0619878 0)
(-0.134948 0.0626849 0)
(-0.143647 0.0629306 0)
(-0.152272 0.06269 0)
(-0.160768 0.0619339 0)
(-0.169077 0.0606396 0)
(-0.177145 0.0587913 0)
(-0.184915 0.0563804 0)
(-0.192335 0.053405 0)
(-0.199354 0.0498707 0)
(-0.20592 0.0457897 0)
(-0.211987 0.0411811 0)
(-0.217508 0.0360705 0)
(-0.222439 0.0304895 0)
(-0.226738 0.024476 0)
(-0.230366 0.0180738 0)
(-0.233286 0.0113321 0)
(-0.235461 0.00430598 0)
(-0.23686 -0.00294434 0)
(-0.237451 -0.0103531 0)
(-0.237208 -0.0178494 0)
(-0.236106 -0.0253573 0)
(-0.234124 -0.0327961 0)
(-0.231246 -0.0400807 0)
(-0.227461 -0.047122 0)
(-0.222764 -0.0538278 0)
(-0.217157 -0.0601039 0)
(-0.210653 -0.0658551 0)
(-0.203273 -0.0709873 0)
(-0.19505 -0.0754095 0)
(-0.186033 -0.0790362 0)
(-0.176282 -0.0817905 0)
(-0.165875 -0.0836067 0)
(-0.154905 -0.0844344 0)
(-0.14348 -0.0842407 0)
(-0.131724 -0.0830139 0)
(-0.119772 -0.0807653 0)
(-0.10777 -0.0775314 0)
(-0.0958676 -0.0733739 0)
(-0.0842189 -0.0683793 0)
(-0.0729723 -0.0626573 0)
(-0.0622683 -0.0563375 0)
(-0.0522334 -0.0495655 0)
(-0.0429759 -0.042498 0)
(-0.0345825 -0.035298 0)
(-0.0271152 -0.0281296 0)
(-0.0206106 -0.0211539 0)
(-0.0150788 -0.0145258 0)
(-0.0105049 -0.00839179 0)
(-0.00685027 -0.00288977 0)
(-0.00405459 0.00185031 0)
(-0.00203841 0.00570398 0)
(-0.000705326 0.00854902 0)
(5.58709e-05 0.0102616 0)
(0.000368745 0.0107121 0)
(0.000366782 0.00976266 0)
(0.000201055 0.00726497 0)
(4.89105e-05 0.00305475 0)
(-0.000178529 0.00230679 0)
(-0.00116306 0.00700604 0)
(-0.00322163 0.0115761 0)
(-0.00606624 0.0159112 0)
(-0.00953977 0.0199777 0)
(-0.013552 0.0237845 0)
(-0.0180314 0.0273668 0)