/*--------------------------------*- C++ -*----------------------------------*\
  =========                 |
  \\      /  F ield         | OpenFOAM: The Open Source CFD Toolbox
   \\    /   O peration     | Website:  https://openfoam.org
    \\  /    A nd           | Version:  7
     \\/     M anipulation  |
\*---------------------------------------------------------------------------*/
FoamFile
{
    version     2.0;
    format      ascii;
    class       volVectorField;
    location    "1.775";
    object      U;
}
// * * * * * * * * * * * * * * * * * * * * * * * * * * * * * * * * * * * * * //

dimensions      [0 1 -1 0 0 0 0];

internalField   nonuniform List<vector> 
6400
(
(1.15451e-05 -1.10961e-05 0)
(4.90402e-05 -2.32814e-05 0)
(9.95403e-05 -2.34792e-05 0)
(0.000137969 -1.69449e-05 0)
(0.00015167 -7.63625e-06 0)
(0.00013636 2.37783e-06 0)
(9.13585e-05 1.20408e-05 0)
(1.78564e-05 2.08742e-05 0)
(-8.19627e-05 2.87186e-05 0)
(-0.000205543 3.55753e-05 0)
(-0.000350308 4.15294e-05 0)
(-0.000513866 4.67062e-05 0)
(-0.000694097 5.12412e-05 0)
(-0.000889198 5.52634e-05 0)
(-0.00109766 5.88877e-05 0)
(-0.00131825 6.22074e-05 0)
(-0.00154992 6.52913e-05 0)
(-0.00179178 6.81845e-05 0)
(-0.00204302 7.09073e-05 0)
(-0.00230283 7.34581e-05 0)
(-0.00257036 7.58158e-05 0)
(-0.00284467 7.79432e-05 0)
(-0.00312466 7.97892e-05 0)
(-0.00340907 8.12913e-05 0)
(-0.00369642 8.23796e-05 0)
(-0.00398503 8.29794e-05 0)
(-0.00427297 8.30134e-05 0)
(-0.00455809 8.24039e-05 0)
(-0.004838 8.10759e-05 0)
(-0.00511014 7.89588e-05 0)
(-0.00537174 7.59893e-05 0)
(-0.00561985 7.21133e-05 0)
(-0.00585146 6.72887e-05 0)
(-0.00606342 6.14868e-05 0)
(-0.00625261 5.46953e-05 0)
(-0.00641591 4.69199e-05 0)
(-0.00655029 3.81869e-05 0)
(-0.00665289 2.85441e-05 0)
(-0.00672106 1.80628e-05 0)
(-0.00675246 6.83813e-06 0)
(-0.00674512 -5.013e-06 0)
(-0.00669747 -1.73476e-05 0)
(-0.00660847 -3.00013e-05 0)
(-0.00647765 -4.279e-05 0)
(-0.0063051 -5.55125e-05 0)
(-0.0060916 -6.79549e-05 0)
(-0.00583858 -7.98945e-05 0)
(-0.00554817 -9.11054e-05 0)
(-0.00522317 -0.000101364 0)
(-0.00486705 -0.000110458 0)
(-0.00448389 -0.000118187 0)
(-0.00407834 -0.000124375 0)
(-0.00365551 -0.000128873 0)
(-0.00322094 -0.000131567 0)
(-0.00278042 -0.00013238 0)
(-0.00233994 -0.000131274 0)
(-0.00190551 -0.000128257 0)
(-0.00148309 -0.000123379 0)
(-0.00107839 -0.000116732 0)
(-0.000696824 -0.000108449 0)
(-0.000343335 -9.86956e-05 0)
(-2.23291e-05 -8.76706e-05 0)
(0.000262423 -7.55947e-05 0)
(0.000507857 -6.2705e-05 0)
(0.000711667 -4.9252e-05 0)
(0.000872336 -3.54898e-05 0)
(0.000989167 -2.16734e-05 0)
(0.00106229 -8.05622e-06 0)
(0.00109267 5.10816e-06 0)
(0.00108213 1.75605e-05 0)
(0.00103339 2.9026e-05 0)
(0.00095014 3.91895e-05 0)
(0.000837157 4.76648e-05 0)
(0.000700527 5.39402e-05 0)
(0.000547989 5.72981e-05 0)
(0.000389424 5.67226e-05 0)
(0.000237389 5.08297e-05 0)
(0.0001075 3.7827e-05 0)
(1.90392e-05 1.64593e-05 0)
(-6.08283e-06 -6.05044e-06 0)
(2.38827e-05 -4.86343e-05 0)
(8.76552e-05 -8.66065e-05 0)
(0.000157297 -7.75214e-05 0)
(0.000190382 -4.05331e-05 0)
(0.000163371 1.02945e-05 0)
(6.6043e-05 6.62295e-05 0)
(-0.000104883 0.000122106 0)
(-0.000348248 0.000175085 0)
(-0.000660202 0.000223792 0)
(-0.00103554 0.000267755 0)
(-0.00146858 0.000307046 0)
(-0.00195369 0.00034204 0)
(-0.00248567 0.000373255 0)
(-0.00305983 0.000401242 0)
(-0.00367206 0.000426516 0)
(-0.00431878 0.000449512 0)
(-0.00499681 0.000470553 0)
(-0.00570329 0.000489842 0)
(-0.00643547 0.000507462 0)
(-0.0071906 0.000523376 0)
(-0.00796581 0.000537443 0)
(-0.00875792 0.000549427 0)
(-0.0095634 0.000559021 0)
(-0.0103783 0.000565855 0)
(-0.011198 0.000569521 0)
(-0.0120176 0.000569584 0)
(-0.0128313 0.000565603 0)
(-0.013633 0.000557143 0)
(-0.014416 0.000543792 0)
(-0.015173 0.000525176 0)
(-0.0158964 0.000500974 0)
(-0.0165782 0.00047093 0)
(-0.0172103 0.000434866 0)
(-0.0177843 0.000392696 0)
(-0.0182919 0.00034444 0)
(-0.018725 0.000290227 0)
(-0.019076 0.000230313 0)
(-0.0193375 0.000165082 0)
(-0.0195029 9.50521e-05 0)
(-0.0195665 2.08775e-05 0)
(-0.0195236 -5.66602e-05 0)
(-0.0193707 -0.000136643 0)
(-0.0191056 -0.000218042 0)
(-0.0187275 -0.000299723 0)
(-0.0182374 -0.00038047 0)
(-0.0176377 -0.000459004 0)
(-0.0169327 -0.000534011 0)
(-0.0161282 -0.000604173 0)
(-0.0152321 -0.000668199 0)
(-0.0142536 -0.00072486 0)
(-0.0132035 -0.000773023 0)
(-0.012094 -0.000811683 0)
(-0.0109385 -0.000839998 0)
(-0.00975144 -0.000857317 0)
(-0.00854781 -0.000863201 0)
(-0.00734312 -0.000857442 0)
(-0.00615299 -0.000840074 0)
(-0.00499283 -0.000811376 0)
(-0.00387754 -0.000771867 0)
(-0.00282124 -0.000722295 0)
(-0.00183693 -0.000663615 0)
(-0.000936269 -0.000596967 0)
(-0.000129318 -0.000523644 0)
(0.000575631 -0.000445058 0)
(0.00117222 -0.000362712 0)
(0.00165617 -0.000278174 0)
(0.00202532 -0.000193047 0)
(0.00227974 -0.000108969 0)
(0.0024218 -2.76093e-05 0)
(0.00245622 4.93053e-05 0)
(0.00239017 0.000119942 0)
(0.00223347 0.000182278 0)
(0.00199882 0.000233989 0)
(0.00170214 0.000272282 0)
(0.00136308 0.00029371 0)
(0.00100547 0.000294034 0)
(0.000657367 0.00026834 0)
(0.000350286 0.000211621 0)
(0.000121826 0.000122066 0)
(1.62632e-05 1.89247e-05 0)
(2.44443e-05 -0.000100472 0)
(7.91066e-05 -0.000156795 0)
(0.00011635 -0.000115863 0)
(8.91293e-05 -1.57205e-05 0)
(-2.94212e-05 0.000116599 0)
(-0.000252035 0.000262574 0)
(-0.000583324 0.00041023 0)
(-0.0010223 0.000552355 0)
(-0.00156429 0.000685011 0)
(-0.00220257 0.000806467 0)
(-0.00292947 0.000916412 0)
(-0.00373719 0.00101539 0)
(-0.00461824 0.00110438 0)
(-0.00556569 0.00118457 0)
(-0.00657324 0.00125707 0)
(-0.00763523 0.00132285 0)
(-0.00874644 0.00138265 0)
(-0.00990201 0.00143689 0)
(-0.0110972 0.00148573 0)
(-0.0123271 0.001529 0)
(-0.0135866 0.00156629 0)
(-0.0148702 0.00159696 0)
(-0.0161719 0.00162017 0)
(-0.0174848 0.00163493 0)
(-0.0188013 0.00164016 0)
(-0.020113 0.00163472 0)
(-0.0214109 0.00161746 0)
(-0.0226848 0.00158728 0)
(-0.0239241 0.00154314 0)
(-0.0251173 0.00148411 0)
(-0.0262526 0.00140942 0)
(-0.0273176 0.00131852 0)
(-0.0282997 0.00121103 0)
(-0.0291864 0.00108687 0)
(-0.0299651 0.000946232 0)
(-0.0306238 0.000789615 0)
(-0.031151 0.000617849 0)
(-0.0315363 0.000432109 0)
(-0.0317701 0.000233918 0)
(-0.0318443 2.51467e-05 0)
(-0.0317524 -0.000191992 0)
(-0.0314897 -0.00041497 0)
(-0.0310537 -0.000640972 0)
(-0.0304439 -0.000866933 0)
(-0.0296622 -0.00108959 0)
(-0.0287128 -0.00130554 0)
(-0.0276028 -0.00151132 0)
(-0.0263414 -0.00170345 0)
(-0.0249405 -0.00187857 0)
(-0.0234143 -0.00203347 0)
(-0.0217791 -0.00216522 0)
(-0.0200532 -0.0022712 0)
(-0.0182568 -0.00234924 0)
(-0.0164112 -0.00239765 0)
(-0.0145389 -0.00241529 0)
(-0.012663 -0.00240161 0)
(-0.0108067 -0.00235669 0)
(-0.00899305 -0.00228122 0)
(-0.00724437 -0.00217654 0)
(-0.00558182 -0.00204458 0)
(-0.00402504 -0.0018878 0)
(-0.00259175 -0.00170918 0)
(-0.00129735 -0.00151212 0)
(-0.000154686 -0.00130037 0)
(0.000826261 -0.00107794 0)
(0.00163855 -0.000849073 0)
(0.00227848 -0.000618155 0)
(0.00274568 -0.000389703 0)
(0.00304329 -0.000168366 0)
(0.00317806 4.10302e-05 0)
(0.00316047 0.000233388 0)
(0.00300497 0.0004032 0)
(0.00273021 0.000544343 0)
(0.00235932 0.000649849 0)
(0.00192029 0.000711713 0)
(0.00144623 0.000720921 0)
(0.000974716 0.000668084 0)
(0.000546427 0.000545148 0)
(0.000211694 0.00035047 0)
(3.75281e-05 0.000106997 0)
(1.79851e-05 -0.000140305 0)
(4.0212e-05 -0.000188979 0)
(8.83529e-06 -8.74541e-05 0)
(-0.00011893 0.000106345 0)
(-0.000368491 0.000351978 0)
(-0.000752481 0.000620698 0)
(-0.00127523 0.000893058 0)
(-0.00193516 0.00115678 0)
(-0.00272674 0.0014048 0)
(-0.00364204 0.00163367 0)
(-0.00467199 0.00184239 0)
(-0.00580716 0.00203152 0)
(-0.00703837 0.00220245 0)
(-0.0083569 0.00235694 0)
(-0.00975467 0.00249676 0)
(-0.0112242 0.00262342 0)
(-0.0127583 0.00273806 0)
(-0.0143503 0.0028413 0)
(-0.0159933 0.00293327 0)
(-0.0176805 0.0030136 0)
(-0.0194044 0.00308146 0)
(-0.0211571 0.00313558 0)
(-0.0229298 0.0031744 0)
(-0.0247129 0.00319611 0)
(-0.026496 0.0031987 0)
(-0.0282673 0.00318013 0)
(-0.0300143 0.00313832 0)
(-0.0317235 0.00307131 0)
(-0.0333805 0.00297729 0)
(-0.0349703 0.00285468 0)
(-0.0364769 0.00270221 0)
(-0.0378845 0.00251899 0)
(-0.0391767 0.00230457 0)
(-0.0403374 0.00205897 0)
(-0.0413507 0.00178275 0)
(-0.0422014 0.00147706 0)
(-0.0428752 0.00114364 0)
(-0.0433592 0.000784861 0)
(-0.0436418 0.000403714 0)
(-0.0437133 3.81948e-06 0)
(-0.0435661 -0.000410598 0)
(-0.043195 -0.000834784 0)
(-0.0425973 -0.00126348 0)
(-0.0417733 -0.00169099 0)
(-0.0407259 -0.00211132 0)
(-0.0394613 -0.00251823 0)
(-0.0379888 -0.0029054 0)
(-0.0363205 -0.00326654 0)
(-0.0344719 -0.00359555 0)
(-0.0324612 -0.00388663 0)
(-0.0303091 -0.0041345 0)
(-0.0280391 -0.00433446 0)
(-0.0256764 -0.00448257 0)
(-0.0232482 -0.0045758 0)
(-0.0207828 -0.00461206 0)
(-0.0183093 -0.00459034 0)
(-0.0158571 -0.00451073 0)
(-0.0134554 -0.00437444 0)
(-0.0111326 -0.00418383 0)
(-0.00891566 -0.00394232 0)
(-0.0068298 -0.00365435 0)
(-0.00489788 -0.00332528 0)
(-0.00313997 -0.00296127 0)
(-0.00157299 -0.00256918 0)
(-0.000210284 -0.00215639 0)
(0.000938602 -0.00173076 0)
(0.00186821 -0.00130047 0)
(0.00257734 -0.000874006 0)
(0.00306928 -0.000460125 0)
(0.0033519 -6.79162e-05 0)
(0.00343787 0.000293082 0)
(0.00334479 0.000612712 0)
(0.00309542 0.000879953 0)
(0.00271783 0.0010827 0)
(0.00224564 0.00120763 0)
(0.0017181 0.00124043 0)
(0.00117913 0.00116681 0)
(0.00067619 0.000974702 0)
(0.000270661 0.000659359 0)
(5.0735e-05 0.000236938 0)
(7.98009e-06 -0.000153665 0)
(-1.7152e-05 -0.000154578 0)
(-0.000143338 4.24668e-05 0)
(-0.000402238 0.000361771 0)
(-0.000814134 0.000750448 0)
(-0.00138945 0.00117019 0)
(-0.00213073 0.00159443 0)
(-0.00303487 0.00200595 0)
(-0.00409501 0.00239448 0)
(-0.00530201 0.00275474 0)
(-0.00664551 0.00308494 0)
(-0.00811481 0.00338551 0)
(-0.00969932 0.00365816 0)
(-0.0113889 0.00390518 0)
(-0.013174 0.00412888 0)
(-0.0150454 0.00433127 0)
(-0.0169944 0.00451377 0)
(-0.0190124 0.00467713 0)
(-0.0210906 0.00482133 0)
(-0.0232201 0.00494562 0)
(-0.0253911 0.0050486 0)
(-0.0275934 0.00512823 0)
(-0.0298157 0.00518205 0)
(-0.0320455 0.00520721 0)
(-0.0342693 0.00520066 0)
(-0.0364727 0.00515926 0)
(-0.0386397 0.00507991 0)
(-0.0407537 0.00495968 0)
(-0.0427969 0.00479593 0)
(-0.044751 0.0045864 0)
(-0.0465968 0.00432937 0)
(-0.0483151 0.0040237 0)
(-0.0498865 0.00366895 0)
(-0.051292 0.00326546 0)
(-0.052513 0.0028144 0)
(-0.0535318 0.00231782 0)
(-0.0543321 0.00177872 0)
(-0.054899 0.00120102 0)
(-0.0552195 0.000589613 0)
(-0.0552829 -4.97106e-05 0)
(-0.055081 -0.000710263 0)
(-0.0546084 -0.00138456 0)
(-0.0538627 -0.0020644 0)
(-0.0528446 -0.00274099 0)
(-0.0515585 -0.00340506 0)
(-0.0500121 -0.00404706 0)
(-0.0482165 -0.00465734 0)
(-0.0461865 -0.0052263 0)
(-0.0439403 -0.00574468 0)
(-0.0414994 -0.00620369 0)
(-0.0388881 -0.00659528 0)
(-0.0361337 -0.00691235 0)
(-0.0332659 -0.00714892 0)
(-0.0303161 -0.00730031 0)
(-0.0273174 -0.00736333 0)
(-0.024304 -0.00733636 0)
(-0.0213101 -0.00721945 0)
(-0.0183699 -0.00701435 0)
(-0.015517 -0.00672451 0)
(-0.0127833 -0.00635503 0)
(-0.0101988 -0.00591259 0)
(-0.0077909 -0.00540529 0)
(-0.00558382 -0.00484249 0)
(-0.00359825 -0.00423468 0)
(-0.00185083 -0.00359325 0)
(-0.000353734 -0.00293037 0)
(0.000885578 -0.00225877 0)
(0.00186466 -0.00159174 0)
(0.00258631 -0.000943001 0)
(0.00305872 -0.000326793 0)
(0.0032957 0.00024205 0)
(0.00331674 0.0007479 0)
(0.00314721 0.00117413 0)
(0.0028184 0.0015029 0)
(0.00236766 0.00171512 0)
(0.00183845 0.00179079 0)
(0.0012794 0.00171001 0)
(0.000743537 0.00145508 0)
(0.000301485 0.00101444 0)
(5.73268e-05 0.000390733 0)
(-3.8459e-06 -0.000133392 0)
(-8.58531e-05 -3.61103e-05 0)
(-0.000325406 0.000297469 0)
(-0.000738448 0.000777182 0)
(-0.00133727 0.00133943 0)
(-0.00212833 0.00193755 0)
(-0.00311101 0.00253874 0)
(-0.00427974 0.00312135 0)
(-0.00562577 0.00367221 0)
(-0.00713842 0.00418442 0)
(-0.00880604 0.00465542 0)
(-0.0106167 0.00508553 0)
(-0.0125586 0.00547672 0)
(-0.0146204 0.00583174 0)
(-0.0167911 0.00615336 0)
(-0.0190604 0.00644397 0)
(-0.0214178 0.00670516 0)
(-0.0238531 0.00693764 0)
(-0.0263557 0.0071411 0)
(-0.0289147 0.00731427 0)
(-0.0315182 0.00745498 0)
(-0.0341535 0.00756028 0)
(-0.0368069 0.00762662 0)
(-0.0394632 0.00764999 0)
(-0.0421064 0.00762615 0)
(-0.0447189 0.00755078 0)
(-0.0472821 0.00741966 0)
(-0.0497761 0.00722886 0)
(-0.0521804 0.0069749 0)
(-0.0544736 0.00665491 0)
(-0.0566338 0.00626675 0)
(-0.058639 0.0058092 0)
(-0.0604673 0.00528198 0)
(-0.0620971 0.00468595 0)
(-0.0635079 0.00402313 0)
(-0.06468 0.00329676 0)
(-0.0655955 0.0025114 0)
(-0.0662381 0.00167287 0)
(-0.0665939 0.000788283 0)
(-0.0666515 -0.000134011 0)
(-0.0664023 -0.00108449 0)
(-0.0658407 -0.00205257 0)
(-0.0649649 -0.00302671 0)
(-0.0637761 -0.00399463 0)
(-0.0622796 -0.00494343 0)
(-0.0604844 -0.00585988 0)
(-0.0584034 -0.00673061 0)
(-0.056053 -0.00754241 0)
(-0.0534539 -0.00828248 0)
(-0.0506297 -0.00893874 0)
(-0.0476079 -0.00950009 0)
(-0.0444187 -0.0099567 0)
(-0.0410951 -0.0103003 0)
(-0.0376722 -0.0105243 0)
(-0.0341869 -0.0106243 0)
(-0.0306772 -0.0105979 0)
(-0.0271817 -0.0104449 0)
(-0.0237389 -0.0101676 0)
(-0.0203866 -0.00977061 0)
(-0.0171612 -0.00926069 0)
(-0.0140968 -0.00864692 0)
(-0.0112251 -0.00794038 0)
(-0.00857428 -0.00715396 0)
(-0.00616862 -0.00630217 0)
(-0.00402801 -0.00540088 0)
(-0.00216746 -0.0044671 0)
(-0.00059669 -0.00351876 0)
(0.000680163 -0.0025746 0)
(0.00166483 -0.00165402 0)
(0.0023651 -0.000777113 0)
(0.00279501 3.52884e-05 0)
(0.00297495 0.000761443 0)
(0.00293172 0.00137853 0)
(0.00269859 0.00186249 0)
(0.00231535 0.00218799 0)
(0.00182844 0.00232875 0)
(0.00129012 0.00225837 0)
(0.000758083 0.00195193 0)
(0.000309832 0.00138848 0)
(5.92254e-05 0.000554473 0)
(-1.6608e-05 -7.52472e-05 0)
(-0.00016165 0.000178438 0)
(-0.000527647 0.000694904 0)
(-0.0011119 0.001373 0)
(-0.00191663 0.00214056 0)
(-0.00294291 0.00294419 0)
(-0.00418579 0.00374601 0)
(-0.00563631 0.00452085 0)
(-0.00728322 0.00525326 0)
(-0.00911395 0.00593506 0)
(-0.0111154 0.00656321 0)
(-0.0132742 0.00713801 0)
(-0.0155777 0.00766177 0)
(-0.0180132 0.00813762 0)
(-0.0205688 0.00856874 0)
(-0.0232326 0.00895774 0)
(-0.025993 0.00930628 0)
(-0.0288382 0.00961485 0)
(-0.031756 0.0098827 0)
(-0.0347334 0.0101078 0)
(-0.0377566 0.0102872 0)
(-0.0408107 0.0104167 0)
(-0.0438795 0.0104916 0)
(-0.0469457 0.0105066 0)
(-0.0499903 0.0104562 0)
(-0.0529934 0.0103348 0)
(-0.0559334 0.010137 0)
(-0.0587882 0.00985795 0)
(-0.0615343 0.00949335 0)
(-0.0641478 0.00903977 0)
(-0.0666046 0.00849482 0)
(-0.0688803 0.00785728 0)
(-0.0709508 0.00712726 0)
(-0.0727927 0.00630634 0)
(-0.0743837 0.00539761 0)
(-0.0757027 0.00440579 0)
(-0.0767304 0.00333723 0)
(-0.0774497 0.00219994 0)
(-0.0778458 0.00100354 0)
(-0.0779068 -0.000240785 0)
(-0.0776238 -0.00152038 0)
(-0.0769914 -0.00282128 0)
(-0.0760077 -0.00412835 0)
(-0.0746745 -0.00542551 0)
(-0.0729978 -0.006696 0)
(-0.0709872 -0.00792262 0)
(-0.0686569 -0.00908803 0)
(-0.0660248 -0.0101751 0)
(-0.0631128 -0.0111673 0)
(-0.0599467 -0.012049 0)
(-0.0565558 -0.0128057 0)
(-0.0529728 -0.0134246 0)
(-0.0492333 -0.0138949 0)
(-0.0453751 -0.014208 0)
(-0.0414384 -0.0143579 0)
(-0.0374646 -0.0143411 0)
(-0.0334957 -0.0141573 0)
(-0.0295741 -0.013809 0)
(-0.0257415 -0.0133019 0)
(-0.0220382 -0.0126445 0)
(-0.0185025 -0.0118483 0)
(-0.01517 -0.0109275 0)
(-0.0120727 -0.00989866 0)
(-0.00923859 -0.00878064 0)
(-0.00669099 -0.00759412 0)
(-0.00444792 -0.00636142 0)
(-0.00252171 -0.00510615 0)
(-0.000918643 -0.00385305 0)
(0.000361408 -0.00262777 0)
(0.00132519 -0.00145685 0)
(0.00198624 -0.000367708 0)
(0.00236498 0.00061124 0)
(0.0024888 0.00145047 0)
(0.00239201 0.0021192 0)
(0.00211598 0.00258534 0)
(0.00170923 0.00281573 0)
(0.0012268 0.00277662 0)
(0.000730072 0.00243468 0)
(0.000301017 0.00175828 0)
(5.79022e-05 0.000717583 0)
(-2.9881e-05 2.35023e-05 0)
(-0.000242031 0.000497391 0)
(-0.000743674 0.00124746 0)
(-0.00151164 0.00216469 0)
(-0.00253669 0.00317066 0)
(-0.00381334 0.00420704 0)
(-0.00533133 0.00523236 0)
(-0.00707755 0.006219 0)
(-0.00903768 0.00715009 0)
(-0.0111969 0.00801678 0)
(-0.0135402 0.0088159 0)
(-0.0160532 0.00954803 0)
(-0.0187217 0.0102159 0)
(-0.0215322 0.010823 0)
(-0.0244717 0.0113729 0)
(-0.0275272 0.0118684 0)
(-0.0306858 0.0123109 0)
(-0.0339344 0.0127007 0)
(-0.0372591 0.0130364 0)
(-0.0406452 0.013315 0)
(-0.0440771 0.0135325 0)
(-0.0475378 0.0136834 0)
(-0.051009 0.0137618 0)
(-0.054471 0.013761 0)
(-0.0579025 0.0136741 0)
(-0.0612812 0.0134941 0)
(-0.0645833 0.0132147 0)
(-0.0677842 0.01283 0)
(-0.0708581 0.0123349 0)
(-0.0737792 0.0117256 0)
(-0.0765211 0.0109996 0)
(-0.0790575 0.0101558 0)
(-0.0813627 0.0091949 0)
(-0.0834117 0.00811938 0)
(-0.0851809 0.00693364 0)
(-0.0866478 0.00564406 0)
(-0.0877924 0.004259 0)
(-0.0885966 0.00278887 0)
(-0.0890449 0.00124602 0)
(-0.0891251 -0.000355337 0)
(-0.0888279 -0.00199923 0)
(-0.0881476 -0.0036681 0)
(-0.0870823 -0.00534306 0)
(-0.0856341 -0.00700405 0)
(-0.0838089 -0.00863025 0)
(-0.081617 -0.0102003 0)
(-0.0790731 -0.0116927 0)
(-0.0761957 -0.0130863 0)
(-0.0730079 -0.0143604 0)
(-0.0695365 -0.0154956 0)
(-0.0658123 -0.0164739 0)
(-0.0618697 -0.0172793 0)
(-0.0577462 -0.0178981 0)
(-0.0534822 -0.0183193 0)
(-0.0491202 -0.018535 0)
(-0.0447045 -0.0185408 0)
(-0.0402806 -0.0183355 0)
(-0.0358941 -0.017922 0)
(-0.0315903 -0.0173067 0)
(-0.0274136 -0.0164998 0)
(-0.0234062 -0.0155153 0)
(-0.0196075 -0.0143703 0)
(-0.0160537 -0.0130854 0)
(-0.0127766 -0.0116838 0)
(-0.0098031 -0.0101915 0)
(-0.00715456 -0.00863628 0)
(-0.00484635 -0.0070479 0)
(-0.00288735 -0.00545757 0)
(-0.00127954 -0.00389768 0)
(-1.7825e-05 -0.00240176 0)
(0.000910216 -0.00100432 0)
(0.0015244 0.000259049 0)
(0.00185199 0.00135162 0)
(0.00192769 0.00223538 0)
(0.00179375 0.00287099 0)
(0.00150007 0.00321781 0)
(0.00110371 0.00323406 0)
(0.000668724 0.00287737 0)
(0.000279452 0.00210511 0)
(5.44271e-05 0.000872321 0)
(-4.34747e-05 0.000164614 0)
(-0.000325478 0.000926475 0)
(-0.000969179 0.00196421 0)
(-0.00192987 0.00316368 0)
(-0.00318582 0.00444244 0)
(-0.00472419 0.00573919 0)
(-0.00652864 0.00701043 0)
(-0.00858125 0.00822739 0)
(-0.0108641 0.00937277 0)
(-0.0133597 0.0104378 0)
(-0.0160513 0.0114197 0)
(-0.0189227 0.0123197 0)
(-0.0219587 0.013141 0)
(-0.0251449 0.0138878 0)
(-0.028467 0.0145639 0)
(-0.0319111 0.015172 0)
(-0.0354633 0.0157136 0)
(-0.0391091 0.0161882 0)
(-0.0428332 0.0165937 0)
(-0.0466195 0.0169261 0)
(-0.0504504 0.01718 0)
(-0.0543073 0.0173488 0)
(-0.0581697 0.0174249 0)
(-0.0620159 0.0174003 0)
(-0.0658228 0.0172667 0)
(-0.0695657 0.0170159 0)
(-0.0732188 0.0166402 0)
(-0.0767555 0.0161331 0)
(-0.0801482 0.0154888 0)
(-0.0833691 0.0147031 0)
(-0.0863902 0.0137735 0)
(-0.0891837 0.0126994 0)
(-0.0917224 0.011482 0)
(-0.0939802 0.010125 0)
(-0.0959321 0.00863429 0)
(-0.097555 0.00701795 0)
(-0.0988276 0.00528658 0)
(-0.0997313 0.0034531 0)
(-0.10025 0.00153272 0)
(-0.100371 -0.000457198 0)
(-0.100084 -0.00249725 0)
(-0.0993831 -0.00456622 0)
(-0.0982662 -0.00664131 0)
(-0.0967349 -0.00869842 0)
(-0.094795 -0.0107125 0)
(-0.0924567 -0.012658 0)
(-0.0897345 -0.014509 0)
(-0.0866472 -0.01624 0)
(-0.0832181 -0.0178263 0)
(-0.0794748 -0.0192444 0)
(-0.0754488 -0.0204723 0)
(-0.0711756 -0.0214906 0)
(-0.0666943 -0.0222825 0)
(-0.0620471 -0.0228342 0)
(-0.0572786 -0.0231357 0)
(-0.0524358 -0.0231809 0)
(-0.047567 -0.0229679 0)
(-0.0427213 -0.0224994 0)
(-0.0379477 -0.0217825 0)
(-0.033294 -0.0208288 0)
(-0.0288068 -0.0196545 0)
(-0.0245297 -0.01828 0)
(-0.020503 -0.0167296 0)
(-0.0167626 -0.0150312 0)
(-0.0133394 -0.0132161 0)
(-0.0102586 -0.011318 0)
(-0.00753908 -0.0093732 0)
(-0.00519266 -0.00741968 0)
(-0.00322404 -0.00549709 0)
(-0.00163028 -0.0036464 0)
(-0.000400625 -0.00190974 0)
(0.000483561 -0.000330361 0)
(0.00104888 0.00104729 0)
(0.00132988 0.00217751 0)
(0.00136914 0.00301318 0)
(0.00121735 0.00350568 0)
(0.000932906 0.00360479 0)
(0.00058163 0.00325879 0)
(0.000248543 0.00241435 0)
(4.95409e-05 0.00101313 0)
(-5.72802e-05 0.000349251 0)
(-0.000410977 0.00146961 0)
(-0.0012011 0.00285151 0)
(-0.00236073 0.00437812 0)
(-0.00385501 0.00596515 0)
(-0.00566313 0.00755026 0)
(-0.00776209 0.00908959 0)
(-0.0101287 0.0105546 0)
(-0.012741 0.0119287 0)
(-0.0155786 0.0132041 0)
(-0.0186224 0.014379 0)
(-0.0218549 0.0154556 0)
(-0.0252594 0.0164381 0)
(-0.0288206 0.0173313 0)
(-0.0325232 0.0181393 0)
(-0.0363526 0.0188648 0)
(-0.0402935 0.019509 0)
(-0.0443305 0.0200707 0)
(-0.048447 0.0205469 0)
(-0.0526254 0.0209323 0)
(-0.0568468 0.0212204 0)
(-0.0610906 0.0214028 0)
(-0.0653349 0.0214707 0)
(-0.0695561 0.0214143 0)
(-0.0737291 0.021224 0)
(-0.0778276 0.0208904 0)
(-0.0818241 0.0204048 0)
(-0.0856902 0.0197597 0)
(-0.0893967 0.0189489 0)
(-0.0929143 0.017968 0)
(-0.0962138 0.0168146 0)
(-0.0992659 0.0154885 0)
(-0.102042 0.0139919 0)
(-0.104516 0.0123296 0)
(-0.106661 0.010509 0)
(-0.108454 0.00854016 0)
(-0.109871 0.00643599 0)
(-0.110895 0.00421195 0)
(-0.111507 0.00188613 0)
(-0.111695 -0.000520884 0)
(-0.111447 -0.00298626 0)
(-0.110757 -0.00548506 0)
(-0.109621 -0.00799058 0)
(-0.108042 -0.0104746 0)
(-0.106023 -0.0129079 0)
(-0.103574 -0.0152603 0)
(-0.100709 -0.0175018 0)
(-0.0974461 -0.0196022 0)
(-0.0938091 -0.0215324 0)
(-0.089825 -0.0232646 0)
(-0.0855257 -0.0247728 0)
(-0.0809474 -0.0260336 0)
(-0.0761301 -0.0270265 0)
(-0.0711173 -0.027735 0)
(-0.0659559 -0.0281463 0)
(-0.0606949 -0.0282523 0)
(-0.0553856 -0.02805 0)
(-0.0500802 -0.0275415 0)
(-0.0448313 -0.026734 0)
(-0.039691 -0.0256407 0)
(-0.0347099 -0.0242796 0)
(-0.0299361 -0.0226741 0)
(-0.0254145 -0.0208525 0)
(-0.0211856 -0.0188473 0)
(-0.0172847 -0.0166953 0)
(-0.0137413 -0.0144364 0)
(-0.0105781 -0.0121137 0)
(-0.0078108 -0.00977238 0)
(-0.00544711 -0.00745984 0)
(-0.0034868 -0.00522496 0)
(-0.00192135 -0.00311796 0)
(-0.000733759 -0.00119029 0)
(0.000101423 0.000505403 0)
(0.00061813 0.00191519 0)
(0.000858788 0.00298372 0)
(0.000874411 0.00365396 0)
(0.00072409 0.00386698 0)
(0.000474725 0.00356174 0)
(0.000210818 0.00267476 0)
(4.37451e-05 0.00113606 0)
(-7.12249e-05 0.000578203 0)
(-0.000497778 0.00212938 0)
(-0.00143707 0.0039136 0)
(-0.00279957 0.00581348 0)
(-0.00453691 0.00774501 0)
(-0.00661985 0.00964671 0)
(-0.00901836 0.0114761 0)
(-0.0117035 0.0132064 0)
(-0.0146492 0.0148228 0)
(-0.0178317 0.0163193 0)
(-0.0212296 0.0176961 0)
(-0.0248238 0.0189568 0)
(-0.0285963 0.0201068 0)
(-0.0325305 0.0211517 0)
(-0.0366106 0.0220959 0)
(-0.0408208 0.0229424 0)
(-0.0451452 0.0236916 0)
(-0.0495672 0.0243418 0)
(-0.0540691 0.0248887 0)
(-0.0586322 0.025326 0)
(-0.063236 0.0256453 0)
(-0.0678588 0.025837 0)
(-0.0724769 0.0258905 0)
(-0.0770654 0.0257947 0)
(-0.0815975 0.0255384 0)
(-0.0860456 0.025111 0)
(-0.0903806 0.024503 0)
(-0.0945727 0.0237059 0)
(-0.0985916 0.0227133 0)
(-0.102407 0.0215205 0)
(-0.105988 0.0201255 0)
(-0.109304 0.0185285 0)
(-0.112328 0.0167328 0)
(-0.115029 0.0147444 0)
(-0.117383 0.0125723 0)
(-0.119363 0.0102286 0)
(-0.120947 0.00772828 0)
(-0.122115 0.00508953 0)
(-0.122848 0.00233327 0)
(-0.123133 -0.000516773 0)
(-0.122956 -0.00343436 0)
(-0.122311 -0.00639089 0)
(-0.121193 -0.00935574 0)
(-0.119602 -0.0122966 0)
(-0.11754 -0.01518 0)
(-0.115017 -0.0179713 0)
(-0.112046 -0.0206359 0)
(-0.108643 -0.0231391 0)
(-0.10483 -0.0254471 0)
(-0.100636 -0.0275273 0)
(-0.0960899 -0.0293496 0)
(-0.0912298 -0.030886 0)
(-0.0860957 -0.0321123 0)
(-0.0807323 -0.0330082 0)
(-0.0751879 -0.033558 0)
(-0.0695139 -0.0337511 0)
(-0.0637641 -0.0335826 0)
(-0.0579941 -0.0330537 0)
(-0.0522603 -0.0321716 0)
(-0.0466188 -0.0309502 0)
(-0.041125 -0.0294093 0)
(-0.0358317 -0.0275753 0)
(-0.0307888 -0.02548 0)
(-0.026042 -0.0231609 0)
(-0.0216315 -0.0206602 0)
(-0.0175918 -0.0180244 0)
(-0.0139501 -0.0153034 0)
(-0.0107261 -0.0125505 0)
(-0.00793155 -0.00982083 0)
(-0.00556936 -0.00717191 0)
(-0.00363371 -0.00466256 0)
(-0.00210978 -0.00235295 0)
(-0.000973672 -0.000304466 0)
(-0.000192502 0.00142024 0)
(0.000275621 0.0027571 0)
(0.000481576 0.00364034 0)
(0.000484715 0.00400212 0)
(0.00035248 0.00377221 0)
(0.000168108 0.00287762 0)
(3.73781e-05 0.00123826 0)
(-8.52458e-05 0.000851941 0)
(-0.000585255 0.00290732 0)
(-0.00167511 0.00515294 0)
(-0.00324248 0.00747293 0)
(-0.00522518 0.00978557 0)
(-0.00758535 0.0120322 0)
(-0.0102856 0.0141734 0)
(-0.0132912 0.0161855 0)
(-0.0165714 0.018057 0)
(-0.0200992 0.0197847 0)
(-0.0238508 0.0213712 0)
(-0.0278052 0.0228223 0)
(-0.0319431 0.024145 0)
(-0.036247 0.0253457 0)
(-0.0407002 0.0264296 0)
(-0.045286 0.0273995 0)
(-0.0499878 0.0282554 0)
(-0.0547881 0.0289947 0)
(-0.0596683 0.0296119 0)
(-0.0646085 0.0300993 0)
(-0.0695873 0.0304471 0)
(-0.0745816 0.0306438 0)
(-0.0795665 0.0306774 0)
(-0.0845158 0.030535 0)
(-0.0894017 0.0302043 0)
(-0.0941951 0.0296736 0)
(-0.0988659 0.0289321 0)
(-0.103383 0.0279709 0)
(-0.107716 0.0267832 0)
(-0.111832 0.0253644 0)
(-0.115701 0.0237126 0)
(-0.119292 0.0218289 0)
(-0.122574 0.0197173 0)
(-0.12552 0.0173851 0)
(-0.1281 0.0148431 0)
(-0.13029 0.0121051 0)
(-0.132065 0.00918845 0)
(-0.133405 0.00611371 0)
(-0.13429 0.00290462 0)
(-0.134704 -0.000412079 0)
(-0.134634 -0.00380684 0)
(-0.13407 -0.00724748 0)
(-0.133007 -0.0106996 0)
(-0.131442 -0.0141268 0)
(-0.129377 -0.0174913 0)
(-0.126818 -0.0207541 0)
(-0.123777 -0.0238759 0)
(-0.120268 -0.0268171 0)
(-0.116313 -0.0295391 0)
(-0.111938 -0.0320045 0)
(-0.107173 -0.0341781 0)
(-0.102053 -0.0360275 0)
(-0.0966207 -0.0375238 0)
(-0.0909202 -0.0386426 0)
(-0.0850014 -0.0393645 0)
(-0.0789177 -0.0396759 0)
(-0.0727255 -0.0395697 0)
(-0.0664836 -0.0390452 0)
(-0.0602524 -0.0381092 0)
(-0.0540924 -0.0367758 0)
(-0.0480639 -0.0350666 0)
(-0.042225 -0.0330101 0)
(-0.0366312 -0.030642 0)
(-0.0313339 -0.0280044 0)
(-0.0263789 -0.0251453 0)
(-0.0218062 -0.0221176 0)
(-0.0176483 -0.0189791 0)
(-0.0139299 -0.0157906 0)
(-0.010667 -0.0126163 0)
(-0.00786637 -0.00952251 0)
(-0.00552549 -0.00657729 0)
(-0.00363215 -0.00385012 0)
(-0.00216451 -0.00141172 0)
(-0.00109108 0.000666011 0)
(-0.000370898 0.00230983 0)
(4.64482e-05 0.00344487 0)
(0.000220229 0.00399421 0)
(0.000218116 0.00387861 0)
(0.000121696 0.00301611 0)
(3.06643e-05 0.0013177 0)
(-9.92757e-05 0.00117065 0)
(-0.000672821 0.003804 0)
(-0.00191342 0.00657044 0)
(-0.00368585 0.0093576 0)
(-0.00591406 0.012088 0)
(-0.0085514 0.0147077 0)
(-0.0115531 0.017182 0)
(-0.0148782 0.0194921 0)
(-0.0184915 0.0216308 0)
(-0.0223625 0.0235988 0)
(-0.026465 0.0254021 0)
(-0.0307759 0.0270491 0)
(-0.035275 0.0285487 0)
(-0.0399434 0.0299088 0)
(-0.0447638 0.0311349 0)
(-0.0497188 0.0322301 0)
(-0.054791 0.0331937 0)
(-0.0599622 0.0340223 0)
(-0.0652131 0.0347092 0)
(-0.0705228 0.035245 0)
(-0.075869 0.0356184 0)
(-0.0812276 0.0358163 0)
(-0.0865728 0.0358249 0)
(-0.0918774 0.03563 0)
(-0.0971126 0.0352178 0)
(-0.102249 0.0345754 0)
(-0.107254 0.0336914 0)
(-0.112098 0.0325562 0)
(-0.116747 0.0311626 0)
(-0.121171 0.0295062 0)
(-0.125337 0.0275854 0)
(-0.129213 0.0254019 0)
(-0.132769 0.0229606 0)
(-0.135975 0.0202703 0)
(-0.138803 0.017343 0)
(-0.141227 0.0141945 0)
(-0.143221 0.0108441 0)
(-0.144762 0.00731483 0)
(-0.145831 0.00363294 0)
(-0.146409 -0.000171951 0)
(-0.146482 -0.00406707 0)
(-0.146038 -0.00801692 0)
(-0.145068 -0.0119834 0)
(-0.143569 -0.0159262 0)
(-0.14154 -0.0198031 0)
(-0.138984 -0.0235709 0)
(-0.13591 -0.0271852 0)
(-0.132333 -0.0306018 0)
(-0.128269 -0.0337768 0)
(-0.123744 -0.0366676 0)
(-0.118787 -0.0392337 0)
(-0.113432 -0.0414374 0)
(-0.10772 -0.043245 0)
(-0.101697 -0.0446271 0)
(-0.0954124 -0.0455602 0)
(-0.0889224 -0.0460268 0)
(-0.0822857 -0.0460165 0)
(-0.0755643 -0.0455266 0)
(-0.0688223 -0.0445627 0)
(-0.0621254 -0.0431385 0)
(-0.0555387 -0.0412765 0)
(-0.0491264 -0.0390076 0)
(-0.0429501 -0.0363709 0)
(-0.0370674 -0.033413 0)
(-0.0315307 -0.0301876 0)
(-0.0263862 -0.0267546 0)
(-0.0216724 -0.0231794 0)
(-0.0174196 -0.0195315 0)
(-0.013649 -0.0158841 0)
(-0.010372 -0.0123131 0)
(-0.00758981 -0.0088965 0)
(-0.00529345 -0.00571369 0)
(-0.00346355 -0.00284535 0)
(-0.00207046 -0.000373233 0)
(-0.00107443 0.00161975 0)
(-0.000425828 0.00304926 0)
(-6.56664e-05 0.00382912 0)
(7.38081e-05 0.00387109 0)
(7.24329e-05 0.00308471 0)
(2.37461e-05 0.00137286 0)
(-0.000113238 0.00153424 0)
(-0.000759882 0.0048191 0)
(-0.00215024 0.00816557 0)
(-0.00412628 0.0114667 0)
(-0.00659809 0.0146512 0)
(-0.00951023 0.0176717 0)
(-0.0128104 0.0205002 0)
(-0.0164517 0.0231239 0)
(-0.0203941 0.0255413 0)
(-0.0246039 0.0277582 0)
(-0.029052 0.0297846 0)
(-0.0337138 0.0316322 0)
(-0.0385676 0.0333124 0)
(-0.0435937 0.0348345 0)
(-0.0487738 0.036205 0)
(-0.0540901 0.0374267 0)
(-0.0595246 0.0384989 0)
(-0.0650584 0.0394168 0)
(-0.0706715 0.0401725 0)
(-0.0763425 0.0407552 0)
(-0.0820482 0.0411518 0)
(-0.0877639 0.0413477 0)
(-0.0934631 0.0413272 0)
(-0.0991177 0.0410749 0)
(-0.104698 0.0405755 0)
(-0.110174 0.0398151 0)
(-0.115514 0.0387814 0)
(-0.120686 0.0374645 0)
(-0.125657 0.0358568 0)
(-0.130395 0.033954 0)
(-0.134867 0.0317547 0)
(-0.139041 0.0292614 0)
(-0.142887 0.0264799 0)
(-0.146373 0.02342 0)
(-0.149471 0.0200951 0)
(-0.152153 0.0165228 0)
(-0.154392 0.0127243 0)
(-0.156166 0.0087245 0)
(-0.157451 0.00455221 0)
(-0.158228 0.000239669 0)
(-0.158481 -0.00417743 0)
(-0.158194 -0.00866037 0)
(-0.157358 -0.0131675 0)
(-0.155965 -0.0176547 0)
(-0.154012 -0.0220757 0)
(-0.151499 -0.0263826 0)
(-0.148432 -0.0305264 0)
(-0.144823 -0.0344576 0)
(-0.140687 -0.038127 0)
(-0.136045 -0.0414865 0)
(-0.130925 -0.0444899 0)
(-0.12536 -0.0470937 0)
(-0.119391 -0.0492585 0)
(-0.113061 -0.0509496 0)
(-0.106423 -0.0521382 0)
(-0.0995327 -0.0528023 0)
(-0.0924513 -0.0529275 0)
(-0.0852442 -0.0525083 0)
(-0.0779797 -0.0515479 0)
(-0.070728 -0.0500592 0)
(-0.0635601 -0.0480652 0)
(-0.0565465 -0.0455983 0)
(-0.0497554 -0.0427007 0)
(-0.0432515 -0.0394235 0)
(-0.0370945 -0.0358262 0)
(-0.0313375 -0.0319756 0)
(-0.0260263 -0.0279452 0)
(-0.0211976 -0.0238136 0)
(-0.0168784 -0.0196636 0)
(-0.0130854 -0.0155814 0)
(-0.00982461 -0.0116555 0)
(-0.00709067 -0.00797612 0)
(-0.00486723 -0.0046345 0)