/*--------------------------------*- C++ -*----------------------------------*\
  =========                 |
  \\      /  F ield         | OpenFOAM: The Open Source CFD Toolbox
   \\    /   O peration     | Website:  https://openfoam.org
    \\  /    A nd           | Version:  7
     \\/     M anipulation  |
\*---------------------------------------------------------------------------*/
FoamFile
{
    version     2.0;
    format      ascii;
    class       volScalarField;
    location    "2.85";
    object      p;
}
// * * * * * * * * * * * * * * * * * * * * * * * * * * * * * * * * * * * * * //

dimensions      [0 2 -2 0 0 0 0];

internalField   nonuniform List<scalar> 
6400
(
3.0049e-07
1.53288e-05
5.11476e-06
-3.3816e-05
-9.92015e-05
-0.000187708
-0.000295677
-0.000419762
-0.000557251
-0.00070609
-0.000864795
-0.00103231
-0.00120788
-0.00139091
-0.00158085
-0.00177711
-0.00197896
-0.00218545
-0.00239541
-0.00260739
-0.00281961
-0.00303002
-0.00323622
-0.00343553
-0.00362499
-0.00380143
-0.00396146
-0.0041016
-0.00421833
-0.00430817
-0.00436784
-0.00439434
-0.00438509
-0.00433808
-0.00425197
-0.00412628
-0.00396146
-0.00375902
-0.00352159
-0.00325297
-0.00295817
-0.00264308
-0.00231506
-0.00198207
-0.00165281
-0.00133644
-0.00104232
-0.000779646
-0.00055715
-0.000382745
-0.000263211
-0.000203903
-0.000208502
-0.000278844
-0.000414819
-0.000614356
-0.000873495
-0.00118655
-0.00154651
-0.00194485
-0.00237256
-0.00282006
-0.00327771
-0.00373613
-0.00418653
-0.00462097
-0.00503244
-0.00541505
-0.00576398
-0.00607542
-0.00634649
-0.00657504
-0.00675957
-0.00689909
-0.00699325
-0.00704267
-0.00704999
-0.00702184
-0.00697109
-0.00691671
-1.42808e-05
4.73701e-07
-1.15149e-05
-4.885e-05
-0.000108385
-0.000187959
-0.000285094
-0.000397321
-0.00052251
-0.000658945
-0.000805314
-0.000960617
-0.0011241
-0.00129512
-0.00147311
-0.00165743
-0.00184737
-0.00204203
-0.00224032
-0.00244089
-0.00264214
-0.00284219
-0.00303886
-0.00322972
-0.00341209
-0.00358304
-0.00373948
-0.00387819
-0.00399592
-0.00408942
-0.00415563
-0.0041917
-0.00419518
-0.00416408
-0.0040971
-0.00399366
-0.00385404
-0.00367954
-0.00347247
-0.00323625
-0.0029754
-0.00269542
-0.00240292
-0.0021053
-0.00181062
-0.0015274
-0.0012643
-0.0010299
-0.000832312
-0.000678902
-0.000575976
-0.000528501
-0.000539884
-0.000611798
-0.0007441
-0.000934818
-0.00118023
-0.00147502
-0.00181253
-0.00218505
-0.00258406
-0.00300073
-0.00342619
-0.00385184
-0.00426962
-0.00467227
-0.00505346
-0.00540785
-0.00573114
-0.00601999
-0.00627196
-0.00648535
-0.00665917
-0.00679302
-0.00688718
-0.00694284
-0.00696282
-0.00695232
-0.00691666
-0.00686222
-3.34769e-06
1.2216e-05
-5.34096e-07
-3.73104e-05
-9.39002e-05
-0.000168406
-0.000258835
-0.0003632
-0.00047976
-0.000607095
-0.000744101
-0.000889923
-0.00104389
-0.00120545
-0.00137407
-0.00154918
-0.00173014
-0.00191615
-0.00210621
-0.00229911
-0.00249339
-0.00268734
-0.00287897
-0.00306602
-0.00324599
-0.00341614
-0.00357355
-0.00371514
-0.00383776
-0.00393828
-0.00401366
-0.00406106
-0.00407798
-0.00406237
-0.00401276
-0.00392839
-0.00380934
-0.00365661
-0.00347224
-0.00325931
-0.00302192
-0.00276546
-0.00249601
-0.00222065
-0.00194712
-0.00168361
-0.00143853
-0.00122018
-0.00103645
-0.000894524
-0.000800549
-0.000759379
-0.00077434
-0.000847067
-0.000977411
-0.00116344
-0.0014015
-0.0016864
-0.00201164
-0.00236968
-0.00275237
-0.00315105
-0.00355725
-0.00396273
-0.00435985
-0.00474178
-0.0051026
-0.00543746
-0.00574248
-0.00601478
-0.00625236
-0.00645396
-0.006619
-0.00674745
-0.00683979
-0.00689711
-0.00692164
-0.00691675
-0.00688116
-0.00681165
3.78371e-05
4.99093e-05
3.43995e-05
-3.60917e-06
-5.9599e-05
-0.000131668
-0.000218075
-0.000317099
-0.000427323
-0.000547624
-0.000677137
-0.000815212
-0.000961347
-0.00111513
-0.00127616
-0.001444
-0.00161814
-0.0017979
-0.00198243
-0.00217067
-0.00236133
-0.00255283
-0.00274334
-0.00293076
-0.0031127
-0.00328655
-0.00344944
-0.00359835
-0.00373013
-0.00384161
-0.00392965
-0.00399129
-0.00402384
-0.00402505
-0.00399319
-0.00392724
-0.00382698
-0.00369312
-0.0035274
-0.00333262
-0.00311262
-0.00287251
-0.00261822
-0.00235667
-0.00209546
-0.00184271
-0.00160679
-0.001396
-0.00121827
-0.00108084
-0.000989918
-0.000950445
-0.000965819
-0.00103774
-0.00116609
-0.00134898
-0.00158275
-0.0018622
-0.0021808
-0.00253101
-0.00290462
-0.00329309
-0.00368792
-0.00408103
-0.00446492
-0.00483301
-0.00517967
-0.00550038
-0.00579167
-0.00605107
-0.00627701
-0.00646866
-0.0066258
-0.00674867
-0.00683778
-0.00689387
-0.00691842
-0.00691317
-0.00687188
-0.00678484
0.000108276
0.000111108
8.96164e-05
4.8265e-05
-9.02038e-06
-8.04191e-05
-0.000164382
-0.000259519
-0.00036474
-0.000479231
-0.000602413
-0.000733884
-0.000873366
-0.00102065
-0.00117551
-0.00133772
-0.00150691
-0.00168259
-0.00186409
-0.00205053
-0.00224075
-0.00243337
-0.00262668
-0.00281869
-0.00300712
-0.00318936
-0.00336259
-0.00352371
-0.00366948
-0.00379657
-0.00390165
-0.0039815
-0.00403316
-0.00405404
-0.0040421
-0.00399594
-0.00391502
-0.00379971
-0.00365145
-0.0034728
-0.00326735
-0.00304001
-0.00279663
-0.00254403
-0.00228985
-0.00204224
-0.00180968
-0.00160062
-0.00142319
-0.00128481
-0.00119194
-0.00114973
-0.00116178
-0.00122994
-0.00135423
-0.00153281
-0.00176206
-0.00203673
-0.0023502
-0.00269481
-0.00306221
-0.00344375
-0.00383084
-0.00421531
-0.0045897
-0.0049475
-0.00528327
-0.00559272
-0.00587271
-0.00612115
-0.00633687
-0.00651948
-0.00666909
-0.0067862
-0.00687137
-0.00692509
-0.00694822
-0.00694132
-0.00689498
-0.00679552
0.000205314
0.000193915
0.000163322
0.000116537
5.61832e-05
-1.61535e-05
-9.9156e-05
-0.000191808
-0.00029339
-0.000403434
-0.000521682
-0.000648028
-0.000782463
-0.000925024
-0.00107574
-0.00123457
-0.00140141
-0.00157595
-0.00175774
-0.00194607
-0.00213999
-0.00233823
-0.00253922
-0.00274104
-0.00294142
-0.00313775
-0.00332709
-0.00350621
-0.00367167
-0.00381984
-0.0039471
-0.00404985
-0.00412476
-0.00416881
-0.00417955
-0.0041552
-0.0040948
-0.00399836
-0.00386705
-0.0037032
-0.00351011
-0.00329262
-0.00305648
-0.00280855
-0.00255652
-0.00230872
-0.00207381
-0.00186053
-0.0016773
-0.00153191
-0.00143117
-0.00138058
-0.00138407
-0.00144379
-0.00156001
-0.00173103
-0.00195331
-0.0022216
-0.00252919
-0.00286828
-0.00323031
-0.0036064
-0.00398774
-0.00436598
-0.00473353
-0.00508381
-0.00541142
-0.00571219
-0.00598321
-0.00622271
-0.00642985
-0.00660461
-0.00674748
-0.00685918
-0.00694041
-0.00699153
-0.00701306
-0.00700485
-0.00695582
-0.00685046
0.000325151
0.000295321
0.000253122
0.000199059
0.000133946
5.92201e-05
-2.41876e-05
-0.00011572
-0.000215082
-0.0003222
-0.000437178
-0.000560244
-0.000691701
-0.000831877
-0.000981078
-0.00113954
-0.0013074
-0.0014846
-0.00167091
-0.00186583
-0.00206857
-0.002278
-0.00249262
-0.00271054
-0.00292944
-0.00314658
-0.00335885
-0.00356276
-0.00375452
-0.00393016
-0.00408559
-0.00421678
-0.00431988
-0.00439141
-0.00442842
-0.00442867
-0.00439077
-0.00431435
-0.00420029
-0.00405088
-0.00386858
-0.00365865
-0.00342669
-0.00317958
-0.00292515
-0.0026719
-0.00242882
-0.00220497
-0.0020092
-0.00184976
-0.00173397
-0.00166782
-0.00165575
-0.00170036
-0.00180228
-0.00196014
-0.0021706
-0.00242847
-0.00272705
-0.0030584
-0.00341374
-0.00378393
-0.00415985
-0.00453283
-0.00489504
-0.00523969
-0.00556126
-0.0058556
-0.00611987
-0.00635248
-0.00655289
-0.00672137
-0.00685872
-0.00696595
-0.00704391
-0.00709303
-0.00711366
-0.00710534
-0.00705655
-0.00695145
0.000463221
0.000411656
0.000355562
0.000292599
0.000221485
0.00014317
5.81467e-05
-3.35623e-05
-0.000132157
-0.000238009
-0.000351626
-0.000473611
-0.000604615
-0.000745297
-0.000896276
-0.00105809
-0.00123116
-0.0014157
-0.00161171
-0.00181891
-0.00203665
-0.0022639
-0.0024992
-0.0027406
-0.00298565
-0.00323142
-0.00347449
-0.00371099
-0.00393671
-0.00414718
-0.00433777
-0.00450389
-0.00464113
-0.00474544
-0.00481332
-0.00484203
-0.00482972
-0.00477559
-0.00468032
-0.00454641
-0.00437382
-0.00416994
-0.00393985
-0.00369032
-0.00342928
-0.0031655
-0.00290825
-0.00266703
-0.00245121
-0.00226961
-0.00213018
-0.00203959
-0.00200294
-0.00202348
-0.00210245
-0.00223895
-0.00243003
-0.00267076
-0.00295452
-0.00327334
-0.00361827
-0.00397988
-0.00434872
-0.00471574
-0.0050727
-0.0054125
-0.00572935
-0.00601894
-0.00627838
-0.00650613
-0.00670179
-0.00686584
-0.00699935
-0.00710357
-0.00717959
-0.00722796
-0.00724908
-0.00724242
-0.00719687
-0.00709735
0.000614488
0.000538443
0.000466658
0.000393603
0.000315431
0.000232511
0.00014478
5.1621e-05
-4.77381e-05
-0.000154168
-0.000268628
-0.000392132
-0.000525713
-0.000670393
-0.000827136
-0.000996814
-0.00118015
-0.00137764
-0.00158954
-0.00181575
-0.00205575
-0.00230857
-0.00257272
-0.00284611
-0.00312609
-0.00340939
-0.00369221
-0.00397019
-0.00423857
-0.00449228
-0.00472609
-0.00493473
-0.00511317
-0.00525671
-0.00536126
-0.00542349
-0.00544106
-0.00541274
-0.00533842
-0.00521903
-0.00505912
-0.00486136
-0.00463168
-0.00437706
-0.00410559
-0.00382623
-0.00354861
-0.0032827
-0.00303843
-0.00282533
-0.00265211
-0.00252631
-0.0024539
-0.00243902
-0.00248372
-0.00258788
-0.00274916
-0.0029631
-0.00322338
-0.00352213
-0.00385034
-0.00419835
-0.00455635
-0.00491486
-0.00526516
-0.00559969
-0.00591224
-0.00619816
-0.00645434
-0.00667911
-0.00687208
-0.00703382
-0.00716554
-0.00726872
-0.00734465
-0.00739408
-0.00741753
-0.00741458
-0.00737508
-0.00728538
0.000773365
0.0006706
0.00058176
0.000497714
0.000411681
0.000323312
0.000231855
0.000135946
3.41616e-05
-7.49265e-05
-0.000192773
-0.000320836
-0.000460568
-0.000613377
-0.000780603
-0.000963467
-0.00116302
-0.00138005
-0.00161504
-0.00186806
-0.00213869
-0.00242595
-0.00272824
-0.00304325
-0.00336803
-0.00369888
-0.00403149
-0.00436093
-0.00468178
-0.00498829
-0.00527451
-0.00553446
-0.00576237
-0.00595286
-0.00610116
-0.00620332
-0.0062564
-0.00625866
-0.00620945
-0.00610921
-0.00596207
-0.00577067
-0.00554065
-0.00527891
-0.00499354
-0.0046937
-0.00438935
-0.00409092
-0.00380898
-0.00355385
-0.00333518
-0.00316151
-0.00303996
-0.00297578
-0.00297219
-0.00303009
-0.00314809
-0.0033225
-0.00354756
-0.00381573
-0.0041181
-0.00444489
-0.00478598
-0.00513142
-0.00547196
-0.00579942
-0.00610704
-0.00638962
-0.00664364
-0.00686713
-0.00705947
-0.00722119
-0.00735351
-0.00745801
-0.00753613
-0.00758882
-0.00761675
-0.00761964
-0.00758867
-0.00751199
0.000933708
0.00080243
0.000695525
0.000599862
0.000505377
0.000410835
0.000314659
0.000214624
0.000108579
-5.52016e-06
-0.000129666
-0.000265799
-0.000415813
-0.000581536
-0.000764701
-0.0009669
-0.00118951
-0.00143362
-0.00169991
-0.00198859
-0.00229928
-0.00263091
-0.0029817
-0.00334906
-0.00372958
-0.00411908
-0.00451261
-0.00490458
-0.00528883
-0.00565884
-0.00600785
-0.00632912
-0.00661608
-0.00686257
-0.00706309
-0.00721296
-0.00730857
-0.00734752
-0.00732863
-0.00725203
-0.00712053
-0.00693712
-0.00670701
-0.00643686
-0.00613472
-0.00580983
-0.00547241
-0.00513338
-0.00480397
-0.00449534
-0.0042182
-0.00398232
-0.00379616
-0.00366642
-0.00359776
-0.00359253
-0.00365063
-0.00376951
-0.00394433
-0.00416818
-0.0044325
-0.00472757
-0.00504305
-0.00536858
-0.00569428
-0.00601127
-0.00631205
-0.00659071
-0.00684305
-0.00706657
-0.00726025
-0.00742429
-0.00755978
-0.00766824
-0.00775115
-0.00780959
-0.00784432
-0.0078552
-0.00783487
-0.00777348
0.00108868
0.000927576
0.000801928
0.000694259
0.000590888
0.000489516
0.000387596
0.000281939
0.000169584
4.78157e-05
-8.59355e-05
-0.000234126
-0.00039912
-0.000583187
-0.000788473
-0.00101695
-0.00127032
-0.00154994
-0.00185669
-0.00219085
-0.002552
-0.00293895
-0.00334962
-0.00378103
-0.00422925
-0.00468949
-0.0051561
-0.00562271
-0.00608237
-0.0065277
-0.00695108
-0.00734491
-0.00770174
-0.0080146
-0.00827713
-0.00848387
-0.00863041
-0.00871358
-0.00873155
-0.00868397
-0.00857249
-0.00839997
-0.00817114
-0.0078923
-0.00757131
-0.00721742
-0.00684103
-0.00645346
-0.00606658
-0.00569247
-0.00534297
-0.00502924
-0.00476131
-0.00454762
-0.00439464
-0.00430655
-0.004285
-0.00432904
-0.00443515
-0.00459749
-0.00480818
-0.00505782
-0.00533605
-0.00563215
-0.00593565
-0.00623685
-0.00652735
-0.0068003
-0.0070506
-0.00727492
-0.00747156
-0.00764019
-0.00778148
-0.0078967
-0.00798721
-0.00805406
-0.008098
-0.00811899
-0.00811107
-0.00806646
0.0012309
0.00103905
0.00089428
0.000774411
0.000661826
0.000552979
0.000444216
0.000331274
0.000210312
7.78915e-05
-6.91727e-05
-0.000233883
-0.000419103
-0.000627562
-0.000861834
-0.00112427
-0.00141689
-0.0017413
-0.0020985
-0.00248882
-0.00291174
-0.00336582
-0.00384862
-0.00435666
-0.00488542
-0.00542939
-0.00598214
-0.00653647
-0.00708451
-0.00761798
-0.00812833
-0.00860701
-0.00904567
-0.00943639
-0.0097719
-0.0100458
-0.0102529
-0.0103891
-0.0104517
-0.0104397
-0.0103538
-0.0101963
-0.00997129
-0.00968464
-0.00934386
-0.00895802
-0.00853761
-0.00809423
-0.00764035
-0.00718891
-0.00675294
-0.0063451
-0.00597717
-0.0056596
-0.00540104
-0.0052079
-0.00508408
-0.00503073
-0.00504623
-0.00512628
-0.00526414
-0.00545115
-0.00567718
-0.00593133
-0.00620258
-0.00648038
-0.00675527
-0.00701924
-0.00726599
-0.0074911
-0.00769184
-0.00786702
-0.00801664
-0.00814143
-0.0082424
-0.00832041
-0.00837604
-0.00840916
-0.00841517
-0.00838821
0.00135236
0.00112929
0.000965288
0.000833174
0.000711104
0.000594101
0.000477271
0.000355184
0.00022305
7.66634e-05
-8.78163e-05
-0.000273966
-0.000485171
-0.000724639
-0.000995376
-0.00130011
-0.00164116
-0.00202033
-0.00243873
-0.00289662
-0.00339332
-0.00392706
-0.00449495
-0.00509292
-0.00571576
-0.00635716
-0.00700984
-0.00766566
-0.0083158
-0.00895099
-0.00956168
-0.0101383
-0.0106715
-0.0111524
-0.0115726
-0.0119249
-0.012203
-0.0124018
-0.0125178
-0.012549
-0.0124953
-0.0123581
-0.0121407
-0.0118484
-0.0114883
-0.011069
-0.0106009
-0.0100958
-0.00956653
-0.0090269
-0.00849105
-0.00797314
-0.00748684
-0.00704481
-0.00665818
-0.00633603
-0.00608499
-0.00590891
-0.00580865
-0.00578208
-0.00582423
-0.00592765
-0.00608289
-0.00627916
-0.00650503
-0.00674912
-0.00700079
-0.00725064
-0.00749093
-0.00771572
-0.00792094
-0.00810417
-0.00826435
-0.0084014
-0.00851567
-0.00860757
-0.00867732
-0.00872454
-0.00874577
-0.00873695
0.00144451
0.00119021
0.00100713
0.000862842
0.000731027
0.000605111
0.000478838
0.000345526
0.000199382
3.53868e-05
-0.000150983
-0.000363908
-0.000607313
-0.000884901
-0.00120011
-0.00155602
-0.00195525
-0.00239973
-0.0028906
-0.00342803
-0.00401106
-0.00463751
-0.00530394
-0.00600562
-0.00673653
-0.00748951
-0.00825632
-0.00902781
-0.00979416
-0.010545
-0.0112697
-0.0119577
-0.0125985
-0.013182
-0.0136991
-0.0141412
-0.014501
-0.0147725
-0.0149512
-0.015034
-0.0150197
-0.014909
-0.0147043
-0.01441
-0.0140324
-0.0135799
-0.0130624
-0.0124917
-0.0118808
-0.011244
-0.0105966
-0.00995418
-0.00933221
-0.0087457
-0.00820846
-0.00773262
-0.007328
-0.00700174
-0.00675787
-0.00659717
-0.00651713
-0.00651221
-0.00657422
-0.00669294
-0.00685681
-0.00705374
-0.00727187
-0.00750023
-0.0077293
-0.0079513
-0.00816036
-0.0083524
-0.00852493
-0.00867662
-0.00880685
-0.00891528
-0.00900151
-0.00906471
-0.00910239
-0.00911194
0.00149843
0.00121335
0.00101159
0.000855273
0.000713431
0.000577739
0.000440472
0.000293629
0.000130367
-5.51776e-05
-0.000268243
-0.000513636
-0.000795839
-0.00111905
-0.00148714
-0.00190354
-0.00237107
-0.00289179
-0.0034668
-0.00409606
-0.00477826
-0.00551073
-0.00628938
-0.0071087
-0.00796181
-0.00884058
-0.00973574
-0.0106371
-0.0115336
-0.0124139
-0.0132661
-0.0140785
-0.0148395
-0.0155379
-0.0161634
-0.0167063
-0.0171584
-0.0175125
-0.0177629
-0.0179058
-0.0179387
-0.0178614
-0.0176752
-0.0173839
-0.0169927
-0.0165093
-0.015943
-0.0153053
-0.0146093
-0.0138695
-0.0131018
-0.0123231
-0.0115507
-0.0108017
-0.0100927
-0.00943922
-0.00885459
-0.00834978
-0.0079327
-0.00760782
-0.00737597
-0.00723436
-0.00717683
-0.00719437
-0.00727579
-0.00740855
-0.00757966
-0.00777645
-0.00798734
-0.00820233
-0.00841327
-0.00861394
-0.00879992
-0.00896818
-0.00911675
-0.00924417
-0.00934916
-0.00943019
-0.00948539
-0.00951357
0.00150494
0.00119002
0.0009702
0.000802051
0.000649851
0.000503394
0.000353402
0.000190506
6.77722e-06
-0.00020452
-0.00044936
-0.000733192
-0.00106107
-0.00143769
-0.00186734
-0.00235375
-0.00289994
-0.00350801
-0.00417894
-0.00491239
-0.00570663
-0.00655838
-0.00746279
-0.0084135
-0.00940265
-0.0104211
-0.0114583
-0.012503
-0.013543
-0.0145656
-0.0155578
-0.0165067
-0.0173994
-0.0182237
-0.018968
-0.0196217
-0.0201754
-0.0206209
-0.0209516
-0.0211625
-0.0212502
-0.0212134
-0.0210525
-0.0207701
-0.0203706
-0.0198607
-0.019249
-0.0185462
-0.017765
-0.01692
-0.0160274
-0.0151049
-0.0141711
-0.0132453
-0.0123468
-0.0114941
-0.0107047
-0.00999363
-0.00937339
-0.00885293
-0.00843736
-0.00812764
-0.00792063
-0.00780942
-0.00778391
-0.00783162
-0.00793863
-0.00809062
-0.00827373
-0.00847533
-0.00868453
-0.00889242
-0.00909205
-0.00927823
-0.00944711
-0.00959574
-0.00972161
-0.00982223
-0.00989614
-0.00994334
0.00145484
0.00111148
0.000874427
0.00069468
0.000531727
0.000373385
0.000208767
2.70991e-05
-0.000180649
-0.000422104
-0.000703992
-0.00103242
-0.00141301
-0.00185096
-0.00235094
-0.00291697
-0.00355218
-0.00425864
-0.00503712
-0.00588693
-0.00680576
-0.00778963
-0.00883285
-0.00992806
-0.0110663
-0.0122373
-0.0134293
-0.0146297
-0.015825
-0.0170013
-0.0181443
-0.0192398
-0.0202738
-0.0212329
-0.0221045
-0.0228769
-0.0235398
-0.0240839
-0.0245019
-0.0247876
-0.0249369
-0.0249474
-0.0248186
-0.024552
-0.0241509
-0.0236208
-0.0229695
-0.0222068
-0.0213444
-0.0203966
-0.0193794
-0.0183107
-0.0172101
-0.0160985
-0.0149974
-0.0139286
-0.0129132
-0.0119709
-0.011119
-0.0103719
-0.00973978
-0.0092285
-0.00883912
-0.00856798
-0.00840706
-0.0083447
-0.00836661
-0.00845699
-0.0085996
-0.00877889
-0.0089807
-0.00919284
-0.00940523
-0.00960987
-0.0098005
-0.00997226
-0.010121
-0.0102429
-0.0103368
-0.0104037
0.0013391
0.000969173
0.0007159
0.000524804
0.000350632
0.000179164
-2.13526e-06
-0.000205447
-0.000440914
-0.000717062
-0.00104137
-0.00142062
-0.001861
-0.00236817
-0.00294718
-0.00360226
-0.00433661
-0.00515218
-0.00604945
-0.00702722
-0.00808254
-0.00921058
-0.0104047
-0.0116564
-0.0129555
-0.0142904
-0.0156481
-0.0170146
-0.0183751
-0.0197142
-0.0210163
-0.022266
-0.0234481
-0.0245483
-0.0255528
-0.0264492
-0.0272261
-0.0278738
-0.0283838
-0.0287495
-0.0289659
-0.0290296
-0.0289393
-0.0286954
-0.0283002
-0.0277581
-0.0270755
-0.026261
-0.0253254
-0.0242818
-0.0231456
-0.0219344
-0.0206681
-0.0193684
-0.0180586
-0.016763
-0.0155062
-0.0143125
-0.0132044
-0.0122018
-0.0113212
-0.0105745
-0.00996805
-0.00950293
-0.00917448
-0.00897302
-0.00888469
-0.00889268
-0.00897856
-0.0091236
-0.00930995
-0.00952151
-0.0097444
-0.00996709
-0.0101803
-0.0103767
-0.0105501
-0.0106951
-0.0108104
-0.0108979
0.00114908
0.000754925
0.000486632
0.000284446
9.85227e-05
-8.74206e-05
-0.000287569
-0.000515503
-0.000782468
-0.00109788
-0.00146999
-0.00190622
-0.00241333
-0.00299743
-0.00366388
-0.00441708
-0.00526021
-0.00619501
-0.00722154
-0.00833801
-0.00954066
-0.0108237
-0.0121794
-0.0135979
-0.0150678
-0.0165761
-0.0181082
-0.0196487
-0.0211812
-0.0226891
-0.0241555
-0.0255637
-0.0268976
-0.0281416
-0.0292814
-0.0303037
-0.0311966
-0.0319497
-0.0325541
-0.0330026
-0.0332895
-0.0334108
-0.0333645
-0.0331499
-0.0327685
-0.0322233
-0.0315195
-0.0306642
-0.0296668
-0.028539
-0.0272948
-0.0259511
-0.024527
-0.0230445
-0.0215277
-0.0200027
-0.0184971
-0.0170389
-0.0156559
-0.014374
-0.0132164
-0.0122018
-0.0113435
-0.0106488
-0.010118
-0.00974471
-0.00951692
-0.00941763
-0.00942662
-0.00952206
-0.00968206
-0.009886
-0.0101155
-0.0103546
-0.0105905
-0.0108127
-0.0110123
-0.011182
-0.0113203
-0.0114299
0.000876843
0.000461212
0.000179261
-3.37492e-05
-0.000232011
-0.000433852
-0.000655088
-0.000910663
-0.0012129
-0.0015721
-0.00199726
-0.00249644
-0.00307695
-0.0037453
-0.00450712
-0.0053669
-0.0063277
-0.00739095
-0.00855618
-0.00982085
-0.0111803
-0.0126275
-0.0141535
-0.0157472
-0.0173955
-0.0190838
-0.0207961
-0.0225153
-0.0242237
-0.0259031
-0.0275353
-0.0291027
-0.030588
-0.0319751
-0.0332488
-0.0343954
-0.0354028
-0.03626
-0.0369581
-0.0374894
-0.0378479
-0.0380294
-0.038031
-0.0378515
-0.0374912
-0.0369522
-0.0362382
-0.0353549
-0.0343098
-0.033113
-0.0317768
-0.0303163
-0.0287495
-0.0270973
-0.0253838
-0.0236359
-0.0218831
-0.0201565
-0.0184884
-0.0169106
-0.015453
-0.0141422
-0.0129996
-0.01204
-0.0112704
-0.0106899
-0.0102898
-0.0100542
-0.00996213
-0.00998884
-0.0101083
-0.010295
-0.0105252
-0.0107779
-0.0110357
-0.0112841
-0.0115112
-0.0117074
-0.0118706
-0.012004
0.00051535
8.13878e-05
-0.000212716
-0.000436271
-0.000647488
-0.000866687
-0.00111126
-0.00139746
-0.00173866
-0.002146
-0.00262921
-0.00319698
-0.0038571
-0.00461647
-0.0054809
-0.00645487
-0.00754125
-0.00874101
-0.010053
-0.0114738
-0.0129976
-0.0146162
-0.0163191
-0.0180936
-0.0199251
-0.0217972
-0.0236923
-0.0255916
-0.0274758
-0.0293256
-0.0311214
-0.0328446
-0.0344773
-0.0360027
-0.0374053
-0.0386711
-0.0397879
-0.0407448
-0.0415328
-0.0421443
-0.0425732
-0.042815
-0.0428666
-0.0427263
-0.0423936
-0.0418695
-0.0411565
-0.0402586
-0.0391818
-0.0379338
-0.0365251
-0.0349684
-0.0332797
-0.0314782
-0.0295867
-0.0276317
-0.0256433
-0.0236547
-0.0217015
-0.0198206
-0.0180487
-0.0164202
-0.0149654
-0.013708
-0.0126639
-0.0118395
-0.0112314
-0.010827
-0.0106055
-0.0105404
-0.0106017
-0.0107585
-0.0109812
-0.011243
-0.0115206
-0.0117952
-0.012051
-0.0122753
-0.0124652
-0.012625
5.87092e-05
-0.000390093
-0.000694707
-0.000928507
-0.0011533
-0.0013913
-0.00166141
-0.00198112
-0.00236478
-0.00282435
-0.00337025
-0.00401175
-0.0047571
-0.0056135
-0.00658688
-0.0076816
-0.0089002
-0.0102431
-0.0117083
-0.0132912
-0.014985
-0.0167797
-0.0186635
-0.0206218
-0.0226382
-0.0246945
-0.0267714
-0.0288484
-0.0309049
-0.03292
-0.0348734
-0.0367454
-0.0385177
-0.040173
-0.0416959
-0.0430725
-0.0442906
-0.0453398
-0.0462111
-0.0468975
-0.0473931
-0.0476932
-0.0477949
-0.0476961
-0.0473957
-0.0468941
-0.0461924
-0.0452932
-0.0442008
-0.0429208
-0.0414611
-0.039832
-0.0380468
-0.0361222
-0.0340786
-0.031941
-0.0297385
-0.0275049
-0.0252778
-0.0230979
-0.0210077
-0.0190491
-0.0172616
-0.015679
-0.0143276
-0.0132231
-0.0123702
-0.0117614
-0.0113786
-0.0111946
-0.0111763
-0.0112874
-0.011492
-0.0117562
-0.0120507
-0.0123507
-0.0126357
-0.0128896
-0.0131084
-0.0132973
-0.000497606
-0.000957463
-0.00127083
-0.00151453
-0.00175349
-0.00201168
-0.00230941
-0.00266531
-0.00309464
-0.00361014
-0.00422287
-0.00494263
-0.00577807
-0.00673661
-0.00782418
-0.00904495
-0.010401
-0.0118919
-0.0135148
-0.0152639
-0.0171307
-0.0191039
-0.0211697
-0.0233116
-0.0255114
-0.027749
-0.0300033
-0.0322522
-0.0344736
-0.0366456
-0.0387468
-0.0407572
-0.0426579
-0.0444318
-0.0460636
-0.0475397
-0.0488484
-0.0499799
-0.0509258
-0.0516796
-0.0522358
-0.05259
-0.0527401
-0.0526832
-0.0524181
-0.0519446
-0.051263
-0.0503746
-0.0492819
-0.0479886
-0.0465
-0.0448238
-0.04297
-0.0409523
-0.0387879
-0.0364989
-0.0341124
-0.0316608
-0.029182
-0.026719
-0.0243184
-0.0220287
-0.019898
-0.0179709
-0.0162848
-0.0148673
-0.0137332
-0.0128834
-0.0123045
-0.011971
-0.0118477
-0.0118939
-0.0120666
-0.0123248
-0.0126313
-0.012955
-0.0132696
-0.0135544
-0.0138045
-0.0140255
-0.00115658
-0.00162347
-0.00194371
-0.00219693
-0.00245056
-0.00273021
-0.00305746
-0.00345196
-0.00392982
-0.00450447
-0.00518756
-0.00598936
-0.00691884
-0.00798354
-0.00918931
-0.01054
-0.012037
-0.013679
-0.0154621
-0.017379
-0.0194196
-0.0215708
-0.0238167
-0.0261391
-0.0285176
-0.0309302
-0.0333541
-0.0357657
-0.0381416
-0.0404587
-0.0426953
-0.0448307
-0.0468462
-0.0487249
-0.0504519
-0.0520142
-0.0534009
-0.054603
-0.055613
-0.056425
-0.0570344
-0.0574378
-0.0576318
-0.0576152
-0.0573864
-0.0569448
-0.05629
-0.0554224
-0.0543428
-0.0530532
-0.0515566
-0.0498579
-0.0479639
-0.0458847
-0.0436338
-0.0412294
-0.0386951
-0.0360608
-0.0333626
-0.0306436
-0.0279527
-0.0253432
-0.0228708
-0.0205901
-0.0185505
-0.0167928
-0.0153444
-0.0142171
-0.013406
-0.0128894
-0.0126325
-0.0125908
-0.012715
-0.012956
-0.0132684
-0.0136128
-0.0139566
-0.0142737
-0.0145572
-0.0148137
-0.00191951
-0.00238922
-0.00271438
-0.00297664
-0.00324535
-0.00354755
-0.00390596
-0.00434114
-0.00486992
-0.00550636
-0.00626263
-0.00714938
-0.00817582
-0.00934952
-0.0106761
-0.012159
-0.0137987
-0.015593
-0.0175366
-0.0196206
-0.021833
-0.024159
-0.0265805
-0.0290772
-0.0316267
-0.0342052
-0.036788
-0.0393502
-0.0418673
-0.0443154
-0.0466724
-0.0489176
-0.0510324
-0.0530005
-0.0548076
-0.0564417
-0.0578929
-0.059153
-0.0602156
-0.0610757
-0.0617296
-0.0621744
-0.0624079
-0.0624287
-0.0622355
-0.0618275
-0.0612039
-0.0603644
-0.0593088
-0.0580374
-0.0565512
-0.0548524
-0.0529449
-0.050835
-0.0485322
-0.0460502
-0.0434084
-0.0406322
-0.0377545
-0.0348164
-0.0318667
-0.0289612
-0.0261613
-0.0235301
-0.021129
-0.0190122
-0.017222
-0.015784
-0.0147046
-0.0139698
-0.0135477
-0.0133919
-0.0134478
-0.0136579
-0.0139677
-0.014329
-0.0147009
-0.0150509
-0.0153703
-0.0156658
-0.00278589
-0.00325412
-0.00358215
-0.00385287
-0.00413691
-0.00446255
-0.00485345
-0.00533096
-0.00591252
-0.00661273
-0.00744419
-0.00841786
-0.00954307
-0.0108273
-0.0122759
-0.0138915
-0.0156739
-0.0176197
-0.0197217
-0.0219697
-0.0243497
-0.0268446
-0.0294344
-0.0320966
-0.0348068
-0.0375393
-0.040268
-0.0429666
-0.0456096
-0.0481729
-0.050634
-0.0529724
-0.0551702
-0.0572115
-0.0590833
-0.0607744
-0.0622761
-0.0635814
-0.0646849
-0.0655828
-0.0662722
-0.0667511
-0.067018
-0.0670719
-0.0669119
-0.0665372
-0.0659471
-0.0651406
-0.0641167
-0.0628746
-0.0614137
-0.0597339
-0.0578363
-0.0557237
-0.0534017
-0.0508793
-0.0481706
-0.0452961
-0.0422838
-0.0391705
-0.0360028
-0.0328365
-0.0297357
-0.0267703
-0.0240117
-0.0215279
-0.0193767
-0.0176001
-0.0162189
-0.0152308
-0.0146099
-0.0143112
-0.0142757
-0.0144386
-0.0147354
-0.0151079
-0.015506
-0.0158896
-0.0162468
-0.016585
-0.0037534
-0.00421578
-0.00454457
-0.00482307
-0.00512251
-0.00547217
-0.00589654
-0.00641754
-0.00705315
-0.00781839
-0.00872619
-0.00978771
-0.0110123
-0.0124073
-0.0139775
-0.0157248
-0.017648
-0.0197422
-0.0219988
-0.0244054
-0.0269463
-0.029602
-0.0323504
-0.035167
-0.0380253
-0.0408981
-0.0437577
-0.0465768
-0.0493294
-0.051991
-0.0545391
-0.056954
-0.0592182
-0.0613169
-0.0632381
-0.0649719
-0.0665108
-0.0678489
-0.0689822
-0.0699079
-0.0706239
-0.0711293
-0.0714232
-0.0715052
-0.071375
-0.071032
-0.0704754
-0.0697041
-0.0687168
-0.0675118
-0.0660871
-0.0644411
-0.0625724
-0.060481
-0.0581684
-0.0556394
-0.0529027
-0.0499729
-0.0468723
-0.043632
-0.0402938
-0.0369106
-0.0335468
-0.0302759
-0.0271771
-0.0243306
-0.0218099
-0.0196745
-0.0179632
-0.0166884
-0.0158349
-0.0153622
-0.0152099
-0.0153064
-0.0155776
-0.0159542
-0.0163755
-0.0167924
-0.0171894
-0.017574
-0.00481787
-0.00527006
-0.00559743
-0.00588289
-0.00619758
-0.00657156
-0.00702993
-0.00759508
-0.00828537
-0.00911612
-0.0101005
-0.0112498
-0.0125732
-0.0140777
-0.0157676
-0.017644
-0.0197042
-0.021942
-0.024347
-0.0269049
-0.0295978
-0.0324042
-0.0352997
-0.0382577
-0.04125
-0.0442478
-0.0472223
-0.0501454
-0.0529905
-0.0557334
-0.0583518
-0.0608266
-0.0631414
-0.0652824
-0.0672388
-0.0690021
-0.0705658
-0.0719256
-0.0730785
-0.0740226
-0.0747571
-0.0752816
-0.0755963
-0.0757014
-0.0755968
-0.0752825
-0.0747579
-0.074022
-0.0730733
-0.0719096
-0.0705283
-0.0689264
-0.0671009
-0.0650492
-0.0627697
-0.0602629
-0.0575326
-0.0545877
-0.0514437
-0.0481249
-0.0446667
-0.0411169
-0.0375366
-0.0339998
-0.0305906
-0.0273986
-0.0245118
-0.0220078
-0.0199451
-0.0183546
-0.0172362
-0.0165578
-0.016261
-0.0162695
-0.0165001
-0.0168719
-0.0173122
-0.0177617
-0.0182
-0.0186344
-0.00597336
-0.0064111
-0.00673483
-0.00702629
-0.00735582
-0.00775406
-0.00824654
-0.00885594
-0.00960085
-0.0104968
-0.011557
-0.0127929
-0.0142133
-0.0158249
-0.0176312
-0.0196322
-0.021824
-0.0241988
-0.0267444
-0.0294445
-0.0322789
-0.035224
-0.0382534
-0.0413386
-0.0444498
-0.0475567
-0.0506295
-0.0536398
-0.0565608
-0.0593684
-0.062041
-0.0645604
-0.0669111
-0.0690807
-0.0710596
-0.0728406
-0.0744185
-0.0757901
-0.0769536
-0.0779082
-0.0786538
-0.0791911
-0.0795208
-0.0796437
-0.0795604
-0.0792712
-0.0787759
-0.0780738
-0.0771634
-0.0760425
-0.0747081
-0.0731565
-0.0713835
-0.0693846
-0.0671558
-0.0646942
-0.0619991
-0.0590737
-0.0559269
-0.0525759
-0.0490482
-0.0453843
-0.0416397
-0.0378853
-0.0342062
-0.0306984
-0.0274617
-0.0245908
-0.0221648
-0.0202362
-0.0188236
-0.0179085
-0.0174385
-0.0173355
-0.0175084
-0.0178646
-0.0183186
-0.018799
-0.0192798
-0.0197672
-0.00721225
-0.00763141
-0.00794928
-0.00824561
-0.00858932
-0.00901139
-0.00953761
-0.0101908
-0.0109896
-0.0119496
-0.0130841
-0.0144042
-0.0159187
-0.0176336
-0.0195515
-0.0216713
-0.0239879
-0.0264916
-0.0291683
-0.0319998
-0.0349638
-0.0380346
-0.0411839
-0.0443813
-0.0475955
-0.0507954
-0.0539503
-0.0570314
-0.0600123
-0.0628691
-0.0655812
-0.0681312
-0.070505
-0.0726912
-0.0746817
-0.0764704
-0.0780535
-0.0794288
-0.0805956
-0.081554
-0.0823048
-0.0828493
-0.0831888
-0.0833248
-0.0832584
-0.0829904
-0.082521
-0.0818498
-0.0809757
-0.0798966
-0.0786096
-0.0771107
-0.075395
-0.073457
-0.0712909
-0.068891
-0.0662531
-0.0633753
-0.0602606
-0.0569186
-0.0533686
-0.0496426
-0.0457878
-0.0418692
-0.0379691
-0.0341859
-0.0306277
-0.027404
-0.0246139
-0.0223331
-0.0206027
-0.0194223
-0.0187503
-0.018511
-0.0186072
-0.0189354
-0.0193962
-0.019905
-0.0204289
-0.0209724
-0.00852541
-0.00892208
-0.00923184
-0.00953174
-0.00988869
-0.0103338
-0.0108929
-0.0115887
-0.01244
-0.0134622
-0.0146684
-0.0160697
-0.0176742
-0.0194873
-0.0215108
-0.0237424
-0.0261754
-0.0287985
-0.0315958
-0.0345469
-0.0376276
-0.0408102
-0.0440646
-0.0473589
-0.0506606
-0.0539376
-0.0571588
-0.0602956
-0.0633215
-0.0662136
-0.0689521
-0.0715207
-0.0739063
-0.0760993
-0.0780923
-0.0798807
-0.0814619
-0.0828346
-0.0839989
-0.0849559
-0.085707
-0.0862541
-0.0865993
-0.0867442
-0.0866907
-0.08644
-0.0859926
-0.0853488
-0.0845077
-0.0834678
-0.0822262
-0.0807793
-0.0791221
-0.0772485
-0.0751516
-0.0728239
-0.0702585
-0.0674495
-0.0643944
-0.0610961
-0.0575655