/*--------------------------------*- C++ -*----------------------------------*\
  =========                 |
  \\      /  F ield         | OpenFOAM: The Open Source CFD Toolbox
   \\    /   O peration     | Website:  https://openfoam.org
    \\  /    A nd           | Version:  7
     \\/     M anipulation  |
\*---------------------------------------------------------------------------*/
FoamFile
{
    version     2.0;
    format      ascii;
    class       volScalarField;
    location    "1.975";
    object      p;
}
// * * * * * * * * * * * * * * * * * * * * * * * * * * * * * * * * * * * * * //

dimensions      [0 2 -2 0 0 0 0];

internalField   nonuniform List<scalar> 
6400
(
-5.03096e-09
3.13724e-06
-2.88982e-05
-9.55936e-05
-0.000189491
-0.000303504
-0.000431593
-0.000568612
-0.000710573
-0.000854478
-0.000998169
-0.00114011
-0.00127921
-0.00141469
-0.00154592
-0.00167236
-0.00179344
-0.00190854
-0.00201692
-0.0021177
-0.00220991
-0.00229241
-0.00236398
-0.00242331
-0.00246902
-0.00249974
-0.0025141
-0.0025108
-0.00248866
-0.00244663
-0.00238388
-0.00229985
-0.00219423
-0.00206709
-0.00191885
-0.00175038
-0.00156295
-0.00135831
-0.00113867
-0.000906694
-0.000665491
-0.000418588
-0.000169868
7.64862e-05
0.000316065
0.000544327
0.000756698
0.000948678
0.00111596
0.00125455
0.00136088
0.00143193
0.00146528
0.00145928
0.00141301
0.00132643
0.00120031
0.00103627
0.000836752
0.000604946
0.000344729
6.05594e-05
-0.000242622
-0.0005595
-0.000884515
-0.00121197
-0.00153615
-0.00185137
-0.00215211
-0.00243307
-0.00268919
-0.00291574
-0.00310841
-0.00326339
-0.00337766
-0.00344942
-0.00347904
-0.00347068
-0.00343426
-0.00338774
-3.26581e-06
-2.13199e-07
-2.95037e-05
-8.75964e-05
-0.000168048
-0.000266046
-0.000377067
-0.000497022
-0.000622643
-0.000751298
-0.000880973
-0.00101015
-0.00113768
-0.00126269
-0.00138444
-0.0015023
-0.00161563
-0.00172374
-0.0018259
-0.00192126
-0.00200888
-0.0020877
-0.00215661
-0.00221442
-0.00225987
-0.00229172
-0.00230874
-0.00230976
-0.00229371
-0.00225967
-0.00220688
-0.00213482
-0.00204324
-0.00193219
-0.00180207
-0.00165365
-0.0014881
-0.00130701
-0.00111239
-0.000906666
-0.000692667
-0.000473601
-0.000253005
-3.46845e-05
0.000177348
0.000378963
0.000565998
0.000734371
0.000880175
0.000999794
0.00109001
0.00114809
0.00117189
0.00115994
0.00111148
0.00102649
0.000905753
0.000750808
0.000563934
0.000348095
0.000106874
-0.000155623
-0.000434859
-0.000725975
-0.0010239
-0.00132345
-0.00161944
-0.00190679
-0.00218055
-0.00243604
-0.00266887
-0.00287503
-0.00305099
-0.00319382
-0.00330138
-0.00337268
-0.00340863
-0.00341254
-0.00338792
-0.0033413
2.91736e-05
2.87289e-05
-1.23004e-06
-5.59888e-05
-0.000129748
-0.000218645
-0.000319121
-0.000427908
-0.000542261
-0.000659945
-0.00077919
-0.000898616
-0.00101715
-0.00113393
-0.00124823
-0.00135939
-0.00146677
-0.0015697
-0.00166743
-0.00175916
-0.00184397
-0.00192089
-0.00198885
-0.00204674
-0.00209339
-0.00212763
-0.00214831
-0.00215433
-0.00214468
-0.00211847
-0.00207498
-0.0020137
-0.00193436
-0.00183697
-0.00172187
-0.00158973
-0.00144161
-0.00127896
-0.00110361
-0.000917807
-0.000724161
-0.000525659
-0.000325591
-0.000127509
6.48351e-05
0.000247573
0.000416805
0.000568695
0.000699577
0.000806057
0.000885114
0.000934196
0.000951303
0.000935067
0.000884798
0.000800528
0.000683024
0.000533778
0.000354981
0.000149467
-7.93556e-05
-0.000327591
-0.000590951
-0.000864859
-0.00114456
-0.00142523
-0.00170207
-0.00197037
-0.00222565
-0.00246367
-0.00268053
-0.00287273
-0.00303725
-0.00317163
-0.0032741
-0.0033438
-0.00338133
-0.00338862
-0.00336358
-0.00330459
9.79062e-05
8.71668e-05
5.18846e-05
-4.00248e-06
-7.59299e-05
-0.000160611
-0.000255101
-0.000356752
-0.000463326
-0.000572994
-0.000684294
-0.00079607
-0.000907401
-0.00101754
-0.00112583
-0.00123167
-0.00133446
-0.00143356
-0.00152826
-0.00161779
-0.00170128
-0.00177779
-0.00184631
-0.00190575
-0.00195501
-0.00199294
-0.00201844
-0.00203043
-0.0020279
-0.00200997
-0.00197589
-0.00192511
-0.00185732
-0.00177246
-0.00167076
-0.0015528
-0.00141951
-0.00127219
-0.00111254
-0.000942647
-0.000764938
-0.00058224
-0.00039767
-0.000214613
-3.66534e-05
0.000132497
0.000289085
0.000429412
0.000549933
0.000647364
0.00071878
0.000761707
0.000774208
0.000754958
0.000703298
0.000619274
0.000503643
0.000357874
0.000184113
-1.4873e-05
-0.000235766
-0.000474784
-0.000727778
-0.000990343
-0.00125792
-0.00152593
-0.0017898
-0.00204515
-0.00228779
-0.00251383
-0.00271973
-0.00290235
-0.003059
-0.00318747
-0.00328608
-0.00335376
-0.00339059
-0.00339724
-0.00336761
-0.00329517
0.000196557
0.000169276
0.0001245
6.41596e-05
-9.07483e-06
-9.24607e-05
-0.000183592
-0.000280413
-0.000381197
-0.000484546
-0.000589343
-0.000694703
-0.000799921
-0.000904404
-0.00100763
-0.00110908
-0.00120824
-0.00130452
-0.00139726
-0.00148573
-0.00156912
-0.00164651
-0.00171691
-0.00177928
-0.00183253
-0.00187554
-0.00190718
-0.00192638
-0.00193211
-0.00192344
-0.00189958
-0.0018599
-0.00180401
-0.00173174
-0.00164322
-0.00153889
-0.00141955
-0.00128637
-0.00114089
-0.000985039
-0.000821143
-0.000651848
-0.00048015
-0.000309315
-0.00014282
1.57187e-05
0.00016263
0.000294278
0.000407173
0.000498071
0.000564072
0.000602719
0.000612083
0.000590842
0.000538333
0.000454589
0.000340357
0.000197084
2.68899e-05
-0.000167493
-0.000382793
-0.000615287
-0.00086091
-0.00111536
-0.00137421
-0.00163302
-0.00188744
-0.00213329
-0.00236663
-0.00258384
-0.00278168
-0.00295729
-0.0031082
-0.0032324
-0.00332821
-0.00339437
-0.0034305
-0.00343637
-0.00340347
-0.00332264
0.000318608
0.000270424
0.00021274
0.000145142
6.79501e-05
-1.66189e-05
-0.000106659
-0.000200698
-0.000297529
-0.000396192
-0.000495944
-0.000596209
-0.00069653
-0.000796515
-0.000895799
-0.000993995
-0.00109067
-0.00118533
-0.00127738
-0.00136613
-0.00145079
-0.0015305
-0.00160428
-0.0016711
-0.00172986
-0.00177943
-0.00181867
-0.00184644
-0.00186167
-0.00186336
-0.00185062
-0.00182275
-0.00177921
-0.00171972
-0.00164427
-0.00155316
-0.00144705
-0.00132695
-0.00119427
-0.00105079
-0.00089872
-0.000740595
-0.000579313
-0.000418062
-0.000260258
-0.000109478
3.06278e-05
0.000156429
0.000264426
0.000351351
0.000414269
0.000450681
0.000458617
0.000436708
0.000384254
0.000301251
0.000188415
4.71701e-05
-0.000120383
-0.000311525
-0.000523001
-0.000751111
-0.000991821
-0.00124088
-0.00149392
-0.00174661
-0.00199471
-0.0022342
-0.00246131
-0.00267265
-0.00286519
-0.00303626
-0.00318362
-0.00330534
-0.00339979
-0.00346556
-0.00350194
-0.00350816
-0.00347463
-0.00339117
0.000457843
0.000385624
0.000312475
0.000235353
0.000152014
6.41728e-05
-2.67376e-05
-0.00011982
-0.000214393
-0.000309947
-0.000406125
-0.000502684
-0.000599441
-0.000696235
-0.000792881
-0.000889143
-0.000984705
-0.00107916
-0.00117198
-0.00126253
-0.00135007
-0.00143374
-0.00151258
-0.00158554
-0.00165151
-0.00170931
-0.00175774
-0.00179561
-0.00182175
-0.00183505
-0.00183452
-0.00181931
-0.00178873
-0.00174237
-0.00168005
-0.00160192
-0.00150848
-0.00140058
-0.0012795
-0.00114689
-0.00100485
-0.000855832
-0.000702661
-0.000548484
-0.000396702
-0.000250898
-0.00011475
8.05986e-06
0.000113964
0.000199612
0.000261976
0.000298463
0.000307004
0.000286143
0.000235095
0.000153788
4.28832e-05
-9.62326e-05
-0.00026148
-0.000450147
-0.000658977
-0.000884266
-0.00112198
-0.00136786
-0.00161756
-0.00186678
-0.00211134
-0.00234731
-0.00257106
-0.00277931
-0.00296919
-0.00313821
-0.00328424
-0.00340546
-0.00350028
-0.00356721
-0.00360537
-0.00361369
-0.00358242
-0.00350145
0.000608163
0.00050974
0.000419251
0.000330879
0.000239693
0.000146928
5.35515e-05
-4.01142e-05
-0.000133914
-0.000227797
-0.000321809
-0.000416051
-0.000510633
-0.000605636
-0.000701076
-0.000796878
-0.000892853
-0.00098869
-0.00108394
-0.00117803
-0.00127023
-0.0013597
-0.00144547
-0.00152648
-0.00160155
-0.00166946
-0.00172892
-0.00177864
-0.00181732
-0.00184373
-0.00185672
-0.00185528
-0.00183857
-0.00180597
-0.00175714
-0.00169205
-0.00161103
-0.00151479
-0.00140443
-0.00128153
-0.00114804
-0.00100636
-0.000859275
-0.000709913
-0.00056169
-0.000418233
-0.000283297
-0.000160656
-5.39997e-05
3.3185e-05
9.77268e-05
0.00013688
0.000148428
0.000130772
8.29965e-05
4.92038e-06
-0.000102883
-0.000239089
-0.000401656
-0.000587889
-0.000794526
-0.00101784
-0.00125378
-0.00149803
-0.00174625
-0.0019941
-0.00223742
-0.0024723
-0.00269516
-0.00290283
-0.00309252
-0.00326183
-0.00340874
-0.00353152
-0.00362861
-0.00369853
-0.00374032
-0.00375278
-0.00372662
-0.00365243
0.000763727
0.000637647
0.000528482
0.000427593
0.000327291
0.000228328
0.000131208
3.56726e-05
-5.86551e-05
-0.000152191
-0.00024539
-0.000338705
-0.000432551
-0.000527258
-0.000623049
-0.000720017
-0.000818109
-0.000917114
-0.00101666
-0.00111621
-0.00121508
-0.00131241
-0.00140723
-0.00149841
-0.00158474
-0.00166488
-0.00173744
-0.00180101
-0.00185414
-0.00189544
-0.00192357
-0.00193733
-0.00193568
-0.00191781
-0.00188317
-0.00183154
-0.00176306
-0.00167827
-0.00157813
-0.00146408
-0.00133799
-0.00120219
-0.00105943
-0.000912841
-0.000765883
-0.000622254
-0.000485818
-0.000360489
-0.00025012
-0.000158382
-8.8646e-05
-4.38635e-05
-2.64571e-05
-3.82255e-05
-8.02659e-05
-0.000152921
-0.00025575
-0.000387529
-0.000546286
-0.000729364
-0.000933506
-0.00115497
-0.00138964
-0.00163317
-0.00188114
-0.00212917
-0.00237305
-0.00260885
-0.002833
-0.00304232
-0.00323407
-0.00340592
-0.00355589
-0.00368233
-0.00378371
-0.0038586
-0.003906
-0.0039247
-0.00390625
-0.00384231
0.000918959
0.000764252
0.000635504
0.000521211
0.00041087
0.000304744
0.000202866
0.00010438
8.37196e-06
-8.60475e-05
-0.000179749
-0.000273543
-0.000368146
-0.000464146
-0.000561975
-0.000661895
-0.000763986
-0.000868139
-0.000974051
-0.00108123
-0.001189
-0.00129651
-0.00140273
-0.00150649
-0.00160648
-0.00170125
-0.0017893
-0.00186903
-0.00193884
-0.00199712
-0.00204234
-0.00207308
-0.00208807
-0.00208627
-0.0020669
-0.00202953
-0.0019741
-0.00190094
-0.00181088
-0.00170521
-0.00158569
-0.00145459
-0.00131464
-0.00116898
-0.00102112
-0.000874862
-0.0007342
-0.000603226
-0.000485995
-0.00038641
-0.000308095
-0.000254266
-0.000227615
-0.000230201
-0.000263368
-0.000327681
-0.000422892
-0.00054793
-0.000700939
-0.000879332
-0.00107988
-0.00129884
-0.00153204
-0.00177507
-0.00202343
-0.00227265
-0.00251844
-0.00275678
-0.00298404
-0.00319701
-0.00339292
-0.00356944
-0.00372462
-0.00385682
-0.00396457
-0.00404646
-0.00410149
-0.00412847
-0.00412002
-0.00406908
0.0010684
0.000884465
0.000735567
0.000607297
0.000486282
0.000372283
0.000264843
0.000162495
6.37716e-05
-3.26946e-05
-0.000128191
-0.000223888
-0.000320807
-0.000419787
-0.000521469
-0.000626283
-0.000734438
-0.000845919
-0.00096049
-0.00107769
-0.00119686
-0.00131711
-0.00143738
-0.00155641
-0.00167277
-0.00178491
-0.00189114
-0.00198969
-0.00207876
-0.00215651
-0.00222117
-0.00227107
-0.00230469
-0.00232073
-0.00231816
-0.00229629
-0.00225484
-0.00219394
-0.00211422
-0.00201682
-0.00190341
-0.00177617
-0.00163778
-0.00149139
-0.0013406
-0.00118929
-0.00104164
-0.000901922
-0.000774445
-0.000663387
-0.000572678
-0.000505863
-0.000465969
-0.000455389
-0.000475787
-0.000528027
-0.000612125
-0.000727236
-0.000871675
-0.00104298
-0.001238
-0.00145298
-0.00168374
-0.0019258
-0.00217455
-0.00242541
-0.00267396
-0.00291605
-0.00314793
-0.00336628
-0.00356826
-0.00375149
-0.00391396
-0.00405403
-0.00417023
-0.00426117
-0.00432583
-0.00436302
-0.00436658
-0.00433083
0.00120665
0.000993186
0.000823847
0.000681275
0.000549188
0.00042681
0.000313174
0.000206183
0.000103801
4.17447e-06
-9.44028e-05
-0.00019346
-0.000294319
-0.000398069
-0.000505551
-0.000617359
-0.000733824
-0.00085502
-0.00098077
-0.00111064
-0.00124396
-0.00137981
-0.00151705
-0.00165435
-0.00179014
-0.00192271
-0.0020502
-0.00217062
-0.00228194
-0.00238206
-0.00246896
-0.00254067
-0.0025954
-0.00263154
-0.00264778
-0.00264317
-0.00261715
-0.00256961
-0.00250098
-0.00241228
-0.00230485
-0.00218094
-0.00204314
-0.0018946
-0.00173897
-0.00158025
-0.00142279
-0.00127108
-0.00112971
-0.00100318
-0.000895791
-0.000811472
-0.000753662
-0.000725171
-0.000728071
-0.000763613
-0.00083217
-0.000933205
-0.00106529
-0.00122615
-0.00141275
-0.00162141
-0.00184793
-0.00208779
-0.00233626
-0.0025886
-0.00284025
-0.00308687
-0.00332453
-0.00354975
-0.00375953
-0.00395136
-0.00412315
-0.00427315
-0.00439985
-0.00450188
-0.0045781
-0.00462738
-0.0046447
-0.00462592
0.00132833
0.00108529
0.000895447
0.000738458
0.000595085
0.000463985
0.000343649
0.000231327
0.000124402
2.05297e-05
-8.24226e-05
-0.000186338
-0.000292836
-0.000403247
-0.000518611
-0.000639672
-0.000766878
-0.000900385
-0.00104006
-0.00118549
-0.00133599
-0.00149058
-0.00164807
-0.00180697
-0.0019656
-0.00212206
-0.00227428
-0.00242005
-0.00255706
-0.00268295
-0.00279538
-0.00289208
-0.00297092
-0.00302998
-0.00306763
-0.0030826
-0.00307401
-0.0030415
-0.00298529
-0.00290633
-0.00280507
-0.00268433
-0.00254649
-0.00239463
-0.00223243
-0.00206401
-0.00189388
-0.00172678
-0.00156761
-0.00142124
-0.00129237
-0.00118542
-0.00110429
-0.00105232
-0.00103209
-0.00104534
-0.00109291
-0.00117467
-0.00128955
-0.00143555
-0.00160984
-0.00180885
-0.00202844
-0.00226401
-0.00251076
-0.0027638
-0.00301832
-0.00326978
-0.00351401
-0.00374729
-0.00396639
-0.00416857
-0.00435159
-0.00451353
-0.00465278
-0.00476787
-0.00485752
-0.00492076
-0.00495341
-0.00495305
0.00142804
0.00115562
0.000945412
0.000774058
0.000619338
0.000479296
0.00035185
0.000233575
0.000121261
1.20583e-05
-9.65872e-05
-0.000206914
-0.00032083
-0.000439904
-0.000565363
-0.000698096
-0.00083866
-0.000987283
-0.00114387
-0.00130801
-0.001479
-0.00165579
-0.00183709
-0.0020213
-0.00220656
-0.00239078
-0.00257166
-0.00274672
-0.00291337
-0.00306894
-0.00321076
-0.00333619
-0.00344276
-0.00352819
-0.00359046
-0.00362795
-0.00363945
-0.00362426
-0.00358219
-0.00351348
-0.00342017
-0.00330314
-0.00316504
-0.00300902
-0.00283875
-0.00265845
-0.00247281
-0.00228682
-0.0021057
-0.00193473
-0.0017791
-0.00164374
-0.00153315
-0.00145128
-0.00140131
-0.00138563
-0.00140565
-0.00146179
-0.00155345
-0.00167902
-0.00183597
-0.00202093
-0.00222986
-0.00245816
-0.00270093
-0.00295309
-0.00320964
-0.00346574
-0.0037169
-0.00395909
-0.00418876
-0.00440289
-0.00459894
-0.00477477
-0.00492856
-0.00505871
-0.00516379
-0.00524236
-0.00529195
-0.00531134
0.00150037
0.00119901
0.00096875
0.000783225
0.000617212
0.000468104
0.000333204
0.000208392
8.98513e-05
-2.57774e-05
-0.000141473
-0.000259826
-0.000383028
-0.000512879
-0.000650784
-0.000797771
-0.000954495
-0.00112125
-0.00129797
-0.00148424
-0.0016793
-0.00188207
-0.00209112
-0.00230471
-0.0025208
-0.00273709
-0.00295101
-0.00315982
-0.00336059
-0.00355032
-0.00372597
-0.00388453
-0.0040231
-0.004139
-0.0042298
-0.00429347
-0.0043284
-0.00433351
-0.00430828
-0.00425279
-0.00416806
-0.00405549
-0.00391738
-0.00375673
-0.00357719
-0.00338305
-0.00317913
-0.0029707
-0.0027633
-0.00256266
-0.00237449
-0.00220435
-0.0020574
-0.00193831
-0.00185102
-0.00179867
-0.00178341
-0.00180635
-0.0018675
-0.0019658
-0.00209913
-0.00226443
-0.00245783
-0.0026748
-0.00291036
-0.00315928
-0.00341628
-0.00367619
-0.00393416
-0.00418573
-0.00442696
-0.0046544
-0.00486515
-0.00505671
-0.00522699
-0.00537413
-0.00549641
-0.0055921
-0.00566003
-0.00570037
0.00153991
0.00121027
0.000960461
0.000761085
0.000583927
0.000425689
0.000283031
0.000151116
2.55026e-05
-9.76792e-05
-0.000221833
-0.0003499
-0.000484349
-0.000627205
-0.000780044
-0.000944024
-0.00111989
-0.001308
-0.0015083
-0.00172038
-0.00194342
-0.00217625
-0.00241732
-0.00266475
-0.0029163
-0.00316941
-0.00342126
-0.00366879
-0.00390874
-0.00413772
-0.00435229
-0.00454901
-0.00472456
-0.00487577
-0.00499976
-0.00509402
-0.00515648
-0.0051856
-0.00518046
-0.00514077
-0.00506704
-0.00496051
-0.00482321
-0.00465797
-0.00446837
-0.00425871
-0.00403393
-0.00379954
-0.00356144
-0.00332582
-0.00309896
-0.0028871
-0.00269618
-0.00253169
-0.00239849
-0.00230061
-0.0022411
-0.00222194
-0.00224394
-0.00230672
-0.00240877
-0.00254746
-0.0027192
-0.00291959
-0.00314364
-0.00338597
-0.003641
-0.0039032
-0.00416726
-0.00442824
-0.00468164
-0.00492352
-0.00515046
-0.00535951
-0.00554815
-0.00571418
-0.00585549
-0.00596997
-0.00605766
-0.00612015
0.0015413
0.00118429
0.000915577
0.000702776
0.000514697
0.000347314
0.000196613
5.70203e-05
-7.65341e-05
-0.000208438
-0.000342521
-0.000482066
-0.000629821
-0.000788024
-0.00095842
-0.00114229
-0.00134047
-0.00155336
-0.00178093
-0.00202274
-0.00227793
-0.00254523
-0.00282298
-0.00310909
-0.00340113
-0.00369629
-0.00399146
-0.00428324
-0.00456799
-0.00484192
-0.00510116
-0.00534179
-0.00556
-0.00575211
-0.00591473
-0.00604478
-0.00613968
-0.00619736
-0.00621638
-0.006196
-0.00613627
-0.00603805
-0.00590306
-0.00573387
-0.00553392
-0.00530748
-0.00505958
-0.00479591
-0.00452273
-0.00424669
-0.0039747
-0.00371374
-0.0034706
-0.00325176
-0.00306308
-0.00290967
-0.0027957
-0.00272418
-0.00269694
-0.00271449
-0.00277609
-0.00287972
-0.00302222
-0.00319944
-0.00340643
-0.0036377
-0.00388738
-0.00414952
-0.00441829
-0.00468812
-0.00495391
-0.00521104
-0.00545545
-0.00568359
-0.0058924
-0.0060792
-0.00624135
-0.00637629
-0.0064852
-0.00657113
0.00149926
0.00111603
0.000829213
0.000603509
0.000404795
0.00022828
6.92519e-05
-7.86098e-05
-0.000221011
-0.000362859
-0.000508407
-0.000661279
-0.000824495
-0.0010005
-0.00119121
-0.00139802
-0.00162184
-0.00186313
-0.00212188
-0.00239761
-0.0026894
-0.0029959
-0.00331529
-0.00364531
-0.00398331
-0.00432621
-0.00467057
-0.00501265
-0.00534841
-0.00567362
-0.00598393
-0.00627491
-0.00654221
-0.00678158
-0.00698903
-0.0071609
-0.00729398
-0.0073856
-0.00743372
-0.00743705
-0.0073951
-0.00730824
-0.00717779
-0.00700599
-0.00679607
-0.00655216
-0.00627931
-0.00598338
-0.00567093
-0.0053491
-0.00502543
-0.00470769
-0.00440363
-0.00412077
-0.00386618
-0.00364622
-0.00346633
-0.00333083
-0.00324277
-0.0032038
-0.00321417
-0.00327267
-0.00337677
-0.0035227
-0.00370569
-0.00392014
-0.00415995
-0.00441871
-0.00468997
-0.00496748
-0.00524535
-0.00551816
-0.00578105
-0.00602971
-0.00626039
-0.00646979
-0.00665461
-0.00681171
-0.00694339
-0.00705416
0.00140864
0.00100058
0.000696628
0.000458626
0.000249608
6.39916e-05
-0.000103654
-0.000260405
-0.000412604
-0.000565676
-0.000724297
-0.000892427
-0.00107335
-0.00126973
-0.00148362
-0.00171655
-0.00196952
-0.00224302
-0.00253704
-0.0028511
-0.00318422
-0.00353492
-0.00390126
-0.00428078
-0.00467059
-0.00506733
-0.00546725
-0.0058662
-0.00625973
-0.00664314
-0.00701155
-0.00736
-0.00768351
-0.00797724
-0.00823651
-0.00845701
-0.00863483
-0.0087666
-0.00884962
-0.00888192
-0.00886239
-0.00879081
-0.00866798
-0.00849574
-0.00827695
-0.00801558
-0.0077166
-0.00738596
-0.00703048
-0.00665775
-0.00627596
-0.00589368
-0.00551969
-0.00516268
-0.00483105
-0.00453257
-0.0042742
-0.00406178
-0.00389983
-0.00379144
-0.0037381
-0.00373968
-0.00379449
-0.00389935
-0.00404977
-0.00424022
-0.00446433
-0.00471523
-0.00498581
-0.00526902
-0.00555804
-0.00584649
-0.00612854
-0.00639895
-0.00665307
-0.00688684
-0.00709616
-0.00727719
-0.0074333
-0.00757047
0.00126453
0.000833272
0.000513281
0.000263665
4.47148e-05
-0.000149966
-0.000326539
-0.000492834
-0.000655829
-0.000821466
-0.000994834
-0.00118023
-0.0013812
-0.0016006
-0.00184067
-0.00210304
-0.00238878
-0.00269845
-0.00303204
-0.00338905
-0.00376844
-0.00416862
-0.00458749
-0.00502242
-0.00547025
-0.00592735
-0.00638959
-0.00685245
-0.00731101
-0.00776007
-0.0081942
-0.00860783
-0.00899534
-0.00935118
-0.00966999
-0.00994668
-0.0101766
-0.0103555
-0.0104801
-0.0105475
-0.0105559
-0.0105044
-0.0103931
-0.0102235
-0.00999787
-0.0097199
-0.0093944
-0.00902732
-0.00862569
-0.00819748
-0.00775148
-0.00729712
-0.0068442
-0.00640269
-0.00598241
-0.00559275
-0.00524238
-0.0049389
-0.00468862
-0.00449632
-0.00436508
-0.00429613
-0.00428891
-0.00434107
-0.00444862
-0.00460619
-0.00480727
-0.00504452
-0.00531013
-0.00559612
-0.00589462
-0.00619811
-0.00649959
-0.00679266
-0.00707164
-0.00733149
-0.00756715
-0.00777392
-0.00795624
-0.00812162
0.00106226
0.000609687
0.000274905
1.44278e-05
-0.000214052
-0.000417755
-0.000603584
-0.000780115
-0.000954954
-0.00113455
-0.00132441
-0.00152914
-0.00175256
-0.00199774
-0.00226706
-0.00256227
-0.00288454
-0.00323447
-0.00361207
-0.00401682
-0.0044476
-0.00490274
-0.00537998
-0.00587649
-0.00638887
-0.00691315
-0.00744486
-0.00797905
-0.00851032
-0.00903294
-0.00954088
-0.0100279
-0.0104878
-0.0109141
-0.0113007
-0.0116418
-0.0119318
-0.0121657
-0.0123391
-0.0124485
-0.0124912
-0.0124655
-0.0123708
-0.0122078
-0.0119783
-0.0116855
-0.0113341
-0.0109298
-0.0104798
-0.00999231
-0.00947673
-0.00894325
-0.00840275
-0.00786649
-0.00734584
-0.00685194
-0.00639536
-0.00598574
-0.00563145
-0.0053393
-0.00511428
-0.00495938
-0.00487548
-0.00486136
-0.00491381
-0.00502782
-0.00519683
-0.00541313
-0.00566814
-0.00595289
-0.00625831
-0.00657554
-0.0068962
-0.00721254
-0.00751758
-0.00780512
-0.00806895
-0.00830333
-0.0085138
-0.0087094
0.000797532
0.000325763
-2.24289e-05
-0.000292946
-0.000530525
-0.000743211
-0.000938645
-0.00112614
-0.00131391
-0.00150892
-0.00171705
-0.00194325
-0.00219159
-0.00246534
-0.00276705
-0.00309859
-0.00346123
-0.0038556
-0.00428175
-0.00473914
-0.0052266
-0.00574234
-0.00628396
-0.00684842
-0.00743205
-0.00803059
-0.00863917
-0.00925239
-0.00986437
-0.0104688
-0.011059
-0.011628
-0.0121689
-0.0126745
-0.0131378
-0.013552
-0.0139106
-0.0142078
-0.0144382
-0.0145972
-0.0146813
-0.0146879
-0.0146155
-0.014464
-0.0142347
-0.0139301
-0.0135544
-0.0131133
-0.0126138
-0.0120644
-0.0114748
-0.0108561
-0.0102201
-0.0095794
-0.00894695
-0.00833576
-0.00775849
-0.00722702
-0.00675209
-0.00634289
-0.00600672
-0.00574868
-0.00557152
-0.00547555
-0.00545863
-0.00551639
-0.00564243
-0.00582873
-0.00606602
-0.00634423
-0.00665294
-0.00698179
-0.00732078
-0.00766054
-0.00799258
-0.0083093
-0.0086031
-0.00886704
-0.00910773
-0.00933586
0.000466487
-2.21418e-05
-0.000382234
-0.00066191
-0.00090813
-0.00112976
-0.00133516
-0.00153438
-0.00173621
-0.0019481
-0.00217633
-0.00242617
-0.00270193
-0.00300709
-0.00334437
-0.00371576
-0.00412263
-0.00456567
-0.00504498
-0.00555997
-0.00610944
-0.0066915
-0.00730359
-0.00794247
-0.00860421
-0.0092842
-0.00997718
-0.0106773
-0.0113781
-0.0120727
-0.0127538
-0.0134137
-0.0140446
-0.0146385
-0.0151875
-0.0156838
-0.01612
-0.0164892
-0.016785
-0.0170018
-0.0171351
-0.0171811
-0.0171377
-0.0170036
-0.0167795
-0.0164671
-0.0160702
-0.0155939
-0.0150451
-0.0144325
-0.013766
-0.0130572
-0.012319
-0.0115652
-0.0108103
-0.0100693
-0.00935701
-0.00868783
-0.00807511
-0.00753077
-0.00706479
-0.00668487
-0.00639607
-0.00620065
-0.006098
-0.00608472
-0.00615485
-0.00630023
-0.00651094
-0.00677582
-0.00708298
-0.00742035
-0.00777608
-0.00813891
-0.00849855
-0.00884575
-0.00917126
-0.00946676
-0.00973992
-0.0100031
6.57564e-05
-0.00043718
-0.000807544
-0.00109544
-0.00134982
-0.00158034
-0.0017961
-0.0020078
-0.00222484
-0.00245511
-0.00270528
-0.00298093
-0.00328662
-0.00362603
-0.00400204
-0.00441681
-0.00487177
-0.00536771
-0.00590474
-0.00648229
-0.0070991
-0.00775319
-0.00844184
-0.00916161
-0.00990827
-0.0106769
-0.0114618
-0.0122567
-0.0130545
-0.0138477
-0.0146283
-0.0153878
-0.0161177
-0.0168089
-0.0174526
-0.0180401
-0.018563
-0.0190131
-0.019383
-0.0196661
-0.0198567
-0.01995
-0.0199428
-0.0198329
-0.0196199
-0.019305
-0.018891
-0.0183826
-0.0177864
-0.0171108
-0.0163661
-0.0155642
-0.0147187
-0.0138446
-0.012958
-0.0120758
-0.011215
-0.0103927
-0.00962505
-0.00892704
-0.00831177
-0.00778997
-0.00736955
-0.00705523
-0.00684841
-0.00674714
-0.00674625
-0.00683771
-0.00701111
-0.0072542
-0.00755356
-0.00789521
-0.0082652
-0.00865012
-0.00903755
-0.00941629
-0.00977519
-0.0101043
-0.0104123
-0.0107135
-0.000407445
-0.00092194
-0.00130084
-0.00159595
-0.00185798
-0.00209735
-0.00232384
-0.00254881
-0.0027822
-0.00303235
-0.00330629
-0.00360991
-0.003948
-0.00432446
-0.00474234
-0.00520392
-0.00571077
-0.00626374
-0.006863
-0.00750797
-0.00819734
-0.00892905
-0.00970022
-0.0105072
-0.0113455
-0.0122097
-0.0130939
-0.0139911
-0.0148939
-0.0157938
-0.0166823
-0.0175501
-0.0183875
-0.0191849
-0.0199322
-0.0206198
-0.0212381
-0.0217779
-0.0222307
-0.0225886
-0.0228448
-0.0229935
-0.0230302
-0.0229519
-0.0227569
-0.0224456
-0.02202
-0.0214841
-0.020844
-0.0201076
-0.0192853
-0.0183892
-0.0174335
-0.0164341
-0.0154085
-0.0143754
-0.0133541
-0.0123643
-0.0114253
-0.0105553
-0.00977099
-0.00908655
-0.00851327
-0.00805897
-0.00772763
-0.0075193
-0.00743008
-0.00745245
-0.00757574
-0.00778674
-0.00807044
-0.00841082
-0.0087916
-0.00919687
-0.00961177
-0.0100228
-0.0104166
-0.0107813
-0.0111267
-0.011469
-0.000955256
-0.00147839
-0.00186397
-0.00216526
-0.0024344
-0.00268254
-0.00292013
-0.00315914
-0.00341001
-0.00368151
-0.00398102
-0.0043147
-0.0046876
-0.00510383
-0.0055666
-0.00607834
-0.00664074
-0.00725474
-0.00792054
-0.0086376
-0.00940455
-0.0102192
-0.0110786
-0.0119788
-0.0129151
-0.0138817
-0.0148721
-0.015879
-0.0168941
-0.0179085
-0.0189128
-0.0198967
-0.02085
-0.0217617
-0.022621
-0.023417
-0.0241391
-0.0247769
-0.0253208
-0.0257618
-0.0260919
-0.026304
-0.0263927
-0.0263536
-0.0261841
-0.0258836
-0.025453
-0.0248956
-0.0242166
-0.0234237
-0.0225266
-0.0215377
-0.0204713
-0.0193441
-0.0181748
-0.0169835
-0.0157919
-0.0146222
-0.0134968
-0.0124376
-0.0114648
-0.0105968
-0.00984879
-0.00923221
-0.00875436
-0.00841792
-0.00822091
-0.00815681
-0.00821504
-0.00838163
-0.00864005
-0.00897213
-0.00935902
-0.00978202
-0.0102235
-0.0106672
-0.0110973
-0.0114996
-0.0118851
-0.0122717
-0.00157911
-0.0021078
-0.00249815
-0.00280452
-0.00308019
-0.00333701
-0.00358604
-0.00383982
-0.00410926
-0.00440352
-0.00473032
-0.00509607
-0.00550609
-0.00596466
-0.00647518
-0.00704025
-0.00766165
-0.00834044
-0.00907686
-0.00987037
-0.0107196
-0.0116223
-0.0125752
-0.0135742
-0.0146144
-0.0156894
-0.0167925
-0.0179156
-0.0190499
-0.0201858
-0.021313
-0.0224204
-0.0234968
-0.0245303
-0.025509
-0.0264209
-0.0272543
-0.0279978
-0.0286405
-0.0291722
-0.0295838
-0.0298672
-0.0300156
-0.0300236
-0.0298875
-0.0296054
-0.0291775
-0.0286057
-0.0278947
-0.0270513
-0.0260846
-0.0250067
-0.0238321
-0.0225776
-0.0212629
-0.0199093
-0.0185405
-0.0171812
-0.0158568
-0.0145927
-0.0134135
-0.0123417
-0.011397
-0.0105952
-0.00994765
-0.00946044
-0.00913418
-0.00896403
-0.00894004
-0.0090478
-0.0092694
-0.0095845
-0.0099715
-0.0104086
-0.0108749
-0.0113513
-0.0118189
-0.0122607
-0.0126889
-0.0131236
-0.00227968
-0.00281073
-0.00320384
-0.00351415
-0.00379574
-0.00406111
-0.00432189
-0.00459111
-0.00488014
-0.00519848
-0.00555417
-0.00595388
-0.00640315
-0.00690646
-0.00746739
-0.00808869
-0.00877227
-0.00951928
-0.01033
-0.011204
-0.0121397
-0.0131349
-0.0141861
-0.015289
-0.0164382
-0.0176273
-0.0188486
-0.0200937
-0.0213532
-0.0226166
-0.0238728
-0.0251099
-0.0263156
-0.0274772
-0.0285816
-0.0296158
-0.0305669
-0.0314225
-0.0321705
-0.0327998
-0.0332999
-0.0336616
-0.0338771
-0.0339398
-0.0338449
-0.0335894
-0.0331723
-0.0325946
-0.0318598
-0.0309736
-0.0299448
-0.0287845
-0.0275069
-0.0261289
-0.0246705
-0.0231542
-0.0216049
-0.0200497
-0.0185168
-0.0170353
-0.0156338
-0.0143395
-0.013177
-0.0121673
-0.0113262
-0.0106644
-0.0101858
-0.00988802
-0.00976247
-0.00979481
-0.00996602
-0.0102537
-0.0106333
-0.0110797
-0.0115684
-0.0120769
-0.0125826
-0.0130658
-0.0135394
-0.0140261
-0.00305684
-0.00358696
-0.00398078
-0.00429383
-0.0045807
-0.00485443
-0.00512718
-0.00541245
-0.00572198
-0.00606562
-0.00645165
-0.00688702
-0.00737746
-0.00792767
-0.00854138
-0.0092215
-0.00997008
-0.0107883
-0.0116767
-0.0126346
-0.0136605
-0.0147521
-0.0159057
-0.0171167
-0.0183795
-0.019687
-0.0210313
-0.0224033
-0.0237927
-0.0251884
-0.0265785
-0.0279502
-0.0292902
-0.0305847
-0.0318196
-0.032981
-0.0340549
-0.0350277
-0.0358864
-0.0366186
-0.0372129
-0.0376592
-0.0379483
-0.0380727
-0.0380266
-0.0378057
-0.037408
-0.0368333
-0.0360839
-0.0351647
-0.034083
-0.0328494
-0.0314771
-0.0299828
-0.0283863
-0.0267106
-0.0249818
-0.0232286
-0.0214819
-0.019774
-0.0181375
-0.0166046
-0.0152052
-0.0139657
-0.0129077
-0.0120468
-0.0113915
-0.0109429
-0.0106945
-0.0106327
-0.0107379
-0.0109857
-0.0113488
-0.0117984
-0.0123061
-0.0128453
-0.0133896
-0.0139158
-0.0144377
-0.0149802
-0.00390964
-0.00443549
-0.0048279
-0.00514248
-0.00543391
-0.00571575
-0.00600063
-0.00630245
-0.00663327
-0.00700323
-0.00742088
-0.00789338
-0.00842667
-0.00902562
-0.00969414
-0.0104353
-0.0112512
-0.0121433
-0.0131119
-0.0141566
-0.0152758
-0.0164669
-0.0177262
-0.0190487
-0.0204285
-0.021858
-0.0233288
-0.0248312
-0.0263541
-0.0278857
-0.0294132
-0.0309228
-0.0324003
-0.033831
-0.0351998
-0.0364916
-0.0376916
-0.038785
-0.0397579
-0.040597
-0.04129
-0.0418255
-0.0421937
-0.042386
-0.0423955
-0.0422169
-0.041847
-0.0412846
-0.0405308
-0.0395891
-0.0384657
-0.03717
-0.0357141
-0.0341139
-0.0323887
-0.0305614
-0.0286585
-0.0267099
-0.0247487
-0.0228098
-0.0209301
-0.0191462
-0.0174935
-0.0160046
-0.0147073
-0.0136232
-0.0127664
-0.0121426
-0.0117483
-0.0115716
-0.0115931
-0.0117868
-0.0121225
-0.0125678
-0.01309
-0.0136579
-0.0142408
-0.0148112
-0.0153842
-0.0159867
-0.00483629
-0.00535449
-0.00574337
-0.00605821
-0.00635344
-0.00664307
-0.00694014
-0.00725887
-0.0076116
-0.00800874
-0.00845904
-0.00896986
-0.00954735
-0.0101965
-0.0109215
-0.0117254
-0.0126106
-0.0135784
-0.0146294
-0.015763
-0.0169777
-0.0182706
-0.0196379
-0.0210744
-0.0225734
-0.0241274
-0.025727
-0.0273618
-0.0290204
-0.0306898
-0.0323565
-0.0340058
-0.0356225
-0.0371909
-0.0386949
-0.0401186
-0.0414461
-0.0426618
-0.0437508
-0.044699
-0.0454932
-0.0461214
-0.0465726
-0.0468376
-0.0469084
-0.046779
-0.046445
-0.0459041
-0.0451562
-0.0442034
-0.0430507
-0.0417059
-0.04018
-0.0384873
-0.0366463
-0.0346792
-0.0326123
-0.030476
-0.0283047
-0.0261358
-0.0240094
-0.0219666
-0.0200485
-0.0182937
-0.0167369
-0.0154069
-0.0143241
-0.0135
-0.0129356
-0.0126217
-0.0125398
-0.0126631
-0.0129589
-0.0133908
-0.0139217
-0.0145154
-0.0151362
-0.0157521
-0.0163787
-0.0170453
-0.00583415
-0.00634137
-0.00672458
-0.00703838