/*--------------------------------*- C++ -*----------------------------------*\
  =========                 |
  \\      /  F ield         | OpenFOAM: The Open Source CFD Toolbox
   \\    /   O peration     | Website:  https://openfoam.org
    \\  /    A nd           | Version:  7
     \\/     M anipulation  |
\*---------------------------------------------------------------------------*/
FoamFile
{
    version     2.0;
    format      ascii;
    class       volVectorField;
    location    "1.975";
    object      U;
}
// * * * * * * * * * * * * * * * * * * * * * * * * * * * * * * * * * * * * * //

dimensions      [0 1 -1 0 0 0 0];

internalField   nonuniform List<vector> 
6400
(
(1.14241e-05 -1.13632e-05 0)
(4.93494e-05 -2.37216e-05 0)
(0.000101078 -2.40083e-05 0)
(0.000140824 -1.74751e-05 0)
(0.000155696 -8.11264e-06 0)
(0.000141307 2.00834e-06 0)
(9.69153e-05 1.17948e-05 0)
(2.36619e-05 2.07463e-05 0)
(-7.62753e-05 2.87051e-05 0)
(-0.000200335 3.56722e-05 0)
(-0.00034593 4.1731e-05 0)
(-0.000510654 4.70064e-05 0)
(-0.000692376 5.16346e-05 0)
(-0.000889282 5.57478e-05 0)
(-0.00109985 5.94602e-05 0)
(-0.00132284 6.28664e-05 0)
(-0.0015572 6.60358e-05 0)
(-0.00180203 6.90125e-05 0)
(-0.00205651 7.1817e-05 0)
(-0.00231982 7.44472e-05 0)
(-0.00259109 7.68816e-05 0)
(-0.00286937 7.9081e-05 0)
(-0.00315354 8.0993e-05 0)
(-0.00344231 8.25544e-05 0)
(-0.00373417 8.3694e-05 0)
(-0.0040274 8.43354e-05 0)
(-0.00432005 8.43997e-05 0)
(-0.00460991 8.38083e-05 0)
(-0.00489457 8.24845e-05 0)
(-0.00517139 8.03568e-05 0)
(-0.00543755 7.7361e-05 0)
(-0.00569009 7.34424e-05 0)
(-0.00592589 6.85577e-05 0)
(-0.00614178 6.26776e-05 0)
(-0.00633457 5.57899e-05 0)
(-0.00650109 4.79008e-05 0)
(-0.00663825 3.90369e-05 0)
(-0.00674314 2.92466e-05 0)
(-0.00681308 1.86023e-05 0)
(-0.00684568 7.20142e-06 0)
(-0.00683892 -4.83683e-06 0)
(-0.00679123 -1.73678e-05 0)
(-0.00670155 -3.02241e-05 0)
(-0.00656937 -4.32183e-05 0)
(-0.00639482 -5.61459e-05 0)
(-0.00617867 -6.87894e-05 0)
(-0.00592239 -8.09226e-05 0)
(-0.00562812 -9.23155e-05 0)
(-0.00529873 -0.000102741 0)
(-0.00493772 -0.000111982 0)
(-0.00454925 -0.000119837 0)
(-0.00413804 -0.000126127 0)
(-0.00370928 -0.0001307 0)
(-0.0032686 -0.000133439 0)
(-0.00282187 -0.000134268 0)
(-0.00237518 -0.000133148 0)
(-0.00193463 -0.000130087 0)
(-0.00150626 -0.000125137 0)
(-0.00109588 -0.000118392 0)
(-0.000708958 -0.000109986 0)
(-0.000350525 -0.00010009 0)
(-2.50406e-05 -8.89049e-05 0)
(0.000263675 -7.66557e-05 0)
(0.000512521 -6.35837e-05 0)
(0.000719165 -4.99434e-05 0)
(0.000882081 -3.59924e-05 0)
(0.00100057 -2.19896e-05 0)
(0.00107476 -8.19208e-06 0)
(0.00110565 5.14335e-06 0)
(0.0010951 1.77552e-05 0)
(0.00104586 2.9366e-05 0)
(0.00096167 3.96572e-05 0)
(0.000847368 4.82386e-05 0)
(0.000709119 5.45933e-05 0)
(0.000554753 5.7996e-05 0)
(0.000394271 5.74189e-05 0)
(0.00024038 5.14606e-05 0)
(0.000108884 3.83051e-05 0)
(1.93085e-05 1.6678e-05 0)
(-6.14791e-06 -6.11491e-06 0)
(2.41385e-05 -4.95568e-05 0)
(8.91699e-05 -8.84793e-05 0)
(0.000161065 -7.98111e-05 0)
(0.000196568 -4.27907e-05 0)
(0.000171654 8.37771e-06 0)
(7.58227e-05 6.48654e-05 0)
(-9.44169e-05 0.000121396 0)
(-0.000338001 0.000175071 0)
(-0.000651109 0.000224481 0)
(-0.00102856 0.000269139 0)
(-0.00146464 0.000309104 0)
(-0.00195374 0.000344749 0)
(-0.00249058 0.000376591 0)
(-0.00307048 0.000405186 0)
(-0.00368929 0.00043105 0)
(-0.0043434 0.000454619 0)
(-0.00502962 0.000476217 0)
(-0.00574504 0.000496046 0)
(-0.00648689 0.000514183 0)
(-0.00725238 0.000530589 0)
(-0.00803857 0.000545114 0)
(-0.00884224 0.000557519 0)
(-0.00965979 0.000567485 0)
(-0.0104872 0.000574637 0)
(-0.0113197 0.000578557 0)
(-0.0121524 0.000578804 0)
(-0.0129793 0.000574927 0)
(-0.0137942 0.000566485 0)
(-0.0145903 0.000553058 0)
(-0.0153601 0.00053427 0)
(-0.016096 0.000509791 0)
(-0.0167897 0.000479364 0)
(-0.0174329 0.000442808 0)
(-0.0180172 0.000400039 0)
(-0.0185342 0.000351075 0)
(-0.0189756 0.000296051 0)
(-0.0193335 0.000235227 0)
(-0.0196006 0.000168995 0)
(-0.0197702 9.78822e-05 0)
(-0.0198364 2.25546e-05 0)
(-0.0197944 -5.61928e-05 0)
(-0.0196408 -0.000137427 0)
(-0.0193731 -0.000220101 0)
(-0.0189908 -0.000303062 0)
(-0.0184947 -0.000385074 0)
(-0.0178874 -0.000464838 0)
(-0.0171731 -0.000541019 0)
(-0.0163579 -0.000612278 0)
(-0.0154496 -0.000677302 0)
(-0.0144576 -0.000734845 0)
(-0.013393 -0.000783757 0)
(-0.0122681 -0.000823017 0)
(-0.0110966 -0.000851773 0)
(-0.00989298 -0.000869362 0)
(-0.00867257 -0.000875342 0)
(-0.00745109 -0.000869504 0)
(-0.00624437 -0.000851884 0)
(-0.00506806 -0.000822766 0)
(-0.00393728 -0.000782682 0)
(-0.00286633 -0.000732392 0)
(-0.0018684 -0.000672871 0)
(-0.000955288 -0.000605276 0)
(-0.000137197 -0.000530921 0)
(0.000577483 -0.000451243 0)
(0.00118233 -0.000367767 0)
(0.001673 -0.000282082 0)
(0.00204734 -0.000195818 0)
(0.00230545 -0.000110631 0)
(0.00244972 -2.82111e-05 0)
(0.00248495 4.96942e-05 0)
(0.00241843 0.000121233 0)
(0.0022601 0.000184362 0)
(0.00202282 0.00023673 0)
(0.00172272 0.000275517 0)
(0.00137966 0.000297238 0)
(0.00101779 0.000297601 0)
(0.000665492 0.000271631 0)
(0.000354663 0.000214252 0)
(0.000123376 0.000123619 0)
(1.64811e-05 1.91952e-05 0)
(2.49052e-05 -0.000102375 0)
(8.12333e-05 -0.000160873 0)
(0.000121072 -0.000120781 0)
(9.64402e-05 -2.04288e-05 0)
(-2.01145e-05 0.000112845 0)
(-0.000241688 0.000260255 0)
(-0.000573149 0.000409624 0)
(-0.00101365 0.000553612 0)
(-0.00155858 0.00068818 0)
(-0.00220125 0.000811543 0)
(-0.00293399 0.000923358 0)
(-0.00374897 0.00102415 0)
(-0.00463866 0.00111492 0)
(-0.00559609 0.00119681 0)
(-0.00661495 0.00127097 0)
(-0.00768949 0.00133837 0)
(-0.00881448 0.00139971 0)
(-0.00998498 0.00145545 0)
(-0.0111962 0.0015057 0)
(-0.0124431 0.00155029 0)
(-0.0137206 0.00158881 0)
(-0.0150231 0.00162057 0)
(-0.0163442 0.00164473 0)
(-0.0176772 0.00166027 0)
(-0.0190142 0.00166609 0)
(-0.0203467 0.00166102 0)
(-0.0216654 0.00164392 0)
(-0.02296 0.00161363 0)
(-0.0242197 0.00156912 0)
(-0.0254328 0.00150945 0)
(-0.0265872 0.00143383 0)
(-0.0276703 0.0013417 0)
(-0.0286693 0.00123269 0)
(-0.0295714 0.00110672 0)
(-0.030364 0.000963988 0)
(-0.0310348 0.000805003 0)
(-0.0315721 0.000630616 0)
(-0.0319652 0.000442024 0)
(-0.0322045 0.000240777 0)
(-0.0322817 2.87821e-05 0)
(-0.0321904 -0.000191715 0)
(-0.0319258 -0.000418141 0)
(-0.0314851 -0.000647634 0)
(-0.030868 -0.000877078 0)
(-0.0300763 -0.00110316 0)
(-0.0291147 -0.00132242 0)
(-0.0279899 -0.00153135 0)
(-0.0267115 -0.00172641 0)
(-0.0252916 -0.00190419 0)
(-0.0237445 -0.00206143 0)
(-0.0220868 -0.00219516 0)
(-0.0203372 -0.00230273 0)
(-0.018516 -0.00238194 0)
(-0.016645 -0.00243107 0)
(-0.014747 -0.00244897 0)
(-0.0128452 -0.00243509 0)
(-0.0109634 -0.00238951 0)
(-0.00912489 -0.00231295 0)
(-0.00735223 -0.00220676 0)
(-0.00566693 -0.00207291 0)
(-0.00408888 -0.00191391 0)
(-0.00263602 -0.00173279 0)
(-0.00132396 -0.00153299 0)
(-0.000165686 -0.00131833 0)
(0.000828689 -0.00109288 0)
(0.00165216 -0.000860935 0)
(0.00230099 -0.000626949 0)
(0.00277484 -0.000395496 0)
(0.0030769 -0.000171282 0)
(0.00321401 4.0813e-05 0)
(0.00319682 0.000235634 0)
(0.00303996 0.000407614 0)
(0.00276231 0.000550564 0)
(0.00238729 0.000657442 0)
(0.00194323 0.000720152 0)
(0.00146364 0.000729571 0)
(0.000986536 0.000676191 0)
(0.000553113 0.000551846 0)
(0.000214317 0.000354848 0)
(3.80039e-05 0.00010838 0)
(1.84921e-05 -0.000143423 0)
(4.23694e-05 -0.000195407 0)
(1.33198e-05 -9.49349e-05 0)
(-0.000112433 9.95284e-05 0)
(-0.000360924 0.000347055 0)
(-0.00074517 0.000618481 0)
(-0.00126976 0.000894042 0)
(-0.00193329 0.00116124 0)
(-0.0027303 0.00141284 0)
(-0.0036529 0.00164529 0)
(-0.00469201 0.00185755 0)
(-0.00583819 0.00205014 0)
(-0.00708219 0.00222443 0)
(-0.00841529 0.00238218 0)
(-0.00982931 0.00252516 0)
(-0.0113167 0.00265488 0)
(-0.0128703 0.00277244 0)
(-0.0144832 0.00287848 0)
(-0.0161486 0.00297308 0)
(-0.0178593 0.00305586 0)
(-0.0196079 0.00312593 0)
(-0.0213863 0.00318201 0)
(-0.0231856 0.00322249 0)
(-0.0249959 0.0032455 0)
(-0.0268064 0.00324902 0)
(-0.0286055 0.00323096 0)
(-0.0303802 0.00318921 0)
(-0.0321167 0.00312177 0)
(-0.0338005 0.00302681 0)
(-0.035416 0.00290272 0)
(-0.0369474 0.00274824 0)
(-0.0383782 0.00256247 0)
(-0.0396919 0.00234494 0)
(-0.0408721 0.0020957 0)
(-0.0419026 0.00181532 0)
(-0.0427681 0.00150498 0)
(-0.043454 0.00116647 0)
(-0.0439472 0.000802185 0)
(-0.0442359 0.00041519 0)
(-0.0443103 9.16316e-06 0)
(-0.0441627 -0.000411597 0)
(-0.0437879 -0.00084226 0)
(-0.0431832 -0.00127748 0)
(-0.0423488 -0.00171147 0)
(-0.0412878 -0.00213815 0)
(-0.0400064 -0.00255118 0)
(-0.0385141 -0.00294414 0)
(-0.0368234 -0.00331066 0)
(-0.0349497 -0.00364454 0)
(-0.0329116 -0.00393991 0)
(-0.0307303 -0.0041914 0)
(-0.0284293 -0.00439427 0)
(-0.0260345 -0.00454452 0)
(-0.0235733 -0.00463907 0)
(-0.0210744 -0.00467582 0)
(-0.0185674 -0.00465375 0)
(-0.016082 -0.00457296 0)
(-0.0136479 -0.00443471 0)
(-0.0112937 -0.00424138 0)
(-0.00904685 -0.00399646 0)
(-0.00693291 -0.00370446 0)
(-0.00497499 -0.00337083 0)
(-0.00319344 -0.00300183 0)
(-0.00160534 -0.0026044 0)
(-0.000224217 -0.00218606 0)
(0.000940282 -0.00175476 0)
(0.00188265 -0.0013188 0)
(0.0026017 -0.000886762 0)
(0.00310077 -0.000467523 0)
(0.00338785 -7.02743e-05 0)
(0.00347577 0.00029534 0)
(0.00338238 0.00061905 0)
(0.0031307 0.000889717 0)
(0.00274916 0.0010951 0)
(0.00227178 0.00122173 0)
(0.00173827 0.00125512 0)
(0.0011931 0.00118079 0)
(0.000684273 0.000986531 0)
(0.000273934 0.000667476 0)
(5.13604e-05 0.00023992 0)
(8.43846e-06 -0.000157907 0)
(-1.5393e-05 -0.000162957 0)
(-0.000140065 3.31859e-05 0)
(-0.000398181 0.000353983 0)
(-0.000810636 0.000745864 0)
(-0.00138823 0.00116995 0)
(-0.00213374 0.00159926 0)
(-0.00304422 0.00201624 0)
(-0.00411291 0.00241038 0)
(-0.00533067 0.00277629 0)
(-0.00668716 0.00311208 0)
(-0.00817163 0.00341811 0)
(-0.00977346 0.00369609 0)
(-0.0114825 0.00394828 0)
(-0.0132889 0.00417698 0)
(-0.0151837 0.00438418 0)
(-0.0171579 0.00457128 0)
(-0.0192028 0.004739 0)
(-0.0213095 0.00488727 0)
(-0.0234689 0.00501531 0)
(-0.0256712 0.00512163 0)
(-0.0279058 0.00520417 0)
(-0.0301611 0.00526037 0)
(-0.0324246 0.00528734 0)
(-0.0346824 0.00528197 0)
(-0.0369198 0.00524106 0)
(-0.0391205 0.00516146 0)
(-0.0412676 0.00504019 0)
(-0.043343 0.00487458 0)
(-0.0453279 0.00466237 0)
(-0.047203 0.00440179 0)
(-0.0489487 0.00409172 0)
(-0.0505452 0.00373173 0)
(-0.0519732 0.00332218 0)
(-0.0532139 0.00286428 0)
(-0.0542494 0.00236013 0)
(-0.0550629 0.00181279 0)
(-0.0556395 0.00122628 0)
(-0.0559661 0.000605548 0)
(-0.0560318 -4.34882e-05 0)
(-0.0558282 -0.00071403 0)
(-0.05535 -0.00139848 0)
(-0.0545947 -0.0020885 0)
(-0.0535633 -0.00277516 0)
(-0.05226 -0.00344906 0)
(-0.0506927 -0.00410051 0)
(-0.0488729 -0.00471971 0)
(-0.0468155 -0.00529694 0)
(-0.044539 -0.00582279 0)
(-0.0420651 -0.00628837 0)
(-0.0394187 -0.00668553 0)
(-0.0366273 -0.00700705 0)
(-0.033721 -0.0072469 0)
(-0.0307317 -0.00740034 0)
(-0.027693 -0.00746415 0)
(-0.0246394 -0.0074367 0)
(-0.0216057 -0.00731806 0)
(-0.0186265 -0.00711001 0)
(-0.0157358 -0.00681607 0)
(-0.0129659 -0.00644144 0)
(-0.0103472 -0.00599289 0)
(-0.00790738 -0.00547864 0)
(-0.00567108 -0.00490821 0)
(-0.00365918 -0.00429223 0)
(-0.0018885 -0.00364227 0)
(-0.000371363 -0.00297064 0)
(0.0008847 -0.00229027 0)
(0.00187723 -0.00161459 0)
(0.00260907 -0.000957507 0)
(0.00308854 -0.000333419 0)
(0.0033296 0.000242669 0)
(0.00335203 0.000754958 0)
(0.00318147 0.00118664 0)
(0.00284961 0.00151967 0)
(0.00239425 0.00173476 0)
(0.00185933 0.00181166 0)
(0.00129408 0.00173021 0)
(0.000752165 0.00147249 0)
(0.000305027 0.00102675 0)
(5.80134e-05 0.000395559 0)
(-3.50889e-06 -0.000138462 0)
(-8.4819e-05 -4.56242e-05 0)
(-0.000324115 0.000287684 0)
(-0.000738159 0.000770165 0)
(-0.00133977 0.00133734 0)
(-0.00213574 0.00194184 0)
(-0.00312566 0.00255031 0)
(-0.00430407 0.0031407 0)
(-0.00566229 0.00369956 0)
(-0.00718967 0.0042198 0)
(-0.00887453 0.00469875 0)
(-0.0107049 0.00513664 0)
(-0.0126689 0.00553542 0)
(-0.0147552 0.0058978 0)
(-0.0169527 0.00622654 0)
(-0.0192508 0.00652396 0)
(-0.0216391 0.00679165 0)
(-0.0241073 0.00703024 0)
(-0.0266444 0.00723936 0)
(-0.0292395 0.00741768 0)
(-0.0318803 0.00756292 0)
(-0.0345541 0.00767206 0)
(-0.0372466 0.00774147 0)
(-0.0399426 0.00776704 0)
(-0.0426256 0.00774447 0)
(-0.0452777 0.00766933 0)
(-0.0478799 0.00753737 0)
(-0.050412 0.00734459 0)
(-0.0528531 0.00708748 0)
(-0.0551813 0.00676315 0)
(-0.0573745 0.00636944 0)
(-0.0594103 0.00590514 0)
(-0.0612663 0.00537001 0)
(-0.0629209 0.00476494 0)
(-0.064353 0.00409201 0)
(-0.0655429 0.00335457 0)
(-0.0664721 0.00255725 0)
(-0.0671245 0.001706 0)
(-0.0674858 0.00080805 0)
(-0.0675446 -0.00012809 0)
(-0.0672922 -0.00109275 0)
(-0.066723 -0.00207517 0)
(-0.0658352 -0.00306364 0)
(-0.0646302 -0.00404568 0)
(-0.0631133 -0.00500822 0)
(-0.0612937 -0.00593784 0)
(-0.0591845 -0.00682099 0)
(-0.0568025 -0.00764428 0)
(-0.0541685 -0.00839473 0)
(-0.0513066 -0.00906011 0)
(-0.0482447 -0.00962918 0)
(-0.0450133 -0.010092 0)
(-0.0416458 -0.0104402 0)
(-0.0381779 -0.0106671 0)
(-0.034647 -0.0107683 0)
(-0.0310914 -0.0107413 0)
(-0.0275504 -0.010586 0)
(-0.0240628 -0.0103048 0)
(-0.020667 -0.00990219 0)
(-0.0173996 -0.00938523 0)
(-0.0142955 -0.0087631 0)
(-0.0113865 -0.00804702 0)
(-0.00870125 -0.00725008 0)
(-0.00626425 -0.00638699 0)
(-0.00409565 -0.00547385 0)
(-0.00221062 -0.00452788 0)
(-0.000618987 -0.00356728 0)
(0.000675067 -0.00261099 0)
(0.0016733 -0.00167866 0)
(0.00238363 -0.000790616 0)
(0.00282025 3.20732e-05 0)
(0.00300381 0.000767425 0)
(0.00296141 0.00139237 0)
(0.00272673 0.00188257 0)
(0.00234002 0.00221242 0)
(0.00184826 0.00235533 0)
(0.00130431 0.00228457 0)
(0.000766534 0.00197489 0)
(0.000313338 0.00140504 0)
(5.99103e-05 0.000561199 0)
(-1.64305e-05 -8.07073e-05 0)
(-0.000161578 0.000168946 0)
(-0.000528949 0.000686368 0)
(-0.00111645 0.00136902 0)
(-0.00192671 0.00214368 0)
(-0.00296105 0.0029561 0)
(-0.00421468 0.00376777 0)
(-0.00567871 0.00455302 0)
(-0.00734192 0.00529609 0)
(-0.00919174 0.00598858 0)
(-0.011215 0.00662729 0)
(-0.0133984 0.00721245 0)
(-0.015729 0.0077463 0)
(-0.0181942 0.00823192 0)
(-0.0207819 0.00867246 0)
(-0.0234801 0.00907047 0)
(-0.0262772 0.00942754 0)
(-0.029161 0.00974409 0)
(-0.0321191 0.0100193 0)
(-0.0351384 0.010251 0)
(-0.0382048 0.010436 0)
(-0.041303 0.0105702 0)
(-0.0444167 0.0106487 0)
(-0.0475279 0.0106662 0)
(-0.0506175 0.0106169 0)
(-0.053665 0.0104952 0)
(-0.0566486 0.0102956 0)
(-0.0595456 0.0100133 0)
(-0.0623323 0.00964383 0)
(-0.0649843 0.00918381 0)
(-0.0674769 0.00863082 0)
(-0.0697856 0.00798369 0)
(-0.0718858 0.00724258 0)
(-0.0737539 0.00640912 0)
(-0.0753672 0.00548652 0)
(-0.0767044 0.0044796 0)
(-0.077746 0.00339486 0)
(-0.0784746 0.00224046 0)
(-0.0788754 0.00102619 0)
(-0.0789364 -0.000236552 0)
(-0.0786486 -0.00153493 0)
(-0.0780067 -0.00285475 0)
(-0.0770088 -0.00418066 0)
(-0.0756568 -0.00549634 0)
(-0.0739567 -0.00678481 0)
(-0.0719187 -0.00802861 0)
(-0.0695569 -0.00921021 0)
(-0.0668895 -0.0103123 0)
(-0.0639389 -0.011318 0)
(-0.0607311 -0.0122115 0)
(-0.057296 -0.0129783 0)
(-0.0536664 -0.0136053 0)
(-0.0498785 -0.0140817 0)
(-0.0459707 -0.0143987 0)
(-0.0419836 -0.0145502 0)
(-0.037959 -0.0145329 0)
(-0.0339395 -0.0143463 0)
(-0.0299681 -0.013993 0)
(-0.0260868 -0.0134789 0)
(-0.0223365 -0.0128125 0)
(-0.0187559 -0.0120056 0)
(-0.015381 -0.0110726 0)
(-0.0122443 -0.0100302 0)
(-0.00937406 -0.00889752 0)
(-0.0067938 -0.00769561 0)
(-0.00452179 -0.00644703 0)
(-0.00257051 -0.0051757 0)
(-0.000946287 -0.00390667 0)
(0.000350996 -0.0026659 0)
(0.00132817 -0.00148023 0)
(0.00199894 -0.00037741 0)
(0.00238397 0.00061385 0)
(0.00251096 0.00146369 0)
(0.00241462 0.00214099 0)
(0.00213679 0.0026133 0)
(0.00172652 0.00284707 0)
(0.00123949 0.00280814 0)
(0.00073777 0.00246276 0)
(0.000304253 0.00177886 0)
(5.85415e-05 0.000726122 0)
(-2.98936e-05 1.82016e-05 0)
(-0.000243103 0.000489338 0)
(-0.000748047 0.0012423 0)
(-0.00152188 0.00216646 0)
(-0.0025556 0.00318217 0)
(-0.00384389 0.00423015 0)
(-0.00537657 0.0052682 0)
(-0.00714052 0.00626817 0)
(-0.00912141 0.00721283 0)
(-0.0113043 0.00809308 0)
(-0.0136744 0.00890559 0)
(-0.0162169 0.00965082 0)
(-0.0189177 0.0103314 0)
(-0.0217632 0.0109509 0)
(-0.0247403 0.0115126 0)
(-0.0278357 0.0120194 0)
(-0.0310365 0.0124726 0)
(-0.0343292 0.0128723 0)
(-0.0376998 0.0132169 0)
(-0.0411333 0.0135035 0)
(-0.0446138 0.0137277 0)
(-0.0481239 0.0138841 0)
(-0.0516449 0.0139665 0)
(-0.0551567 0.0139681 0)
(-0.0586378 0.0138818 0)
(-0.0620651 0.0137007 0)
(-0.0654147 0.0134183 0)
(-0.0686612 0.0130286 0)
(-0.0717788 0.0125265 0)
(-0.0747409 0.0119082 0)
(-0.0775208 0.0111712 0)
(-0.0800919 0.0103145 0)
(-0.0824282 0.00933886 0)
(-0.0845042 0.00824686 0)
(-0.0862961 0.00704303 0)
(-0.0877814 0.0057339 0)
(-0.0889395 0.00432804 0)
(-0.0897523 0.00283604 0)
(-0.0902044 0.00127046 0)
(-0.0902833 -0.000354225 0)
(-0.0899797 -0.00202181 0)
(-0.0892881 -0.00371447 0)
(-0.0882066 -0.00541303 0)
(-0.0867374 -0.00709718 0)
(-0.0848865 -0.0087458 0)
(-0.0826647 -0.0103373 0)
(-0.0800865 -0.0118498 0)
(-0.077171 -0.013262 0)
(-0.0739414 -0.0145529 0)
(-0.0704251 -0.0157029 0)
(-0.0666533 -0.0166938 0)
(-0.0626605 -0.0175094 0)
(-0.058485 -0.0181359 0)
(-0.0541674 -0.0185622 0)
(-0.0497509 -0.0187802 0)
(-0.0452802 -0.0187855 0)
(-0.0408013 -0.0185771 0)
(-0.0363604 -0.0181577 0)
(-0.0320034 -0.017534 0)
(-0.027775 -0.0167163 0)
(-0.0237179 -0.0157186 0)
(-0.0198722 -0.0145587 0)
(-0.0162742 -0.0132571 0)
(-0.0129562 -0.0118375 0)
(-0.00994539 -0.0103261 0)
(-0.00726342 -0.00875108 0)
(-0.00492581 -0.00714265 0)
(-0.00294154 -0.00553233 0)
(-0.00131261 -0.00395295 0)
(-3.387e-05 -0.00243838 0)
(0.000907239 -0.00102355 0)
(0.00153075 0.000255573 0)
(0.00186424 0.00136183 0)
(0.0019428 0.00225682 0)
(0.00180912 0.00290075 0)
(0.00151367 0.0032525 0)
(0.00111412 0.00326982 0)
(0.000675229 0.00290978 0)
(0.000282248 0.0021292 0)
(5.49917e-05 0.000882479 0)
(-4.36992e-05 0.000160102 0)
(-0.00032783 0.000921487 0)
(-0.00097699 0.00196484 0)
(-0.00194646 0.00317424 0)
(-0.00321456 0.00446589 0)
(-0.00476848 0.00577744 0)
(-0.00659186 0.00706461 0)
(-0.00866673 0.00829807 0)
(-0.0109751 0.00946013 0)
(-0.0134993 0.0105417 0)
(-0.0162226 0.01154 0)
(-0.0191287 0.012456 0)
(-0.0222022 0.0132928 0)
(-0.0254286 0.0140546 0)
(-0.0287936 0.0147451 0)
(-0.032283 0.0153668 0)
(-0.0358827 0.0159212 0)
(-0.039578 0.0164075 0)
(-0.0433532 0.0168236 0)
(-0.047192 0.0171652 0)
(-0.0510764 0.0174268 0)
(-0.0549874 0.0176015 0)
(-0.0589041 0.0176818 0)
(-0.0628044 0.0176593 0)
(-0.0666646 0.0175255 0)
(-0.0704597 0.0172723 0)
(-0.0741634 0.016892 0)
(-0.0777485 0.0163777 0)
(-0.0811871 0.0157239 0)
(-0.084451 0.0149262 0)
(-0.0875116 0.0139823 0)
(-0.0903409 0.0128915 0)
(-0.0929115 0.0116554 0)
(-0.0951966 0.0102776 0)
(-0.0971714 0.0087642 0)
(-0.0988122 0.00712354 0)
(-0.100098 0.00536643 0)
(-0.101009 0.00350603 0)
(-0.101531 0.00155782 0)
(-0.101649 -0.000460561 0)
(-0.101355 -0.00252942 0)
(-0.100641 -0.00462722 0)
(-0.0995063 -0.00673084 0)
(-0.0979522 -0.00881589 0)
(-0.0959849 -0.010857 0)
(-0.0936145 -0.0128282 0)
(-0.0908559 -0.0147035 0)
(-0.0877283 -0.016457 0)
(-0.0842552 -0.0180636 0)
(-0.0804644 -0.0194995 0)
(-0.0763881 -0.0207428 0)
(-0.072062 -0.0217736 0)
(-0.0675256 -0.0225749 0)
(-0.0628215 -0.0231329 0)
(-0.057995 -0.0234375 0)
(-0.0530936 -0.0234826 0)
(-0.0481661 -0.0232662 0)
(-0.043262 -0.0227911 0)
(-0.0384308 -0.0220645 0)
(-0.0337212 -0.0210982 0)
(-0.0291799 -0.0199086 0)
(-0.0248511 -0.0185163 0)
(-0.0207756 -0.0169461 0)
(-0.0169897 -0.0152263 0)
(-0.0135247 -0.0133883 0)
(-0.0104059 -0.0114665 0)
(-0.00765256 -0.00949743 0)
(-0.00527661 -0.00751969 0)
(-0.00328278 -0.00557336 0)
(-0.00166812 -0.00369988 0)
(-0.000421783 -0.00194184 0)
(0.000475082 -0.000342982 0)
(0.00104935 0.00105176 0)
(0.00133594 0.00219619 0)
(0.00137787 0.00304265 0)
(0.00122638 0.00354198 0)
(0.000940452 0.00364337 0)
(0.000586621 0.00329448 0)
(0.000250781 0.00244129 0)
(5.00126e-05 0.00102465 0)
(-5.77324e-05 0.00034622 0)
(-0.000414712 0.00146947 0)
(-0.00121262 0.00286059 0)
(-0.00238416 0.00440079 0)
(-0.00389431 0.00600437 0)
(-0.00572213 0.00760786 0)
(-0.0078445 0.00916661 0)
(-0.010238 0.0106515 0)
(-0.0128807 0.0120456 0)
(-0.0157519 0.0133407 0)
(-0.0188326 0.0145351 0)
(-0.0221049 0.0156306 0)
(-0.0255522 0.0166315 0)
(-0.0291588 0.0175423 0)
(-0.0329095 0.0183672 0)
(-0.0367892 0.0191087 0)
(-0.0407827 0.0197677 0)
(-0.0448741 0.0203429 0)
(-0.0490466 0.0208311 0)
(-0.0532822 0.0212268 0)
(-0.0575614 0.0215232 0)
(-0.0618636 0.021712 0)
(-0.066166 0.0217837 0)
(-0.0704448 0.0217288 0)
(-0.0746744 0.0215373 0)
(-0.0788279 0.0211997 0)
(-0.0828774 0.0207073 0)
(-0.086794 0.0200526 0)
(-0.0905481 0.0192293 0)
(-0.09411 0.0182331 0)
(-0.0974499 0.0170616 0)
(-0.100538 0.0157148 0)
(-0.103347 0.014195 0)
(-0.105848 0.0125073 0)
(-0.108016 0.0106591 0)
(-0.109826 0.008661 0)
(-0.111256 0.00652593 0)
(-0.112286 0.00426974 0)
(-0.112901 0.00191084 0)
(-0.113085 -0.000529896 0)
(-0.112828 -0.0030293 0)
(-0.112124 -0.00556207 0)
(-0.11097 -0.00810115 0)
(-0.109366 -0.010618 0)
(-0.107318 -0.0130829 0)
(-0.104835 -0.0154656 0)
(-0.101933 -0.0177355 0)
(-0.0986283 -0.0198623 0)
(-0.0949455 -0.0218164 0)
(-0.0909121 -0.0235698 0)
(-0.0865605 -0.0250961 0)
(-0.0819271 -0.0263718 0)
(-0.0770523 -0.0273763 0)
(-0.0719802 -0.0280926 0)
(-0.0667579 -0.0285081 0)
(-0.0614353 -0.0286145 0)
(-0.0560638 -0.0284088 0)
(-0.0506965 -0.027893 0)
(-0.0453863 -0.0270748 0)
(-0.040186 -0.0259672 0)
(-0.0351466 -0.0245887 0)
(-0.0303168 -0.0229629 0)
(-0.0257419 -0.0211184 0)
(-0.021463 -0.0190883 0)
(-0.0175156 -0.0169097 0)
(-0.0139297 -0.014623 0)
(-0.0107283 -0.0122718 0)
(-0.007927 -0.00990189 0)
(-0.00553385 -0.0075612 0)
(-0.00354859 -0.00529915 0)
(-0.00196261 -0.00316654 0)
(-0.000758749 -0.00121539 0)
(8.86904e-05 0.000501086 0)
(0.000613982 0.00192837 0)
(0.000859981 0.00301051 0)
(0.00087821 0.00368984 0)
(0.000728356 0.00390674 0)
(0.000477984 0.00359946 0)
(0.000212421 0.00270372 0)
(4.41136e-05 0.00114861 0)
(-7.19165e-05 0.000577389 0)
(-0.000502971 0.002136 0)
(-0.0014525 0.00393394 0)
(-0.0028302 0.00585177 0)
(-0.00458726 0.00780402 0)
(-0.00669421 0.00972807 0)
(-0.00912073 0.0115807 0)
(-0.0118377 0.0133344 0)
(-0.0148186 0.0149742 0)
(-0.0180398 0.0164937 0)
(-0.0214797 0.017893 0)
(-0.0251187 0.0191757 0)
(-0.028939 0.0203468 0)
(-0.0329237 0.021412 0)
(-0.0370568 0.0223756 0)
(-0.0413223 0.0232402 0)
(-0.045704 0.0240062 0)
(-0.0501849 0.0246715 0)
(-0.0547472 0.0252317 0)
(-0.0593716 0.0256801 0)
(-0.0640372 0.0260083 0)
(-0.0687218 0.0262062 0)
(-0.0734014 0.0262632 0)
(-0.0780504 0.0261678 0)
(-0.0826416 0.0259088 0)
(-0.0871469 0.0254755 0)
(-0.0915366 0.0248583 0)
(-0.0957807 0.0240486 0)
(-0.0998483 0.0230402 0)
(-0.103708 0.0218284 0)
(-0.10733 0.0204112 0)
(-0.110684 0.0187892 0)
(-0.113739 0.0169657 0)
(-0.116468 0.014947 0)
(-0.118843 0.0127423 0)
(-0.12084 0.010364 0)
(-0.122436 0.00782759 0)
(-0.12361 0.00515137 0)
(-0.124345 0.00235671 0)
(-0.124625 -0.000532339 0)
(-0.124439 -0.00348923 0)
(-0.123779 -0.00648489 0)
(-0.122641 -0.00948836 0)
(-0.121025 -0.0124669 0)
(-0.118934 -0.0153867 0)
(-0.116377 -0.0182128 0)
(-0.113366 -0.0209101 0)
(-0.10992 -0.0234437 0)
(-0.106061 -0.0257792 0)
(-0.101816 -0.0278841 0)
(-0.0972169 -0.0297275 0)
(-0.0923001 -0.0312815 0)
(-0.0871068 -0.0325216 0)
(-0.0816821 -0.0334271 0)
(-0.0760746 -0.0339823 0)
(-0.0703364 -0.0341766 0)
(-0.0645217 -0.034005 0)
(-0.0586866 -0.0334686 0)
(-0.0528881 -0.0325749 0)
(-0.0471829 -0.0313379 0)
(-0.0416268 -0.0297777 0)
(-0.0362734 -0.0279209 0)
(-0.031173 -0.0257998 0)
(-0.0263716 -0.0234524 0)
(-0.0219102 -0.0209213 0)
(-0.0178234 -0.0182536 0)
(-0.0141388 -0.0154999 0)
(-0.0108764 -0.0127138 0)
(-0.00804804 -0.00995151 0)
(-0.00565668 -0.00727087 0)
(-0.00369648 -0.00473145 0)
(-0.0021525 -0.00239409 0)
(-0.00100063 -0.000320836 0)
(-0.000207673 0.00142498 0)
(0.000268654 0.00277861 0)
(0.000479715 0.00367356 0)
(0.000485432 0.00404121 0)
(0.000353872 0.00381057 0)
(0.000169033 0.00290771 0)
(3.76387e-05 0.00125152 0)
(-8.61847e-05 0.00085411 0)
(-0.000591952 0.00292267 0)
(-0.00169457 0.00518745 0)
(-0.00328049 0.00753047 0)
(-0.00528686 0.00986852 0)
(-0.00767541 0.0121418 0)
(-0.0104084 0.0143102 0)
(-0.0134506 0.0163495 0)
(-0.016771 0.0182478 0)
(-0.0203425 0.0200019 0)
(-0.024141 0.021614 0)
(-0.0281451 0.02309 0)
(-0.0323357 0.0244366 0)
(-0.0366949 0.0256602 0)
(-0.0412057 0.0267658 0)
(-0.0458513 0.0277559 0)
(-0.0506147 0.0286303 0)
(-0.0554781 0.0293862 0)
(-0.0604225 0.0300177 0)
(-0.0654276 0.0305169 0)
(-0.0704715 0.0308736 0)
(-0.0755306 0.0310762 0)
(-0.0805796 0.0311124 0)
(-0.0855917 0.0309691 0)
(-0.0905386 0.0306339 0)
(-0.0953907 0.0300949 0)
(-0.100117 0.0293414 0)
(-0.104688 0.0283644 0)
(-0.109069 0.0271573 0)
(-0.113231 0.0257154 0)
(-0.117141 0.0240372 0)
(-0.120768 0.0221237 0)
(-0.124082 0.0199795 0)
(-0.127054 0.017612 0)
(-0.129655 0.0150323 0)
(-0.131861 0.0122545 0)
(-0.133648 0.00929639 0)
(-0.134993 0.00617887 0)
(-0.135878 0.00292606 0)
(-0.136288 -0.000434866 0)
(-0.136208 -0.00387417 0)
(-0.135629 -0.00735908 0)
(-0.134546 -0.0108548 0)
(-0.132955 -0.0143246 0)
(-0.13086 -0.0177302 0)
(-0.128267 -0.0210323 0)
(-0.125187 -0.0241911 0)
(-0.121635 -0.0271667 0)
(-0.117633 -0.0299202 0)
(-0.113207 -0.0324137 0)
(-0.108387 -0.0346118 0)
(-0.103211 -0.0364816 0)
(-0.0977178 -0.0379941 0)
(-0.0919546 -0.0391246 0)
(-0.0859711 -0.0398536 0)
(-0.0798212 -0.0401673 0)
(-0.0735617 -0.0400584 0)
(-0.0672521 -0.0395265 0)
(-0.0609531 -0.0385784 0)
(-0.0547261 -0.0372283 0)
(-0.0486317 -0.0354981 0)
(-0.0427288 -0.0334166 0)
(-0.0370733 -0.03102 0)
(-0.0317171 -0.0283509 0)
(-0.0267067 -0.0254577 0)
(-0.0220824 -0.0223941 0)
(-0.0178771 -0.0192184 0)
(-0.0141157 -0.0159924 0)
(-0.0108145 -0.0127807 0)
(-0.00798032 -0.00965043 0)
(-0.00561074 -0.00667047 0)
(-0.00369343 -0.00391103 0)
(-0.00220637 -0.00144358 0)
(-0.00111781 0.000659206 0)
(-0.00038642 0.00232331 0)
(3.86574e-05 0.00347306 0)
(0.000217253 0.00403069 0)
(0.00021758 0.00391615 0)
(0.000121919 0.00304636 0)
(3.08146e-05 0.0013313 0)
(-0.000100466 0.00117659 0)
(-0.00068104 0.0038301 0)
(-0.00193694 0.00662209 0)
(-0.00373132 0.00943806 0)
(-0.00598715 0.0121991 0)
(-0.00865723 0.0148501 0)
(-0.0116962 0.0173559 0)
(-0.0150627 0.019697 0)
(-0.0187211 0.0218661 0)
(-0.0226406 0.0238637 0)
(-0.0267947 0.0256957 0)
(-0.0311602 0.0273704 0)
(-0.0357165 0.0288966 0)
(-0.0404446 0.030282 0)
(-0.0453269 0.031532 0)
(-0.0503458 0.0326493 0)
(-0.0554835 0.033633 0)
(-0.0607214 0.0344793 0)
(-0.0660398 0.0351813 0)
(-0.0714175 0.0357292 0)
(-0.0768314 0.0361113 0)
(-0.0822572 0.0363144 0)
(-0.0876685 0.0363244 0)
(-0.0930375 0.0361268 0)
(-0.098335 0.0357079 0)
(-0.10353 0.0350546 0)
(-0.108593 0.0341554 0)
(-0.113489 0.0330008 0)
(-0.118188 0.0315839 0)
(-0.122657 0.0299002 0)
(-0.126863 0.0279484 0)
(-0.130775 0.0257304 0)
(-0.134361 0.0232516 0)
(-0.137593 0.0205208 0)
(-0.140442 0.0175506 0)
(-0.142881 0.0143571 0)
(-0.144885 0.01096 0)
(-0.146432 0.00738267 0)
(-0.1475 0.00365174 0)
(-0.148073 -0.000202741 0)
(-0.148136 -0.0041473 0)
(-0.147677 -0.00814633 0)
(-0.146687 -0.0121613 0)
(-0.145163 -0.0161514 0)
(-0.143104 -0.0200741 0)
(-0.140514 -0.0238857 0)
(-0.137402 -0.0275414 0)
(-0.133782 -0.0309965 0)
(-0.129671 -0.0342069 0)
(-0.125096 -0.0371295 0)
(-0.120084 -0.0397234 0)
(-0.114671 -0.0419507 0)
(-0.108899 -0.0437772 0)
(-0.102812 -0.0451735 0)
(-0.0964621 -0.0461155 0)
(-0.0899045 -0.0465858 0)
(-0.0831988 -0.0465739 0)
(-0.0764074 -0.046077 0)
(-0.0695952 -0.0451007 0)
(-0.0628282 -0.0436591 0)
(-0.0561724 -0.0417748 0)
(-0.0496925 -0.039479 0)
(-0.0434506 -0.0368112 0)
(-0.0375048 -0.0338187 0)
(-0.0319084 -0.0305558 0)
(-0.0267077 -0.0270829 0)
(-0.0219419 -0.0234662 0)
(-0.0176416 -0.0197761 0)
(-0.0138282 -0.0160866 0)
(-0.0105133 -0.0124743 0)
(-0.00769814 -0.00901806 0)
(-0.00537379 -0.00579822 0)
(-0.00352072 -0.00289627 0)
(-0.00210905 -0.000394823 0)
(-0.00109872 0.00162234 0)
(-0.000439686 0.00306998 0)
(-7.23842e-05 0.003861 0)
(7.13369e-05 0.00390622 0)
(7.19403e-05 0.00311412 0)
(2.37851e-05 0.00138645 0)
(-0.00011468 0.00154473 0)
(-0.000769618 0.00485798 0)
(-0.0021778 0.00823732 0)
(-0.00417913 0.0115737 0)
(-0.00668246 0.0147945 0)
(-0.0096316 0.0178514 0)
(-0.0129736 0.0207157 0)
(-0.0166609 0.0233744 0)
(-0.020653 0.0258258 0)
(-0.0249159 0.0280755 0)
(-0.0294202 0.0301336 0)
(-0.0341409 0.0320117 0)
(-0.0390562 0.033721 0)
(-0.044146 0.0352707 0)
(-0.049392 0.036667 0)
(-0.0547758 0.0379125 0)
(-0.0602791 0.039006 0)
(-0.0658827 0.0399425 0)
(-0.0715661 0.0407137 0)
(-0.0773074 0.0413085 0)
(-0.083083 0.0417133 0)
(-0.0888676 0.0419133 0)
(-0.0946341 0.0418927 0)
(-0.100354 0.0416356 0)
(-0.105998 0.0411269 0)
(-0.111534 0.0403525 0)
(-0.11693 0.0393003 0)
(-0.122155 0.0379601 0)
(-0.127174 0.0363249 0)
(-0.131956 0.0343903 0)
(-0.136468 0.0321554 0)
(-0.140677 0.0296228 0)
(-0.144552 0.0267987 0)
(-0.148063 0.0236933 0)
(-0.151181 0.0203204 0)
(-0.153877 0.016698 0)
(-0.156126 0.0128475 0)
(-0.157905 0.00879456 0)
(-0.159189 0.00456816 0)
(-0.159961 0.000201028 0)
(-0.160203 -0.00427043 0)
(-0.159902 -0.0088074 0)
(-0.159046 -0.0133678 0)
(-0.157628 -0.017907 0)
(-0.155646 -0.0223783 0)
(-0.1531 -0.0267334 0)
(-0.149996 -0.0309229 0)
(-0.146345 -0.0348968 0)
(-0.142162 -0.0386056 0)
(-0.137471 -0.0420007 0)
(-0.132297 -0.0450355 0)
(-0.126676 -0.0476662 0)
(-0.120646 -0.049853 0)
(-0.114253 -0.0515608 0)
(-0.107548 -0.0527607 0)
(-0.10059 -0.0534303 0)
(-0.0934382 -0.0535553 0)
(-0.0861596 -0.0531298 0)
(-0.0788228 -0.0521573 0)
(-0.0714986 -0.0506509 0)
(-0.0642588 -0.0486335 0)
(-0.0571742 -0.0461382 0)
(-0.0503139 -0.0432073 0)
(-0.043743 -0.0398927 0)
(-0.037522 -0.0362545 0)
(-0.0317047 -0.0323602 0)
(-0.026337 -0.0282841 0)
(-0.0214561 -0.0241057 0)
(-0.0170896 -0.0199087 0)
(-0.0132543 -0.0157802 0)
(-0.00995629 -0.0118096 0)
(-0.00719029 -0.00808819 0)
(-0.00493987 -0.00470811 0)