/*--------------------------------*- C++ -*----------------------------------*\
  =========                 |
  \\      /  F ield         | OpenFOAM: The Open Source CFD Toolbox
   \\    /   O peration     | Website:  https://openfoam.org
    \\  /    A nd           | Version:  7
     \\/     M anipulation  |
\*---------------------------------------------------------------------------*/
FoamFile
{
    version     2.0;
    format      ascii;
    class       surfaceScalarField;
    location    "2.825";
    object      phi;
}
// * * * * * * * * * * * * * * * * * * * * * * * * * * * * * * * * * * * * * //

dimensions      [0 3 -1 0 0 0 0];

internalField   nonuniform List<scalar> 
12640
(
3.15647e-10
-3.22867e-10
9.56067e-10
-6.40369e-10
1.55951e-09
-6.03406e-10
1.9181e-09
-3.58577e-10
1.93549e-09
-1.73831e-11
1.57805e-09
3.57431e-10
8.47592e-10
7.30445e-10
-2.34444e-10
1.08203e-09
-1.63846e-09
1.40402e-09
-3.33227e-09
1.69382e-09
-5.28453e-09
1.95227e-09
-7.46676e-09
2.18222e-09
-9.85416e-09
2.3874e-09
-1.24258e-08
2.57167e-09
-1.51644e-08
2.73858e-09
-1.80555e-08
2.8911e-09
-2.10869e-08
3.03141e-09
-2.42478e-08
3.16086e-09
-2.75278e-08
3.27997e-09
-3.09162e-08
3.38846e-09
-3.44016e-08
3.48534e-09
-3.79706e-08
3.56901e-09
-4.1608e-08
3.63736e-09
-4.52959e-08
3.68791e-09
-4.90138e-08
3.71787e-09
-5.27381e-08
3.72433e-09
-5.64424e-08
3.7043e-09
-6.00973e-08
3.65485e-09
-6.36704e-08
3.57318e-09
-6.71272e-08
3.45676e-09
-7.04306e-08
3.30339e-09
-7.35419e-08
3.1113e-09
-7.64212e-08
2.87924e-09
-7.90277e-08
2.60656e-09
-8.1321e-08
2.2933e-09
-8.32613e-08
1.94024e-09
-8.48103e-08
1.54901e-09
-8.59324e-08
1.12208e-09
-8.65952e-08
6.62813e-10
-8.67707e-08
1.75526e-10
-8.6436e-08
-3.347e-10
-8.55743e-08
-8.61723e-10
-8.41756e-08
-1.39874e-09
-8.22373e-08
-1.93822e-09
-7.97653e-08
-2.47205e-09
-7.67736e-08
-2.99168e-09
-7.32853e-08
-3.48832e-09
-6.93322e-08
-3.95314e-09
-6.49547e-08
-4.37747e-09
-6.02016e-08
-4.75308e-09
-5.51293e-08
-5.07232e-09
-4.98008e-08
-5.32848e-09
-4.42849e-08
-5.51589e-09
-3.86547e-08
-5.63017e-09
-3.29863e-08
-5.66841e-09
-2.73571e-08
-5.62923e-09
-2.18442e-08
-5.51289e-09
-1.65228e-08
-5.32132e-09
-1.14648e-08
-5.05806e-09
-6.73661e-09
-4.72816e-09
-2.39852e-09
-4.33809e-09
1.49703e-09
-3.89554e-09
4.90621e-09
-3.40918e-09
7.79464e-09
-2.88842e-09
1.0138e-08
-2.34333e-09
1.19222e-08
-1.78425e-09
1.3144e-08
-1.22176e-09
1.38105e-08
-6.66555e-10
1.394e-08
-1.29513e-10
1.35618e-08
3.78201e-10
1.27171e-08
8.44744e-10
1.14601e-08
1.25702e-09
9.86025e-09
1.59982e-09
8.00575e-09
1.8545e-09
6.00847e-09
1.99728e-09
4.01081e-09
1.99767e-09
2.19268e-09
1.81813e-09
7.77684e-10
1.41499e-09
2.08484e-11
7.56823e-10
2.08419e-11
6.44286e-10
-9.67118e-10
1.61212e-09
-1.60815e-09
2.32497e-09
-1.31629e-09
2.42091e-09
-4.54537e-10
1.69228e-09
7.1127e-10
4.54503e-11
2.00426e-09
-2.5358e-09
3.31167e-09
-6.02284e-09
4.56907e-09
-1.03594e-08
5.74062e-09
-1.54773e-08
6.81166e-09
-2.13052e-08
7.78025e-09
-2.7775e-08
8.65202e-09
-3.48241e-08
9.43648e-09
-4.23969e-08
1.01445e-08
-5.04447e-08
1.07864e-08
-5.89247e-08
1.13711e-08
-6.77984e-08
1.19051e-08
-7.70299e-08
1.23924e-08
-8.6584e-08
1.28341e-08
-9.64244e-08
1.32288e-08
-1.06512e-07
1.35728e-08
-1.16803e-07
1.38602e-08
-1.27249e-07
1.40833e-08
-1.37794e-07
1.42333e-08
-1.48377e-07
1.43004e-08
-1.58927e-07
1.42745e-08
-1.69368e-07
1.41451e-08
-1.79615e-07
1.39022e-08
-1.89579e-07
1.35365e-08
-1.99161e-07
1.30395e-08
-2.08262e-07
1.24043e-08
-2.16777e-07
1.16256e-08
-2.24597e-07
1.06998e-08
-2.31616e-07
9.62597e-09
-2.37729e-07
8.40548e-09
-2.42831e-07
7.0425e-09
-2.46826e-07
5.54413e-09
-2.49624e-07
3.92051e-09
-2.51147e-07
2.18494e-09
-2.51325e-07
3.53919e-10
-2.50106e-07
-1.55335e-09
-2.47454e-07
-3.51431e-09
-2.43348e-07
-5.50402e-09
-2.37791e-07
-7.49528e-09
-2.30804e-07
-9.45904e-09
-2.22431e-07
-1.1365e-08
-2.12737e-07
-1.31821e-08
-2.01811e-07
-1.48794e-08
-1.89762e-07
-1.64268e-08
-1.76719e-07
-1.77955e-08
-1.62833e-07
-1.89591e-08
-1.48267e-07
-1.98945e-08
-1.332e-07
-2.05821e-08
-1.17824e-07
-2.10068e-08
-1.02334e-07
-2.11584e-08
-8.69308e-08
-2.10322e-08
-7.18146e-08
-2.06291e-08
-5.71805e-08
-1.99554e-08
-4.32152e-08
-1.90234e-08
-3.00931e-08
-1.78503e-08
-1.79726e-08
-1.64586e-08
-6.99326e-09
-1.48749e-08
2.72723e-09
-1.31297e-08
1.10952e-08
-1.12564e-08
1.80426e-08
-9.29072e-09
2.35285e-08
-7.27017e-09
2.75401e-08
-5.2334e-09
3.00936e-08
-3.21999e-09
3.12346e-08
-1.27058e-09
3.10401e-08
5.72776e-10
2.96191e-08
2.26576e-09
2.71161e-08
3.76001e-09
2.37145e-08
5.00136e-09
1.9642e-08
5.92708e-09
1.5176e-08
6.46328e-09
1.06495e-08
6.52411e-09
6.45118e-09
6.01647e-09
3.01138e-09
4.85481e-09
7.53778e-10
3.01446e-09
7.74614e-10
6.17268e-10
-1.58436e-09
1.32661e-09
-2.31749e-09
1.46272e-09
-1.45241e-09
6.09893e-10
3.98277e-10
-1.48027e-09
2.80142e-09
-4.92812e-09
5.4521e-09
-9.76253e-09
8.14608e-09
-1.595e-08
1.07566e-08
-2.34206e-08
1.32112e-08
-3.20845e-08
1.54756e-08
-4.18448e-08
1.75405e-08
-5.2605e-08
1.94122e-08
-6.42741e-08
2.11056e-08
-7.67685e-08
2.26389e-08
-9.00123e-08
2.40302e-08
-1.03936e-07
2.52952e-08
-1.18477e-07
2.64452e-08
-1.33571e-07
2.74866e-08
-1.49157e-07
2.84207e-08
-1.65172e-07
2.92437e-08
-1.81546e-07
2.99469e-08
-1.98204e-07
3.05178e-08
-2.15061e-07
3.09405e-08
-2.32024e-07
3.11965e-08
-2.4899e-07
3.1266e-08
-2.65844e-07
3.11281e-08
-2.8246e-07
3.0762e-08
-2.98706e-07
3.01476e-08
-3.14436e-07
2.92667e-08
-3.295e-07
2.81032e-08
-3.43739e-07
2.6644e-08
-3.56994e-07
2.48798e-08
-3.69099e-07
2.28056e-08
-3.79894e-07
2.04209e-08
-3.8922e-07
1.7731e-08
-3.96924e-07
1.47465e-08
-4.02864e-07
1.14843e-08
-4.06911e-07
7.96759e-09
-4.08952e-07
4.22563e-09
-4.08892e-07
2.94375e-10
-4.0666e-07
-3.78539e-09
-4.02209e-07
-7.96558e-09
-3.95519e-07
-1.21941e-08
-3.866e-07
-1.64145e-08
-3.75492e-07
-2.05667e-08
-3.62268e-07
-2.45885e-08
-3.47034e-07
-2.84167e-08
-3.29925e-07
-3.19882e-08
-3.1111e-07
-3.5242e-08
-2.90785e-07
-3.812e-08
-2.69176e-07
-4.0569e-08
-2.46528e-07
-4.25423e-08
-2.23109e-07
-4.40004e-08
-1.99203e-07
-4.49129e-08
-1.75102e-07
-4.52593e-08
-1.51105e-07
-4.50297e-08
-1.27509e-07
-4.42253e-08
-1.04605e-07
-4.28588e-08
-8.26746e-08
-4.09542e-08
-6.19787e-08
-3.85463e-08
-4.27574e-08
-3.56798e-08
-2.52234e-08
-3.24089e-08
-9.55785e-09
-2.87953e-08
4.09316e-09
-2.49074e-08
1.56214e-08
-2.0819e-08
2.49592e-08
-1.66079e-08
3.20808e-08
-1.2355e-08
3.70048e-08
-8.14394e-09
3.97949e-08
-4.06067e-09
4.05622e-08
-1.94526e-10
3.94668e-08
3.36112e-09
3.67212e-08
6.50566e-09
3.25931e-08
9.12942e-09
2.74101e-08
1.11101e-08
2.15625e-08
1.23108e-08
1.55052e-08
1.25814e-08
9.75245e-09
1.17692e-08
4.863e-09
9.74426e-09
1.41266e-09
6.46482e-09
2.18727e-09
3.64969e-10
-1.94935e-09
4.06662e-10
-2.35917e-09
-5.26924e-10
-5.18822e-10
-2.84519e-09
2.71654e-09
-6.79229e-09
6.74849e-09
-1.24849e-08
1.11447e-08
-1.99462e-08
1.56074e-08
-2.91347e-08
1.99451e-08
-3.99678e-08
2.40442e-08
-5.23395e-08
2.78473e-08
-6.61338e-08
3.13349e-08
-8.12337e-08
3.45121e-08
-9.7526e-08
3.73979e-08
-1.14905e-07
4.00174e-08
-1.3327e-07
4.2396e-08
-1.5253e-07
4.45552e-08
-1.72596e-07
4.65108e-08
-1.9338e-07
4.82705e-08
-2.14793e-07
4.98344e-08
-2.36744e-07
5.11944e-08
-2.59132e-07
5.23351e-08
-2.81849e-07
5.32349e-08
-3.04776e-07
5.38671e-08
-3.27781e-07
5.42014e-08
-3.5072e-07
5.42048e-08
-3.73435e-07
5.38436e-08
-3.95758e-07
5.30844e-08
-4.17506e-07
5.18956e-08
-4.38488e-07
5.02486e-08
-4.58503e-07
4.8119e-08
-4.77347e-07
4.54876e-08
-4.94809e-07
4.23416e-08
-5.10679e-07
3.86756e-08
-5.2475e-07
3.44922e-08
-5.36822e-07
2.98032e-08
-5.46705e-07
2.46294e-08
-5.54223e-07
1.90019e-08
-5.59217e-07
1.29616e-08
-5.61551e-07
6.55956e-09
-5.61114e-07
-1.42213e-10
-5.57824e-07
-7.07546e-09
-5.51631e-07
-1.41587e-08
-5.42519e-07
-2.13059e-08
-5.3051e-07
-2.84235e-08
-5.15664e-07
-3.54129e-08
-4.9808e-07
-4.21725e-08
-4.77897e-07
-4.85992e-08
-4.55295e-07
-5.45909e-08
-4.30488e-07
-6.00486e-08
-4.0373e-07
-6.48786e-08
-3.75303e-07
-6.89951e-08
-3.45523e-07
-7.23224e-08
-3.14727e-07
-7.47969e-08
-2.83271e-07
-7.63691e-08
-2.51525e-07
-7.70055e-08
-2.19865e-07
-7.66894e-08
-1.88668e-07
-7.5422e-08
-1.58304e-07
-7.32228e-08
-1.29129e-07
-7.01297e-08
-1.01477e-07
-6.61978e-08
-7.5658e-08
-6.14989e-08
-5.19468e-08
-5.61201e-08
-3.05805e-08
-5.01616e-08
-1.17529e-08
-4.3735e-08
4.38941e-09
-3.69614e-08
1.77509e-08
-2.99693e-08
2.82893e-08
-2.28935e-08
3.60186e-08
-1.58733e-08
4.10109e-08
-9.05296e-09
4.33982e-08
-2.58184e-09
4.33751e-08
3.38424e-09
4.12004e-08
8.68036e-09
3.72e-08
1.31298e-08
3.17692e-08
1.65409e-08
2.53736e-08
1.87064e-08
1.85488e-08
1.94063e-08
1.18968e-08
1.84212e-08
6.08128e-09
1.55598e-08
1.82878e-09
1.07173e-08
4.01606e-09
-1.74049e-11
-1.93195e-09
-9.29569e-10
-1.447e-09
-3.30235e-09
1.85396e-09
-7.48983e-09
6.90401e-09
-1.36959e-08
1.29546e-08
-2.20089e-08
1.94576e-08
-3.24305e-08
2.6029e-08
-4.49016e-08
3.24162e-08
-5.93236e-08
3.84662e-08
-7.55748e-08
4.40985e-08
-9.35232e-08
4.92832e-08
-1.13035e-07
5.40235e-08
-1.33978e-07
5.83417e-08
-1.56229e-07
6.22684e-08
-1.79669e-07
6.58352e-08
-2.04182e-07
6.90687e-08
-2.29658e-07
7.1987e-08
-2.55986e-07
7.45982e-08
-2.8305e-07
7.68987e-08
-3.1073e-07
7.88744e-08
-3.38896e-07
8.05009e-08
-3.67407e-07
8.17454e-08
-3.96108e-07
8.25682e-08
-4.24831e-07
8.29246e-08
-4.53393e-07
8.27671e-08
-4.81597e-07
8.20474e-08
-5.09231e-07
8.07182e-08
-5.36071e-07
7.87354e-08
-5.61882e-07
7.60598e-08
-5.86422e-07
7.26588e-08
-6.09442e-07
6.85078e-08
-6.30693e-07
6.35922e-08
-6.49925e-07
5.79081e-08
-6.66897e-07
5.14637e-08
-6.81374e-07
4.42803e-08
-6.93137e-07
3.63929e-08
-7.01986e-07
2.78506e-08
-7.07742e-07
1.8717e-08
-7.10252e-07
9.07e-09
-7.09396e-07
-9.98453e-10
-7.05087e-07
-1.13844e-08
-6.97275e-07
-2.19702e-08
-6.85953e-07
-3.26287e-08
-6.71152e-07
-4.3224e-08
-6.52952e-07
-5.36132e-08
-6.31474e-07
-6.36497e-08
-6.06888e-07
-7.31854e-08
-5.79406e-07
-8.20736e-08
-5.49282e-07
-9.01724e-08
-5.16812e-07
-9.73479e-08
-4.8233e-07
-1.03477e-07
-4.46201e-07
-1.08451e-07
-4.08819e-07
-1.1218e-07
-3.70598e-07
-1.1459e-07
-3.3197e-07
-1.15634e-07
-2.93374e-07
-1.15285e-07
-2.55252e-07
-1.13544e-07
-2.18037e-07
-1.10437e-07
-1.8215e-07
-1.06017e-07
-1.47988e-07
-1.0036e-07
-1.15919e-07
-9.3568e-08
-8.6274e-08
-8.57648e-08
-5.93417e-08
-7.70939e-08
-3.53605e-08
-6.77162e-08
-1.45148e-08
-5.78071e-08
3.06987e-09
-4.7554e-08
1.73306e-08
-3.71542e-08
2.827e-08
-2.68126e-08
3.59591e-08
-1.67421e-08
4.05393e-08
-7.16199e-09
4.22242e-08
1.69931e-09
4.13016e-08
9.60294e-09
3.81347e-08
1.62966e-08
3.31632e-08
2.15125e-08
2.69032e-08
2.49664e-08
1.99475e-08
2.6362e-08
1.29662e-08
2.54025e-08
6.71165e-09
2.18143e-08
2.03995e-09
1.5389e-08
6.05601e-09
-4.73532e-10
-1.4584e-09
-2.53908e-09
6.18508e-10
-6.62471e-09
5.93958e-09
-1.29931e-08
1.32724e-08
-2.17807e-08
2.17422e-08
-3.30262e-08
3.07031e-08
-4.66945e-08
3.96973e-08
-6.26989e-08
4.84206e-08
-8.09191e-08
5.66864e-08
-1.01215e-07
6.43948e-08
-1.2344e-07
7.15074e-08
-1.47442e-07
7.80261e-08
-1.73077e-07
8.39765e-08
-2.00203e-07
8.93942e-08
-2.28683e-07
9.43156e-08
-2.58385e-07
9.87707e-08
-2.89177e-07
1.02779e-07
-3.20923e-07
1.06345e-07
-3.53486e-07
1.09461e-07
-3.86716e-07
1.12104e-07
-4.20454e-07
1.14239e-07
-4.54527e-07
1.15819e-07
-4.88749e-07
1.1679e-07
-5.22915e-07
1.17091e-07
-5.56806e-07
1.16658e-07
-5.90186e-07
1.15428e-07
-6.22807e-07
1.13339e-07
-6.54405e-07
1.10334e-07
-6.84708e-07
1.06363e-07
-7.13436e-07
1.01387e-07
-7.40306e-07
9.53773e-08
-7.65033e-07
8.83191e-08
-7.87337e-07
8.02123e-08
-8.06947e-07
7.10736e-08
-8.23604e-07
6.09372e-08
-8.37066e-07
4.98553e-08
-8.47115e-07
3.78992e-08
-8.53557e-07
2.51589e-08
-8.5623e-07
1.17431e-08
-8.55007e-07
-2.22155e-09
-8.49799e-07
-1.65921e-08
-8.4056e-07
-3.12096e-08
-8.27286e-07
-4.59022e-08
-8.10023e-07
-6.04871e-08
-7.88863e-07
-7.47736e-08
-7.63947e-07
-8.85657e-08
-7.35466e-07
-1.01666e-07
-7.03659e-07
-1.13881e-07
-6.68811e-07
-1.2502e-07
-6.31252e-07
-1.34907e-07
-5.91352e-07
-1.43377e-07
-5.49517e-07
-1.50286e-07
-5.06185e-07
-1.55512e-07
-4.61819e-07
-1.58957e-07
-4.16898e-07
-1.60554e-07
-3.71915e-07
-1.60268e-07
-3.27364e-07
-1.58095e-07
-2.83735e-07
-1.54067e-07
-2.41503e-07
-1.48249e-07
-2.0112e-07
-1.40743e-07
-1.63008e-07
-1.3168e-07
-1.27551e-07
-1.21222e-07
-9.50841e-08
-1.0956e-07
-6.58913e-08
-9.6909e-08
-4.01954e-08
-8.35029e-08
-1.81546e-08
-6.95948e-08
1.42496e-10
-5.54514e-08
1.46814e-08
-4.13515e-08
2.5523e-08
-2.75837e-08
3.28076e-08
-1.44466e-08
3.67558e-08
-2.24894e-09
3.76702e-08
8.68856e-09
3.59356e-08
1.80312e-08
3.20198e-08
2.54284e-08
2.64734e-08
3.05128e-08
1.99313e-08
3.29041e-08
1.3117e-08
3.22168e-08
6.85392e-09
2.80774e-08
2.0943e-09
2.01486e-08
8.15031e-09
-9.77934e-10
-4.8046e-10
-4.3312e-09
3.97175e-09
-1.0329e-08
1.19373e-08
-1.91158e-08
2.20592e-08
-3.07391e-08
3.33656e-08
-4.51701e-08
4.51341e-08
-6.23234e-08
5.68507e-08
-8.20749e-08
6.81721e-08
-1.04276e-07
7.88875e-08
-1.28765e-07
8.8884e-08
-1.55377e-07
9.8119e-08
-1.83946e-07
1.06595e-07
-2.14312e-07
1.14343e-07
-2.4632e-07
1.21402e-07
-2.79817e-07
1.27812e-07
-3.14652e-07
1.33607e-07
-3.50677e-07
1.38803e-07
-3.87733e-07
1.43402e-07
-4.2566e-07
1.47388e-07
-4.64282e-07
1.50727e-07
-5.03414e-07
1.5337e-07
-5.42851e-07
1.55257e-07
-5.82376e-07
1.56315e-07
-6.21752e-07
1.56467e-07
-6.60726e-07
1.55632e-07
-6.99027e-07
1.5373e-07
-7.36373e-07
1.50685e-07
-7.72467e-07
1.46427e-07
-8.07003e-07
1.40899e-07
-8.39669e-07
1.34053e-07
-8.70152e-07
1.25861e-07
-8.9814e-07
1.16307e-07
-9.23328e-07
1.054e-07
-9.45421e-07
9.31667e-08
-9.64141e-07
7.96569e-08
-9.79229e-07
6.49435e-08
-9.90453e-07
4.91229e-08
-9.97609e-07
3.23149e-08
-1.00053e-06
1.46619e-08
-9.99078e-07
-3.67153e-09
-9.93169e-07
-2.25007e-08
-9.82757e-07
-4.16221e-08
-9.67842e-07
-6.08165e-08
-9.48478e-07
-7.98515e-08
-9.24766e-07
-9.84854e-08
-8.96861e-07
-1.16471e-07
-8.6497e-07
-1.33558e-07
-8.29349e-07
-1.49501e-07
-7.90306e-07
-1.64063e-07
-7.48196e-07
-1.77018e-07
-7.03415e-07
-1.88158e-07
-6.56402e-07
-1.97299e-07
-6.0763e-07
-2.04284e-07
-5.57597e-07
-2.0899e-07
-5.06826e-07
-2.11325e-07
-4.55852e-07
-2.11241e-07
-4.05217e-07
-2.0873e-07
-3.55459e-07
-2.03825e-07
-3.07103e-07
-1.96606e-07
-2.60652e-07
-1.87194e-07
-2.1658e-07
-1.75752e-07
-1.7532e-07
-1.62482e-07
-1.37256e-07
-1.47624e-07
-1.02716e-07
-1.31448e-07
-7.19655e-08
-1.14254e-07
-4.51979e-08
-9.63624e-08
-2.25324e-08
-7.81169e-08
-4.00831e-09
-5.98757e-08
1.04188e-08
-4.20108e-08
2.0879e-08
-2.49067e-08
2.75897e-08
-8.95966e-09
3.08571e-08
5.42112e-09
3.10764e-08
1.7812e-08
2.87316e-08
2.77731e-08
2.43966e-08
3.48479e-08
1.87368e-08
3.85639e-08
1.25159e-08
3.84377e-08
6.60958e-09
3.39837e-08
2.03217e-09
2.4726e-08
1.01825e-08
-1.51218e-09
1.03172e-09
-6.24735e-09
8.70691e-09
-1.43018e-08
1.99918e-08
-2.56855e-08
3.34429e-08
-4.03402e-08
4.80202e-08
-5.81557e-08
6.29496e-08
-7.8985e-08
7.768e-08
-1.02658e-07
9.18447e-08
-1.2899e-07
1.0522e-07
-1.57796e-07
1.1769e-07
-1.88889e-07
1.29212e-07
-2.22088e-07
1.39794e-07
-2.57218e-07
1.49473e-07
-2.94111e-07
1.58294e-07
-3.32599e-07
1.66301e-07
-3.72518e-07
1.73525e-07
-4.13699e-07
1.79984e-07
-4.55967e-07
1.8567e-07
-4.99137e-07
1.90558e-07
-5.43013e-07
1.94602e-07
-5.8738e-07
1.97738e-07
-6.3201e-07
1.99886e-07
-6.76653e-07
2.00958e-07
-7.21044e-07
2.00858e-07
-7.64898e-07
1.99486e-07
-8.07917e-07
1.96748e-07
-8.49784e-07
1.92552e-07
-8.90175e-07
1.86818e-07
-9.28755e-07
1.79479e-07
-9.65188e-07
1.70486e-07
-9.99133e-07
1.59806e-07
-1.03026e-06
1.47431e-07
-1.05823e-06
1.33377e-07
-1.08275e-06
1.17684e-07
-1.10351e-06
1.00421e-07
-1.12025e-06
8.16828e-08
-1.13272e-06
6.1594e-08
-1.14072e-06
4.03058e-08
-1.14405e-06
1.79969e-08
-1.14259e-06
-5.12833e-09
-1.13625e-06
-2.88418e-08
-1.12498e-06
-5.28936e-08
-1.10878e-06
-7.70153e-08
-1.08771e-06
-1.00924e-07
-1.06187e-06
-1.24323e-07
-1.03143e-06
-1.46914e-07
-9.96595e-07
-1.68392e-07
-9.57639e-07
-1.88458e-07
-9.14881e-07
-2.06821e-07
-8.68692e-07
-2.23207e-07
-8.19489e-07
-2.37361e-07
-7.67733e-07
-2.49055e-07
-7.13923e-07
-2.58094e-07
-6.5859e-07
-2.64323e-07
-6.0229e-07
-2.67625e-07
-5.45597e-07
-2.67934e-07
-4.89095e-07
-2.65232e-07
-4.33366e-07
-2.59554e-07
-3.78984e-07
-2.50988e-07
-3.26501e-07
-2.39676e-07
-2.76442e-07
-2.25811e-07
-2.29289e-07
-2.09634e-07
-1.85479e-07
-1.91435e-07
-1.45385e-07
-1.71542e-07
-1.09318e-07
-1.50321e-07
-7.75129e-08
-1.28168e-07
-5.01241e-08
-1.05506e-07
-2.72212e-08
-8.27786e-08
-8.78432e-09
-6.04477e-08
5.2987e-09
-3.89897e-08
1.52341e-08
-1.88951e-08
2.1323e-08
-6.67796e-10
2.3962e-08
1.5173e-08
2.36428e-08
2.80923e-08
2.09533e-08
3.75373e-08
1.65802e-08
4.2937e-08
1.13152e-08
4.37027e-08
6.06752e-09
3.92314e-08
1.88553e-09
2.8908e-08
1.2068e-08
-2.06663e-09
3.09834e-09
-8.24875e-09
1.48891e-08
-1.84633e-08
3.02064e-08
-3.25743e-08
4.75538e-08
-5.04062e-08
6.58522e-08
-7.17568e-08
8.43003e-08
-9.6408e-08
1.02331e-07
-1.24135e-07
1.19572e-07
-1.54715e-07
1.358e-07
-1.87931e-07
1.50906e-07
-2.23575e-07
1.64856e-07
-2.61448e-07
1.77668e-07
-3.01362e-07
1.89387e-07
-3.43134e-07
2.00066e-07
-3.86584e-07
2.09751e-07
-4.31534e-07
2.18475e-07
-4.77798e-07
2.26248e-07
-5.25184e-07
2.33056e-07
-5.73488e-07
2.38862e-07
-6.2249e-07
2.43605e-07
-6.71955e-07
2.47202e-07
-7.21626e-07
2.49558e-07
-7.71231e-07
2.50562e-07
-8.20475e-07
2.50102e-07
-8.69048e-07
2.48059e-07
-9.16623e-07
2.44323e-07
-9.6286e-07
2.38789e-07
-1.00741e-06
2.31366e-07
-1.04991e-06
2.21981e-07
-1.09001e-06
2.10581e-07
-1.12734e-06
1.97137e-07
-1.16155e-06
1.81645e-07
-1.1923e-06
1.64131e-07
-1.21927e-06
1.44653e-07
-1.24215e-06
1.23298e-07
-1.26065e-06
1.00186e-07
-1.27453e-06
7.54696e-08
-1.28356e-06
4.93345e-08
-1.28756e-06
2.19958e-08
-1.28638e-06
-6.30135e-09
-1.27994e-06
-3.52847e-08
-1.26818e-06
-6.46571e-08
-1.25109e-06
-9.41004e-08
-1.22874e-06
-1.23279e-07
-1.20122e-06
-1.51845e-07
-1.16869e-06
-1.79441e-07
-1.13137e-06
-2.05709e-07
-1.08953e-06
-2.30294e-07
-1.04351e-06
-2.52851e-07
-9.93662e-07
-2.7305e-07
-9.40434e-07
-2.90589e-07
-8.84298e-07
-3.05191e-07
-8.25774e-07
-3.16619e-07
-7.65417e-07
-3.24679e-07
-7.03814e-07
-3.29228e-07
-6.41574e-07
-3.30174e-07
-5.79319e-07
-3.27487e-07
-5.17675e-07
-3.21198e-07
-4.57262e-07
-3.11401e-07
-3.98685e-07
-2.98254e-07
-3.42518e-07
-2.81977e-07
-2.89299e-07
-2.62853e-07
-2.39516e-07
-2.41219e-07
-1.93595e-07
-2.17462e-07
-1.51897e-07
-1.92019e-07
-1.14701e-07
-1.65363e-07
-8.22056e-08
-1.38001e-07
-5.45163e-08
-1.10468e-07
-3.16442e-08
-8.33197e-08
-1.35021e-08
-5.71318e-08
9.76824e-11
-3.24949e-08
9.4445e-09
-1.00146e-08
1.49289e-08
9.6886e-09
1.70434e-08
2.59778e-08
1.63828e-08
3.8198e-08
1.36461e-08
4.56736e-08
9.64238e-09
4.77064e-08
5.2994e-09
4.35744e-08
1.67828e-09
3.25292e-08
1.37463e-08
-2.63477e-09
5.73311e-09
-1.03082e-08
2.25625e-08
-2.27542e-08
4.26524e-08
-3.96836e-08
6.44832e-08
-6.07958e-08
8.69644e-08
-8.57882e-08
1.09293e-07
-1.14364e-07
1.30907e-07
-1.4624e-07
1.51448e-07
-1.81147e-07
1.70708e-07
-2.18836e-07
1.88594e-07
-2.59074e-07
2.05093e-07
-3.01644e-07
2.20238e-07
-3.46343e-07
2.34086e-07
-3.92974e-07
2.46697e-07
-4.41347e-07
2.58123e-07
-4.91268e-07
2.68396e-07
-5.42539e-07
2.77519e-07
-5.94951e-07
2.85469e-07
-6.48284e-07
2.92194e-07
-7.02297e-07
2.97618e-07
-7.56733e-07
3.01639e-07
-8.11315e-07
3.0414e-07
-8.65747e-07
3.04994e-07
-9.19711e-07
3.04066e-07
-9.72875e-07
3.01222e-07
-1.02489e-06
2.96335e-07
-1.07539e-06
2.89289e-07
-1.124e-06
2.79982e-07
-1.17036e-06
2.68338e-07
-1.21408e-06
2.543e-07
-1.25478e-06
2.37843e-07
-1.29211e-06
2.18972e-07
-1.3257e-06
1.97725e-07
-1.35523e-06
1.74175e-07
-1.38036e-06
1.48431e-07
-1.40081e-06
1.20638e-07
-1.41632e-06
9.09799e-08
-1.42666e-06
5.96731e-08
-1.43164e-06
2.69711e-08
-1.4311e-06
-6.84058e-09
-1.42494e-06
-4.14459e-08
-1.41309e-06
-7.65005e-08
-1.39556e-06
-1.11637e-07
-1.37237e-06
-1.46467e-07
-1.34362e-06
-1.80589e-07
-1.30948e-06
-2.13589e-07
-1.27013e-06
-2.45053e-07
-1.22586e-06
-2.74568e-07
-1.17698e-06
-3.01731e-07
-1.12387e-06
-3.26157e-07
-1.06697e-06
-3.47486e-07
-1.00677e-06
-3.65393e-07
-9.43799e-07
-3.79592e-07
-8.78631e-07
-3.89847e-07
-8.1188e-07
-3.95978e-07
-7.44189e-07
-3.97866e-07
-6.76216e-07
-3.9546e-07
-6.08632e-07
-3.88782e-07
-5.42105e-07
-3.77928e-07
-4.77292e-07
-3.63068e-07
-4.14822e-07
-3.44447e-07
-3.5529e-07
-3.22385e-07
-2.99242e-07
-2.97267e-07
-2.47163e-07
-2.69542e-07
-1.99467e-07
-2.39715e-07
-1.56489e-07
-2.08342e-07
-1.18473e-07
-1.76017e-07
-8.55703e-08
-1.43371e-07
-5.78288e-08
-1.11061e-07
-3.51929e-08
-7.97676e-08
-1.75001e-08
-5.01877e-08
-4.47952e-09
-2.30352e-08
4.24788e-09
9.61214e-10
9.16918e-09
2.10565e-08
1.08797e-08
3.64875e-08
1.0084e-08
4.64693e-08
7.59926e-09
5.01912e-08
4.36043e-09
4.68132e-08
1.42776e-09
3.54618e-08
1.51741e-08
-3.2118e-09
8.94492e-09
-1.24048e-08
3.17555e-08
-2.71276e-08
5.73753e-08
-4.69335e-08
8.42892e-08
-7.13911e-08
1.11422e-07
-1.00092e-07
1.37994e-07
-1.32657e-07
1.63472e-07
-1.68736e-07
1.87527e-07
-2.08015e-07
2.09986e-07
-2.50207e-07
2.30786e-07
-2.95053e-07
2.4994e-07
-3.42317e-07
2.67502e-07
-3.91781e-07
2.83549e-07
-4.43235e-07
2.98151e-07
-4.96476e-07
3.11365e-07
-5.513e-07
3.2322e-07
-6.07497e-07
3.33715e-07
-6.64842e-07
3.42814e-07
-7.23099e-07
3.50451e-07
-7.82012e-07
3.5653e-07
-8.41305e-07
3.60931e-07
-9.00681e-07
3.63517e-07
-9.59825e-07
3.64138e-07
-1.0184e-06
3.62641e-07
-1.07605e-06
3.58876e-07
-1.13242e-06
3.52699e-07
-1.18711e-06
3.43983e-07
-1.23975e-06
3.32621e-07
-1.28994e-06
3.18528e-07
-1.33729e-06
3.01651e-07
-1.38142e-06
2.81969e-07
-1.42194e-06
2.59494e-07
-1.4585e-06
2.34279e-07
-1.49073e-06
2.06412e-07
-1.51833e-06
1.76025e-07
-1.54098e-06
1.43288e-07
-1.55841e-06
1.08413e-07
-1.57038e-06
7.16492e-08
-1.5767e-06
3.32869e-08
-1.57719e-06
-6.34904e-09
-1.57174e-06
-4.69001e-08
-1.56026e-06
-8.79759e-08
-1.54274e-06
-1.2916e-07
-1.51919e-06
-1.70013e-07
-1.4897e-06
-2.10078e-07
-1.45441e-06
-2.48887e-07
-1.41349e-06
-2.85965e-07
-1.36722e-06
-3.20841e-07
-1.3159e-06
-3.53051e-07
-1.25991e-06
-3.82151e-07
-1.19967e-06
-4.07722e-07
-1.13568e-06
-4.29379e-07
-1.06849e-06
-4.46786e-07
-9.98681e-07
-4.59656e-07
-9.26893e-07
-4.67766e-07
-8.53797e-07
-4.70962e-07
-7.8009e-07
-4.69167e-07
-7.06485e-07
-4.62387e-07
-6.33702e-07
-4.50711e-07
-5.62452e-07
-4.34318e-07
-4.93425e-07
-4.13475e-07
-4.27277e-07
-3.88532e-07
-3.64619e-07
-3.59925e-07
-3.06001e-07
-3.2816e-07
-2.51899e-07
-2.93817e-07
-2.02707e-07
-2.57533e-07
-1.58728e-07
-2.19996e-07
-1.20162e-07
-1.81937e-07
-8.71025e-08
-1.44121e-07
-5.95329e-08
-1.07337e-07
-3.73216e-08
-7.2399e-08
-2.02221e-08
-4.01346e-08
-7.87268e-09
-1.13882e-08
2.03156e-10
1.29807e-08
4.59593e-09
3.20947e-08
6.00983e-09
4.50554e-08
5.26359e-09
5.09374e-08
3.29176e-09
4.87851e-08
1.14636e-09
3.76072e-08
1.63204e-08
-3.79361e-09
1.27385e-08
-1.45207e-08
4.24826e-08
-3.15435e-08
7.4398e-08
-5.42548e-08
1.07e-07
-8.20892e-08
1.39256e-07
-1.14529e-07
1.70433e-07
-1.51108e-07
2.00051e-07
-1.91411e-07
2.2783e-07
-2.3507e-07
2.53645e-07
-2.81762e-07
2.77478e-07
-3.312e-07
2.99378e-07
-3.83129e-07
3.19431e-07
-4.37314e-07
3.37734e-07
-4.93535e-07
3.54371e-07
-5.51576e-07
3.69406e-07
-6.11223e-07
3.82867e-07
-6.72253e-07
3.94745e-07
-7.34432e-07
4.04993e-07
-7.97509e-07
4.13528e-07
-8.61212e-07
4.20234e-07
-9.25252e-07
4.24971e-07
-9.89316e-07
4.27581e-07
-1.05307e-06
4.27893e-07
-1.11617e-06
4.25736e-07
-1.17823e-06
4.20942e-07
-1.23889e-06
4.13355e-07
-1.29774e-06
4.02835e-07
-1.35439e-06
3.89269e-07
-1.40843e-06
3.72571e-07
-1.45947e-06
3.52687e-07
-1.5071e-06
3.29602e-07
-1.55094e-06
3.03338e-07
-1.59062e-06
2.73958e-07
-1.62578e-06
2.41572e-07
-1.65609e-06
2.06329e-07
-1.68122e-06
1.68425e-07
-1.70091e-06
1.28098e-07
-1.71489e-06
8.56296e-08
-1.72295e-06
4.13439e-08
-1.7249e-06
-4.39613e-09
-1.72061e-06
-5.11922e-08
-1.70997e-06
-9.86091e-08
-1.69295e-06
-1.46183e-07
-1.66954e-06
-1.93424e-07
-1.6398e-06
-2.39822e-07
-1.60383e-06
-2.84851e-07
-1.56182e-06
-3.27979e-07
-1.51399e-06
-3.68671e-07
-1.46064e-06
-4.06402e-07
-1.40213e-06
-4.40662e-07
-1.33888e-06
-4.70969e-07
-1.27138e-06
-4.96876e-07
-1.20019e-06
-5.17983e-07
-1.12589e-06
-5.3395e-07
-1.04915e-06
-5.44502e-07
-9.70676e-07
-5.4944e-07
-8.91189e-07
-5.48654e-07
-8.11452e-07
-5.42124e-07
-7.32236e-07
-5.29927e-07
-6.54312e-07
-5.12243e-07
-5.78434e-07
-4.89353e-07
-5.05328e-07
-4.61638e-07
-4.35675e-07
-4.29577e-07
-3.70097e-07
-3.93738e-07
-3.09142e-07
-3.54772e-07
-2.53275e-07
-3.13401e-07
-2.02859e-07
-2.70411e-07
-1.58157e-07
-2.26639e-07
-1.19315e-07
-1.82963e-07
-8.63608e-08
-1.40291e-07
-5.92019e-08
-9.95579e-08
-3.76219e-08
-6.17146e-08
-2.12817e-08
-2.77284e-08
-9.72021e-09
1.41917e-09
-2.3564e-09
2.47309e-08
1.5091e-09
4.11899e-08
2.69222e-09
4.97543e-08
2.12292e-09
4.93544e-08
8.42699e-10
3.88874e-08
1.71631e-08
-4.37627e-09
1.71148e-08
-1.66398e-08
5.47461e-08
-3.59654e-08
9.37236e-08
-6.15846e-08
1.3262e-07
-9.27962e-08
1.70468e-07
-1.28971e-07
2.06609e-07
-1.69555e-07
2.40635e-07
-2.14064e-07
2.72339e-07
-2.62078e-07
3.01659e-07
-3.13235e-07
3.28635e-07
-3.6722e-07
3.53364e-07
-4.23758e-07
3.75969e-07
-4.82597e-07
3.96573e-07
-5.43506e-07
4.1528e-07
-6.06259e-07
4.3216e-07
-6.70633e-07
4.47241e-07
-7.36395e-07
4.60507e-07
-8.033e-07
4.71898e-07
-8.71085e-07
4.81313e-07
-9.39468e-07
4.88617e-07
-1.00815e-06
4.93649e-07
-1.07679e-06
4.96229e-07
-1.14507e-06
4.96167e-07
-1.2126e-06
4.93272e-07
-1.27902e-06
4.87359e-07
-1.34393e-06
4.78261e-07
-1.40692e-06
4.65828e-07
-1.46759e-06
4.4994e-07
-1.52553e-06
4.3051e-07
-1.58033e-06
4.07486e-07
-1.63158e-06
3.80858e-07
-1.6789e-06
3.50657e-07
-1.72191e-06
3.16961e-07
-1.76023e-06
2.79892e-07
-1.79352e-06
2.39621e-07
-1.82146e-06
1.96366e-07
-1.84375e-06
1.5039e-07
-1.86013e-06
1.02005e-07
-1.87035e-06
5.1564e-08
-1.87421e-06
-5.32065e-10
-1.87155e-06
-5.38504e-08
-1.86225e-06
-1.0791e-07
-1.84623e-06
-1.62205e-07
-1.82346e-06
-2.16194e-07
-1.79397e-06
-2.69316e-07
-1.75783e-06
-3.20987e-07
-1.71519e-06
-3.70616e-07
-1.66626e-06
-4.17604e-07
-1.6113e-06
-4.6136e-07
-1.55066e-06
-5.01306e-07
-1.48474e-06
-5.3689e-07
-1.41402e-06
-5.67597e-07
-1.33904e-06
-5.92958e-07
-1.26042e-06
-6.12568e-07
-1.17883e-06
-6.26091e-07
-1.095e-06
-6.33277e-07
-1.00968e-06
-6.33968e-07
-9.23695e-07
-6.28111e-07
-8.3786e-07
-6.15762e-07
-7.53009e-07
-5.97093e-07
-6.69969e-07
-5.72393e-07
-5.89539e-07
-5.42068e-07
-5.12481e-07
-5.06635e-07
-4.39497e-07
-4.66722e-07
-3.71217e-07
-4.23052e-07
-3.08182e-07
-3.76436e-07
-2.50833e-07
-3.2776e-07
-1.99499e-07
-2.77973e-07
-1.5439e-07
-2.28072e-07
-1.15587e-07
-1.79094e-07
-8.30424e-08
-1.32102e-07
-5.65774e-08
-8.81797e-08
-3.58805e-08
-4.84253e-08
-2.0511e-08
-1.39503e-08
-9.90119e-09
1.41211e-08
-3.35985e-09
3.46486e-08
-7.66564e-11
4.64711e-08
8.73749e-10
4.84039e-08
5.22478e-10
3.92387e-08
1.76856e-08
-4.95574e-09
2.20706e-08
-1.87459e-08
6.85363e-08
-4.03583e-08
1.15336e-07
-6.88629e-08
1.61124e-07
-1.03423e-07
2.05028e-07
-1.43298e-07
2.46484e-07
-1.87844e-07
2.85181e-07
-2.36508e-07
3.21003e-07
-2.88818e-07
3.53969e-07
-3.44373e-07
3.8419e-07
-4.02829e-07
4.1182e-07
-4.6389e-07
4.3703e-07
-5.27291e-07
4.59974e-07
-5.92788e-07
4.80777e-07
-6.60147e-07
4.99519e-07
-7.29134e-07
5.16228e-07
-7.9951e-07
5.30883e-07
-8.71021e-07
5.43408e-07
-9.43395e-07
5.53687e-07
-1.01634e-06
5.61563e-07
-1.08955e-06
5.66855e-07
-1.16268e-06
5.6936e-07
-1.23538e-06
5.68869e-07
-1.30728e-06
5.65172e-07
-1.37799e-06
5.58071e-07
-1.44712e-06
5.47385e-07
-1.51424e-06
5.32955e-07
-1.57896e-06
5.14658e-07
-1.64085e-06
4.92403e-07
-1.69951e-06
4.66142e-07
-1.75452e-06
4.35868e-07
-1.80548e-06
4.01623e-07
-1.85202e-06
3.63494e-07
-1.89375e-06
3.21621e-07
-1.93032e-06
2.76189e-07
-1.96139e-06
2.27438e-07
-1.98665e-06
1.75653e-07
-2.00582e-06
1.2117e-07
-2.01863e-06
6.43745e-08
-2.02485e-06
5.69458e-09
-2.02431e-06
-5.43974e-08
-2.01683e-06
-1.15386e-07
-2.00232e-06
-1.76719e-07
-1.9807e-06
-2.3781e-07
-1.95197e-06
-2.98046e-07
-1.91617e-06
-3.56787e-07
-1.87341e-06
-4.13381e-07
-1.82384e-06
-4.67166e-07
-1.76772e-06
-5.1748e-07
-1.70536e-06
-5.63674e-07
-1.63713e-06
-6.0512e-07
-1.5635e-06
-6.41228e-07
-1.485e-06
-6.71454e-07
-1.40225e-06
-6.95316e-07
-1.31593e-06
-7.12409e-07
-1.22679e-06
-7.22419e-07
-1.13563e-06
-7.25131e-07
-1.04329e-06
-7.20446e-07
-9.50668e-07
-7.08389e-07
-8.58649e-07
-6.89112e-07
-7.68138e-07
-6.62905e-07
-6.80017e-07
-6.30188e-07
-5.95136e-07
-5.91517e-07
-5.14286e-07
-5.47572e-07
-4.3819e-07
-4.99148e-07
-3.67478e-07
-4.47148e-07
-3.02678e-07
-3.92561e-07
-2.44197e-07
-3.36454e-07
-1.92317e-07
-2.79952e-07
-1.47184e-07
-2.24227e-07
-1.08804e-07
-1.70482e-07
-7.70406e-08
-1.19943e-07
-5.16178e-08
-7.38481e-08
-3.21193e-08
-3.34488e-08
-1.79943e-08
-3.98046e-12
-8.56209e-09
2.52164e-08
-3.01846e-09
4.09275e-08
-4.43544e-10
4.5829e-08
1.8908e-10
3.86061e-08
1.78747e-08
-5.52773e-09
2.75983e-08
-2.08228e-08
8.38313e-08
-4.4687e-08
1.392e-07
-7.60306e-08
1.92468e-07
-1.13882e-07
2.42879e-07
-1.5739e-07
2.89992e-07
-2.05823e-07
3.33614e-07
-2.5856e-07
3.73739e-07
-3.15075e-07
4.10485e-07
-3.74929e-07
4.44044e-07
-4.37752e-07
4.74643e-07
-5.03224e-07
5.02502e-07
-5.71068e-07
5.27817e-07
-6.41028e-07
5.50737e-07
-7.12863e-07
5.71354e-07
-7.86332e-07
5.89697e-07
-8.61188e-07
6.05739e-07
-9.37171e-07
6.19391e-07
-1.014e-06
6.30518e-07
-1.09138e-06
6.38945e-07
-1.169e-06
6.44468e-07
-1.2465e-06
6.46864e-07
-1.32354e-06
6.45904e-07
-1.39973e-06
6.41361e-07
-1.47468e-06
6.33023e-07
-1.54799e-06
6.20695e-07
-1.61924e-06
6.04213e-07
-1.68803e-06
5.83448e-07
-1.75394e-06
5.58308e-07
-1.81654e-06
5.28745e-07
-1.87543e-06
4.9476e-07
-1.93021e-06
4.564e-07
-1.98048e-06
4.13763e-07
-2.02586e-06
3.67e-07
-2.06598e-06
3.16313e-07
-2.1005e-06
2.61956e-07
-2.12909e-06
2.04236e-07
-2.15143e-06
1.43511e-07
-2.16724e-06
8.01889e-08
-2.17627e-06
1.47278e-08
-2.1783e-06
-5.23681e-08
-2.17314e-06
-1.20549e-07
-2.16064e-06
-1.89222e-07
-2.14069e-06
-2.57758e-07
-2.11324e-06
-3.25492e-07
-2.0783e-06
-3.91731e-07
-2.03592e-06
-4.55762e-07
-1.98623e-06
-5.16857e-07
-1.92942e-06
-5.74284e-07
-1.86578e-06
-6.27316e-07
-1.79565e-06
-6.75248e-07
-1.71948e-06
-7.17404e-07
-1.63777e-06
-7.53158e-07
-1.55114e-06
-7.81944e-07
-1.46028e-06
-8.03275e-07
-1.36594e-06
-8.16758e-07
-1.26896e-06