/*--------------------------------*- C++ -*----------------------------------*\
  =========                 |
  \\      /  F ield         | OpenFOAM: The Open Source CFD Toolbox
   \\    /   O peration     | Website:  https://openfoam.org
    \\  /    A nd           | Version:  7
     \\/     M anipulation  |
\*---------------------------------------------------------------------------*/
FoamFile
{
    version     2.0;
    format      ascii;
    class       surfaceScalarField;
    location    "0.75";
    object      phi;
}
// * * * * * * * * * * * * * * * * * * * * * * * * * * * * * * * * * * * * * //

dimensions      [0 3 -1 0 0 0 0];

internalField   nonuniform List<scalar> 
12640
(
2.41152e-10
-2.41175e-10
5.82569e-10
-3.41388e-10
7.7187e-10
-1.89332e-10
6.98617e-10
7.32401e-11
3.28101e-10
3.70491e-10
-3.36127e-10
6.64259e-10
-1.27184e-09
9.35706e-10
-2.44848e-09
1.17664e-09
-3.83315e-09
1.38465e-09
-5.39373e-09
1.56057e-09
-7.1006e-09
1.70688e-09
-8.92739e-09
1.8268e-09
-1.08512e-08
1.92379e-09
-1.28525e-08
2.00128e-09
-1.49148e-08
2.06238e-09
-1.70246e-08
2.10976e-09
-1.91702e-08
2.14563e-09
-2.13419e-08
2.17168e-09
-2.3531e-08
2.18913e-09
-2.57298e-08
2.19872e-09
-2.79305e-08
2.20072e-09
-3.01255e-08
2.19503e-09
-3.23067e-08
2.18121e-09
-3.44652e-08
2.15854e-09
-3.65913e-08
2.12609e-09
-3.86741e-08
2.08276e-09
-4.07014e-08
2.02733e-09
-4.266e-08
1.95858e-09
-4.45353e-08
1.87527e-09
-4.63115e-08
1.77626e-09
-4.7972e-08
1.66049e-09
-4.94991e-08
1.52711e-09
-5.08746e-08
1.37548e-09
-5.20798e-08
1.20524e-09
-5.30962e-08
1.01635e-09
-5.39053e-08
8.09133e-10
-5.44896e-08
5.84311e-10
-5.48326e-08
3.43011e-10
-5.49194e-08
8.68112e-11
-5.47372e-08
-1.82256e-10
-5.42755e-08
-4.61713e-10
-5.35269e-08
-7.48627e-10
-5.24872e-08
-1.03966e-09
-5.11561e-08
-1.3311e-09
-4.95372e-08
-1.61894e-09
-4.76383e-08
-1.89888e-09
-4.54718e-08
-2.16651e-09
-4.30544e-08
-2.41732e-09
-4.04076e-08
-2.64686e-09
-3.75568e-08
-2.85081e-09
-3.45316e-08
-3.02516e-09
-3.13654e-08
-3.16624e-09
-2.80945e-08
-3.27091e-09
-2.47579e-08
-3.3366e-09
-2.13964e-08
-3.36146e-09
-1.8052e-08
-3.34438e-09
-1.4767e-08
-3.28505e-09
-1.1583e-08
-3.18401e-09
-8.54038e-09
-3.04261e-09
-5.67732e-09
-2.86305e-09
-3.02905e-09
-2.64828e-09
-6.27132e-10
-2.40193e-09
1.50117e-09
-2.12831e-09
3.33336e-09
-1.83219e-09
4.85221e-09
-1.51886e-09
6.04615e-09
-1.19395e-09
6.90954e-09
-8.63402e-10
7.44297e-09
-5.33435e-10
7.65356e-09
-2.10589e-10
7.55533e-09
9.82235e-11
7.16981e-09
3.85512e-10
6.52685e-09
6.42948e-10
5.666e-09
8.60865e-10
4.63842e-09
1.0276e-09
3.50986e-09
1.12856e-09
2.36456e-09
1.14529e-09
1.30932e-09
1.05524e-09
4.77407e-10
8.31907e-10
2.27166e-11
4.54691e-10
2.27052e-11
3.43225e-10
-5.84372e-10
6.48799e-10
-6.46987e-10
5.34677e-10
-7.51456e-11
-1.97722e-10
8.05611e-10
-1.63374e-09
1.8065e-09
-3.78383e-09
2.81431e-09
-6.61281e-09
3.7647e-09
-1.00609e-08
4.62479e-09
-1.40573e-08
5.38103e-09
-1.85282e-08
6.03145e-09
-2.34022e-08
6.58083e-09
-2.8613e-08
7.03762e-09
-3.41012e-08
7.412e-09
-3.98143e-08
7.71444e-09
-4.57069e-08
7.95489e-09
-5.17393e-08
8.1422e-09
-5.78775e-08
8.28376e-09
-6.40912e-08
8.38539e-09
-7.03533e-08
8.45126e-09
-7.66386e-08
8.484e-09
-8.29225e-08
8.48469e-09
-8.91806e-08
8.45307e-09
-9.53871e-08
8.38774e-09
-1.01515e-07
8.28631e-09
-1.07534e-07
8.14561e-09
-1.13414e-07
7.96194e-09
-1.19117e-07
7.73124e-09
-1.24608e-07
7.44933e-09
-1.29845e-07
7.11211e-09
-1.34785e-07
6.71572e-09
-1.39381e-07
6.25681e-09
-1.43586e-07
5.7327e-09
-1.47352e-07
5.14151e-09
-1.5063e-07
4.48241e-09
-1.53369e-07
3.75572e-09
-1.55523e-07
2.96308e-09
-1.57046e-07
2.10754e-09
-1.57897e-07
1.19366e-09
-1.58038e-07
2.27564e-10
-1.57437e-07
-7.83031e-10
-1.5607e-07
-1.82882e-09
-1.53919e-07
-2.89897e-09
-1.50978e-07
-3.98125e-09
-1.47247e-07
-5.06218e-09
-1.42738e-07
-6.1272e-09
-1.37476e-07
-7.16097e-09
-1.31495e-07
-8.14765e-09
-1.24841e-07
-9.07122e-09
-1.17572e-07
-9.91585e-09
-1.09757e-07
-1.06663e-08
-1.01474e-07
-1.13084e-08
-9.28106e-08
-1.18292e-08
-8.38638e-08
-1.22177e-08
-7.47355e-08
-1.24648e-08
-6.5533e-08
-1.2564e-08
-5.6366e-08
-1.25114e-08
-4.73454e-08
-1.23057e-08
-3.85805e-08
-1.19489e-08
-3.01774e-08
-1.14457e-08
-2.22367e-08
-1.08038e-08
-1.48514e-08
-1.00335e-08
-8.10556e-09
-9.14783e-09
-2.07186e-09
-8.16202e-09
3.1893e-09
-7.09336e-09
7.63131e-09
-5.96088e-09
1.12225e-08
-4.78511e-09
1.3947e-08
-3.58791e-09
1.58058e-08
-2.39232e-09
1.68179e-08
-1.22263e-09
1.70208e-08
-1.04667e-10
1.64724e-08
9.33868e-10
1.52528e-08
1.86254e-09
1.34664e-08
2.64723e-09
1.12453e-08
3.24874e-09
8.75245e-09
3.62144e-09
6.18485e-09
3.71288e-09
3.77379e-09
3.4663e-09
1.77705e-09
2.82865e-09
4.51359e-10
1.78036e-09
4.74042e-10
1.97587e-10
-7.81991e-10
7.96303e-11
-5.29043e-10
-7.45783e-10
7.50249e-10
-2.49589e-09
2.55577e-09
-5.26882e-09
4.57941e-09
-9.07807e-09
6.62354e-09
-1.3881e-08
8.56765e-09
-1.9601e-08
1.03448e-08
-2.61435e-08
1.19235e-08
-3.3407e-08
1.32949e-08
-4.12906e-08
1.44644e-08
-4.96985e-08
1.54456e-08
-5.85429e-08
1.62564e-08
-6.77444e-08
1.69159e-08
-7.72325e-08
1.7443e-08
-8.6945e-08
1.78547e-08
-9.68266e-08
1.81653e-08
-1.06828e-07
1.83864e-08
-1.16903e-07
1.85263e-08
-1.27009e-07
1.85901e-08
-1.37104e-07
1.85802e-08
-1.47147e-07
1.84961e-08
-1.57095e-07
1.8335e-08
-1.669e-07
1.80922e-08
-1.76516e-07
1.77613e-08
-1.85889e-07
1.73351e-08
-1.94963e-07
1.68054e-08
-2.03678e-07
1.61641e-08
-2.11969e-07
1.54029e-08
-2.19768e-07
1.45145e-08
-2.27003e-07
1.34925e-08
-2.33602e-07
1.23318e-08
-2.3949e-07
1.10294e-08
-2.44592e-07
9.5841e-09
-2.48834e-07
7.99737e-09
-2.52144e-07
6.27336e-09
-2.54456e-07
4.41914e-09
-2.55707e-07
2.44492e-09
-2.55843e-07
3.64137e-10
-2.5482e-07
-1.80656e-09
-2.52601e-07
-4.04726e-09
-2.49165e-07
-6.33502e-09
-2.44503e-07
-8.6441e-09
-2.38618e-07
-1.09462e-08
-2.31535e-07
-1.32111e-08
-2.23289e-07
-1.54068e-08
-2.13936e-07
-1.75006e-08
-2.03547e-07
-1.94595e-08
-1.92213e-07
-2.12508e-08
-1.80036e-07
-2.28432e-08
-1.67137e-07
-2.42076e-08
-1.53648e-07
-2.53175e-08
-1.39716e-07
-2.61503e-08
-1.25493e-07
-2.66872e-08
-1.11142e-07
-2.6915e-08
-9.68285e-08
-2.68252e-08
-8.27187e-08
-2.64156e-08
-6.8978e-08
-2.56896e-08
-5.57669e-08
-2.46569e-08
-4.32377e-08
-2.3333e-08
-3.15322e-08
-2.17391e-08
-2.07782e-08
-1.99018e-08
-1.10877e-08
-1.78526e-08
-2.55372e-09
-1.56273e-08
4.75101e-09
-1.32656e-08
1.07764e-08
-1.08105e-08
1.54964e-08
-8.30794e-09
1.89107e-08
-5.80659e-09
2.10459e-08
-3.35787e-09
2.19575e-08
-1.01624e-09
2.17312e-08
1.16016e-09
2.04853e-08
3.10847e-09
1.83728e-08
4.75975e-09
1.5584e-08
6.03756e-09
1.23484e-08
6.85698e-09
8.9357e-09
7.12559e-09
5.65259e-09
6.74941e-09
2.83426e-09
5.64698e-09
8.28552e-10
3.78604e-09
1.30259e-09
-7.13417e-11
-7.10613e-10
-8.37844e-10
2.37397e-10
-2.63651e-09
2.54892e-09
-5.65539e-09
5.57464e-09
-9.97588e-09
8.89992e-09
-1.55994e-08
1.22471e-08
-2.24707e-08
1.5439e-08
-3.04983e-08
1.83723e-08
-3.95695e-08
2.09948e-08
-4.9563e-08
2.32884e-08
-6.03561e-08
2.52575e-08
-7.18309e-08
2.69205e-08
-8.38774e-08
2.83028e-08
-9.63947e-08
2.94332e-08
-1.09292e-07
3.03401e-08
-1.22487e-07
3.10495e-08
-1.35905e-07
3.1584e-08
-1.4948e-07
3.19614e-08
-1.63149e-07
3.21949e-08
-1.76851e-07
3.22926e-08
-1.90529e-07
3.22581e-08
-2.04124e-07
3.20906e-08
-2.17574e-07
3.17856e-08
-2.30818e-07
3.13355e-08
-2.43787e-07
3.07302e-08
-2.56409e-07
2.9958e-08
-2.6861e-07
2.90058e-08
-2.80306e-07
2.78607e-08
-2.91413e-07
2.65099e-08
-3.01841e-07
2.49417e-08
-3.11495e-07
2.31465e-08
-3.2028e-07
2.11168e-08
-3.28099e-07
1.88484e-08
-3.34855e-07
1.63404e-08
-3.40454e-07
1.35964e-08
-3.44805e-07
1.06242e-08
-3.47822e-07
7.43669e-09
-3.49429e-07
4.05171e-09
-3.49558e-07
4.92534e-10
-3.48152e-07
-3.21241e-09
-3.4517e-07
-7.02936e-09
-3.40585e-07
-1.09197e-08
-3.34389e-07
-1.48403e-08
-3.26591e-07
-1.87441e-08
-3.17221e-07
-2.25806e-08
-3.06331e-07
-2.62972e-08
-2.93992e-07
-2.98396e-08
-2.80298e-07
-3.31534e-08
-2.65364e-07
-3.6185e-08
-2.49324e-07
-3.88829e-08
-2.32333e-07
-4.11991e-08
-2.1456e-07
-4.30901e-08
-1.96192e-07
-4.45186e-08
-1.77425e-07
-4.54539e-08
-1.58466e-07
-4.58737e-08
-1.39527e-07
-4.57642e-08
-1.20822e-07
-4.5121e-08
-1.02562e-07
-4.39495e-08
-8.49539e-08
-4.22651e-08
-6.81941e-08
-4.00928e-08
-5.24659e-08
-3.74673e-08
-3.79357e-08
-3.4432e-08
-2.47497e-08
-3.10386e-08
-1.30306e-08
-2.73464e-08
-2.87503e-09
-2.34212e-08
5.64893e-09
-1.93345e-08
1.25041e-08
-1.51631e-08
1.76861e-08
-1.09886e-08
2.12252e-08
-6.89701e-09
2.31883e-08
-2.97931e-09
2.36804e-08
6.68087e-10
2.28467e-08
3.94221e-09
2.08742e-08
6.73223e-09
1.79934e-08
8.9183e-09
1.44791e-08
1.03713e-08
1.06497e-08
1.0955e-08
6.86534e-09
1.05338e-08
3.52435e-09
8.98795e-09
1.06391e-09
6.24646e-09
2.36651e-09
-3.92835e-10
-3.17776e-10
-1.94015e-09
1.78474e-09
-4.87993e-09
5.48867e-09
-9.34091e-09
1.00356e-08
-1.53657e-08
1.49248e-08
-2.2929e-08
1.98104e-08
-3.19553e-08
2.44653e-08
-4.23355e-08
2.87525e-08
-5.39404e-08
3.25997e-08
-6.66317e-08
3.59796e-08
-8.02697e-08
3.88956e-08
-9.47192e-08
4.137e-08
-1.09853e-07
4.34364e-08
-1.25552e-07
4.51327e-08
-1.4171e-07
4.64975e-08
-1.58227e-07
4.75664e-08
-1.75013e-07
4.83702e-08
-1.91985e-07
4.89336e-08
-2.09065e-07
4.92747e-08
-2.26177e-07
4.94047e-08
-2.43247e-07
4.93283e-08
-2.60201e-07
4.90443e-08
-2.76961e-07
4.85459e-08
-2.93448e-07
4.78223e-08
-3.09576e-07
4.68589e-08
-3.25258e-07
4.56391e-08
-3.40396e-07
4.41444e-08
-3.54892e-07
4.23565e-08
-3.6864e-07
4.02574e-08
-3.81529e-07
3.78313e-08
-3.93448e-07
3.50649e-08
-4.04279e-07
3.19483e-08
-4.13907e-07
2.84767e-08
-4.22217e-07
2.46503e-08
-4.29096e-07
2.04754e-08
-4.34437e-07
1.59649e-08
-4.38139e-07
1.11389e-08
-4.40112e-07
6.02497e-09
-4.40278e-07
6.58269e-10
-4.38572e-07
-4.91848e-09
-4.34946e-07
-1.06549e-08
-4.29372e-07
-1.64939e-08
-4.21841e-07
-2.23715e-08
-4.12367e-07
-2.82186e-08
-4.00986e-07
-3.39612e-08
-3.87761e-07
-3.95221e-08
-3.72779e-07
-4.48221e-08
-3.5615e-07
-4.97818e-08
-3.38012e-07
-5.43229e-08
-3.18525e-07
-5.83706e-08
-2.97869e-07
-6.18546e-08
-2.76247e-07
-6.47118e-08
-2.53879e-07
-6.68874e-08
-2.30996e-07
-6.83364e-08
-2.07844e-07
-6.90257e-08
-1.84674e-07
-6.89346e-08
-1.61739e-07
-6.80561e-08
-1.39291e-07
-6.63971e-08
-1.17577e-07
-6.39791e-08
-9.68319e-08
-6.08379e-08
-7.7276e-08
-5.70231e-08
-5.91105e-08
-5.25975e-08
-4.2513e-08
-4.76362e-08
-2.76338e-08
-4.22256e-08
-1.45931e-08
-3.64619e-08
-3.47711e-09
-3.04505e-08
5.66405e-09
-2.43043e-08
1.28191e-08
-1.81436e-08
1.80175e-08
-1.20954e-08
2.13316e-08
-6.29336e-09
2.2878e-08
-8.78346e-10
2.28195e-08
4.0007e-09
2.13659e-08
8.18577e-09
1.87752e-08
1.1509e-08
1.53535e-08
1.3793e-08
1.14549e-08
1.48536e-08
7.48182e-09
1.45069e-08
3.88686e-09
1.25829e-08
1.18448e-09
8.94885e-09
3.55099e-09
-7.35035e-10
4.17269e-10
-3.13231e-09
4.18203e-09
-7.31377e-09
9.67013e-09
-1.333e-08
1.60519e-08
-2.11689e-08
2.27636e-08
-3.07662e-08
2.94076e-08
-4.2018e-08
3.57172e-08
-5.47934e-08
4.15279e-08
-6.89452e-08
4.67514e-08
-8.43187e-08
5.13532e-08
-1.0076e-07
5.53365e-08
-1.18118e-07
5.87286e-08
-1.36253e-07
6.15709e-08
-1.55031e-07
6.39112e-08
-1.74332e-07
6.57982e-08
-1.94043e-07
6.7277e-08
-2.14059e-07
6.83869e-08
-2.34285e-07
6.91594e-08
-2.54628e-07
6.96173e-08
-2.74998e-07
6.97749e-08
-2.95307e-07
6.96378e-08
-3.15467e-07
6.92036e-08
-3.35384e-07
6.84633e-08
-3.54964e-07
6.7402e-08
-3.74105e-07
6.60005e-08
-3.92703e-07
6.42364e-08
-4.10644e-07
6.20856e-08
-4.27811e-07
5.95239e-08
-4.44082e-07
5.65281e-08
-4.59328e-07
5.30777e-08
-4.73419e-07
4.91557e-08
-4.86221e-07
4.47506e-08
-4.97602e-07
3.98569e-08
-5.07428e-07
3.44766e-08
-5.15572e-07
2.86196e-08
-5.21912e-07
2.23051e-08
-5.26335e-07
1.55619e-08
-5.28739e-07
8.42856e-09
-5.29035e-07
9.54202e-10
-5.27151e-07
-6.80212e-09
-5.23035e-07
-1.47713e-08
-5.16654e-07
-2.28748e-08
-5.07999e-07
-3.10259e-08
-4.97088e-07
-3.91302e-08
-4.83962e-07
-4.70874e-08
-4.68691e-07
-5.47928e-08
-4.51374e-07
-6.21393e-08
-4.32136e-07
-6.90193e-08
-4.11132e-07
-7.5327e-08
-3.88542e-07
-8.09611e-08
-3.6457e-07
-8.58265e-08
-3.39444e-07
-8.98374e-08
-3.13412e-07
-9.29191e-08
-2.86739e-07
-9.50103e-08
-2.59699e-07
-9.6065e-08
-2.3258e-07
-9.60542e-08
-2.05669e-07
-9.49669e-08
-1.79255e-07
-9.28112e-08
-1.53619e-07
-8.96145e-08
-1.29034e-07
-8.54237e-08
-1.05752e-07
-8.03046e-08
-8.40084e-08
-7.43411e-08
-6.40105e-08
-6.76341e-08
-4.59362e-08
-6.02999e-08
-2.99292e-08
-5.2469e-08
-1.60954e-08
-4.42842e-08
-4.5e-09
-3.58997e-08
4.83555e-09
-2.74792e-08
1.19357e-08
-1.91956e-08
1.6873e-08
-1.12306e-08
1.97693e-08
-3.77467e-09
2.07975e-08
2.97252e-09
2.0182e-08
8.80128e-09
1.81993e-08
1.34916e-08
1.51786e-08
1.68138e-08
1.15015e-08
1.85307e-08
7.60497e-09
1.84034e-08
3.98674e-09
1.62011e-08
1.22055e-09
1.1715e-08
4.77154e-09
-1.08204e-09
1.49928e-09
-4.36059e-09
7.46059e-09
-9.83834e-09
1.51479e-08
-1.74779e-08
2.36914e-08
-2.72019e-08
3.24876e-08
-3.8898e-08
4.11037e-08
-5.24271e-08
4.92462e-08
-6.76315e-08
5.67323e-08
-8.43432e-08
6.34631e-08
-1.02391e-07
6.9401e-08
-1.21606e-07
7.45514e-08
-1.41825e-07
7.89481e-08
-1.62896e-07
8.26413e-08
-1.84673e-07
8.5689e-08
-2.07025e-07
8.81501e-08
-2.29828e-07
9.00796e-08
-2.52966e-07
9.15251e-08
-2.76331e-07
9.25244e-08
-2.99819e-07
9.31053e-08
-3.23329e-07
9.32843e-08
-3.46758e-07
9.30675e-08
-3.70006e-07
9.24514e-08
-3.92967e-07
9.14238e-08
-4.1553e-07
8.99654e-08
-4.37581e-07
8.80518e-08
-4.58999e-07
8.56544e-08
-4.79657e-07
8.2743e-08
-4.9942e-07
7.92873e-08
-5.1815e-07
7.52584e-08
-5.35704e-07
7.06311e-08
-5.51933e-07
6.53852e-08
-5.6669e-07
5.95069e-08
-5.79824e-07
5.29911e-08
-5.91189e-07
4.58415e-08
-6.00642e-07
3.80729e-08
-6.08048e-07
2.97115e-08
-6.13282e-07
2.07956e-08
-6.1623e-07
1.13765e-08
-6.16794e-07
1.51849e-09
-6.14895e-07
-8.7013e-09
-6.10473e-07
-1.91931e-08
-6.03493e-07
-2.98554e-08
-5.93943e-07
-4.05758e-08
-5.8184e-07
-5.1233e-08
-5.6723e-07
-6.16976e-08
-5.50188e-07
-7.1835e-08
-5.3082e-07
-8.15074e-08
-5.09262e-07
-9.05765e-08
-4.85683e-07
-9.89064e-08
-4.60278e-07
-1.06366e-07
-4.33271e-07
-1.12833e-07
-4.04912e-07
-1.18196e-07
-3.75473e-07
-1.22359e-07
-3.45243e-07
-1.2524e-07
-3.14529e-07
-1.26779e-07
-2.83647e-07
-1.26937e-07
-2.52916e-07
-1.25697e-07
-2.2266e-07
-1.23068e-07
-1.93193e-07
-1.19081e-07
-1.64821e-07
-1.13796e-07
-1.3783e-07
-1.07295e-07
-1.12488e-07
-9.96832e-08
-8.90327e-08
-9.10897e-08
-6.76695e-08
-8.16631e-08
-4.85676e-08
-7.15709e-08
-3.18546e-08
-6.09972e-08
-1.76135e-08
-5.01409e-08
-5.87916e-09
-3.92135e-08
3.36369e-09
-2.84384e-08
1.0183e-08
-1.80499e-08
1.47008e-08
-8.29245e-09
1.70942e-08
5.7912e-10
1.75962e-08
8.29927e-09
1.64961e-08
1.45917e-08
1.41399e-08
1.917e-08
1.09313e-08
2.17392e-08
7.33535e-09
2.19993e-08
3.88515e-09
1.96513e-08
1.19626e-09
1.44039e-08
5.96779e-09
-1.42655e-09
2.92582e-09
-5.59585e-09
1.16299e-08
-1.23943e-08
2.19464e-08
-2.16928e-08
3.29899e-08
-3.33426e-08
4.41374e-08
-4.71773e-08
5.49384e-08
-6.30165e-08
6.50854e-08
-8.06717e-08
7.43875e-08
-9.99515e-08
8.27428e-08
-1.20666e-07
9.01158e-08
-1.42633e-07
9.65178e-08
-1.65676e-07
1.01991e-07
-1.89631e-07
1.06597e-07
-2.14346e-07
1.10404e-07
-2.39677e-07
1.13481e-07
-2.65492e-07
1.15895e-07
-2.91667e-07
1.177e-07
-3.18083e-07
1.1894e-07
-3.44626e-07
1.19649e-07
-3.71185e-07
1.19843e-07
-3.97648e-07
1.1953e-07
-4.239e-07
1.18704e-07
-4.49826e-07
1.17349e-07
-4.75302e-07
1.15441e-07
-5.002e-07
1.1295e-07
-5.24387e-07
1.09841e-07
-5.4772e-07
1.06076e-07
-5.70051e-07
1.01619e-07
-5.91228e-07
9.64352e-08
-6.11091e-07
9.04944e-08
-6.29479e-07
8.3773e-08
-6.46227e-07
7.62555e-08
-6.61173e-07
6.79366e-08
-6.74154e-07
5.88228e-08
-6.85015e-07
4.89339e-08
-6.93607e-07
3.83035e-08
-6.99792e-07
2.69807e-08
-7.03446e-07
1.50302e-08
-7.0446e-07
2.53264e-09
-7.02746e-07
-1.04156e-08
-6.98236e-07
-2.37027e-08
-6.90889e-07
-3.72024e-08
-6.8069e-07
-5.07753e-08
-6.67652e-07
-6.42707e-08
-6.51821e-07
-7.75285e-08
-6.33274e-07
-9.03818e-08
-6.12122e-07
-1.0266e-07
-5.88508e-07
-1.14191e-07
-5.62608e-07
-1.24806e-07
-5.34632e-07
-1.34342e-07
-5.04819e-07
-1.42647e-07
-4.73435e-07
-1.4958e-07
-4.40775e-07
-1.55019e-07
-4.07151e-07
-1.58864e-07
-3.72896e-07
-1.61034e-07
-3.38354e-07
-1.61479e-07
-3.03876e-07
-1.60175e-07
-2.69817e-07
-1.57127e-07
-2.36524e-07
-1.52374e-07
-2.04337e-07
-1.45983e-07
-1.73578e-07
-1.38054e-07
-1.44545e-07
-1.28716e-07
-1.1751e-07
-1.18126e-07
-9.27066e-08
-1.06466e-07
-7.03327e-08
-9.39447e-08
-5.05404e-08
-8.07896e-08
-3.34333e-08
-6.72479e-08
-1.90637e-08
-5.3583e-08
-7.42917e-09
-4.0073e-08
1.52947e-09
-2.70086e-08
7.9298e-09
-1.46928e-08
1.19488e-08
-3.43989e-09
1.38236e-08
6.42451e-09
1.38516e-08
1.45637e-08
1.23916e-08
2.063e-08
9.86488e-09
2.4266e-08
6.75858e-09
2.51056e-08
3.63243e-09
2.27775e-08
1.12974e-09
1.69066e-08
7.09753e-09
-1.76541e-09
4.69124e-09
-6.82257e-09
1.6687e-08
-1.49468e-08
3.00706e-08
-2.5917e-08
4.39601e-08
-3.95104e-08
5.77308e-08
-5.55022e-08
7.09302e-08
-7.36674e-08
8.32505e-08
-9.37829e-08
9.45031e-08
-1.15631e-07
1.04591e-07
-1.39004e-07
1.13488e-07
-1.63701e-07
1.21215e-07
-1.89537e-07
1.27827e-07
-2.16337e-07
1.33397e-07
-2.43939e-07
1.38006e-07
-2.72193e-07
1.41735e-07
-3.00959e-07
1.44661e-07
-3.30105e-07
1.46846e-07
-3.59505e-07
1.48341e-07
-3.89038e-07
1.49182e-07
-4.18584e-07
1.49389e-07
-4.4802e-07
1.48967e-07
-4.77225e-07
1.47909e-07
-5.0607e-07
1.46195e-07
-5.34423e-07
1.43794e-07
-5.62144e-07
1.40671e-07
-5.89086e-07
1.36783e-07
-6.15096e-07
1.32086e-07
-6.40013e-07
1.26535e-07
-6.63669e-07
1.20092e-07
-6.85893e-07
1.12718e-07
-7.06509e-07
1.04389e-07
-7.25338e-07
9.5085e-08
-7.42204e-07
8.48022e-08
-7.5693e-07
7.35495e-08
-7.69348e-07
6.13516e-08
-7.79295e-07
4.82503e-08
-7.8662e-07
3.43056e-08
-7.91186e-07
1.95961e-08
-7.92873e-07
4.21962e-09
-7.91581e-07
-1.17074e-08
-7.87234e-07
-2.805e-08
-7.7978e-07
-4.46561e-08
-7.69197e-07
-6.13579e-08
-7.55494e-07
-7.79738e-08
-7.38712e-07
-9.4311e-08
-7.18925e-07
-1.10168e-07
-6.96246e-07
-1.25339e-07
-6.70819e-07
-1.39617e-07
-6.42829e-07
-1.52797e-07
-6.12491e-07
-1.6468e-07
-5.80057e-07
-1.7508e-07
-5.4581e-07
-1.83827e-07
-5.1006e-07
-1.9077e-07
-4.73142e-07
-1.95781e-07
-4.35413e-07
-1.98763e-07
-3.97245e-07
-1.99647e-07
-3.5902e-07
-1.984e-07
-3.21122e-07
-1.95025e-07
-2.83936e-07
-1.8956e-07
-2.47834e-07
-1.82085e-07
-2.13175e-07
-1.72714e-07
-1.80293e-07
-1.61598e-07
-1.49492e-07
-1.48926e-07
-1.21042e-07
-1.34916e-07
-9.51701e-08
-1.19817e-07
-7.20566e-08
-1.03903e-07
-5.18301e-08
-8.74744e-08
-3.45638e-08
-7.08493e-08
-2.02723e-08
-5.43645e-08
-8.90894e-09
-3.83719e-08
-3.64626e-10
-2.32371e-08
5.53377e-09
-9.33829e-09
9.02378e-09
2.93453e-09
1.04078e-08
1.31796e-08
1.00539e-08
2.0984e-08
8.39679e-09
2.59231e-08
5.94123e-09
2.75612e-08
3.26643e-09
2.54523e-08
1.0337e-09
1.91393e-08
8.13125e-09
-2.09745e-09
6.7887e-09
-8.03264e-09
2.26222e-08
-1.74754e-08
3.95134e-08
-3.01142e-08
5.6599e-08
-4.56516e-08
7.32682e-08
-6.38026e-08
8.90812e-08
-8.42945e-08
1.03742e-07
-1.06868e-07
1.17077e-07
-1.31278e-07
1.29001e-07
-1.57293e-07
1.39504e-07
-1.84701e-07
1.48622e-07
-2.13301e-07
1.56427e-07
-2.4291e-07
1.63006e-07
-2.73359e-07
1.68455e-07
-3.04491e-07
1.72868e-07
-3.36161e-07
1.76331e-07
-3.6823e-07
1.78915e-07
-4.00568e-07
1.80679e-07
-4.33047e-07
1.8166e-07
-4.65539e-07
1.8188e-07
-4.97916e-07
1.81344e-07
-5.30048e-07
1.80041e-07
-5.61798e-07
1.77945e-07
-5.93024e-07
1.7502e-07
-6.23577e-07
1.71224e-07
-6.53299e-07
1.66505e-07
-6.82026e-07
1.60812e-07
-7.09585e-07
1.54094e-07
-7.35797e-07
1.46303e-07
-7.60476e-07
1.37398e-07
-7.83435e-07
1.27347e-07
-8.0448e-07
1.16131e-07
-8.23422e-07
1.03744e-07
-8.4007e-07
9.01976e-08
-8.54241e-07
7.5522e-08
-8.65757e-07
5.97668e-08
-8.74454e-07
4.30027e-08
-8.80181e-07
2.53227e-08
-8.82803e-07
6.84176e-09
-8.82207e-07
-1.2303e-08
-8.78304e-07
-3.19531e-08
-8.71031e-07
-5.19296e-08
-8.60353e-07
-7.20352e-08
-8.46271e-07
-9.20562e-08
-8.28817e-07
-1.11765e-07
-8.0806e-07
-1.30925e-07
-7.84107e-07
-1.49292e-07
-7.57104e-07
-1.6662e-07
-7.27235e-07
-1.82666e-07
-6.94721e-07
-1.97193e-07
-6.59823e-07
-2.09978e-07
-6.22835e-07
-2.20816e-07
-5.84083e-07
-2.29522e-07
-5.43923e-07
-2.35941e-07
-5.02734e-07
-2.39951e-07
-4.60916e-07
-2.41465e-07
-4.18881e-07
-2.40435e-07
-3.77047e-07
-2.36858e-07
-3.35833e-07
-2.30774e-07
-2.95651e-07
-2.22267e-07
-2.56897e-07
-2.11468e-07
-2.19943e-07
-1.98552e-07
-1.85134e-07
-1.83735e-07
-1.52775e-07
-1.67275e-07
-1.23129e-07
-1.49462e-07
-9.64092e-08
-1.30623e-07
-7.27726e-08
-1.11111e-07
-5.23179e-08
-9.1304e-08
-3.50808e-08
-7.16016e-08
-2.10315e-08
-5.24213e-08
-1.00726e-08
-3.4196e-08
-2.03854e-09
-1.73724e-08
3.30579e-09
-2.4098e-09
6.26481e-09
1.02206e-08
7.213e-09
2.00358e-08
6.59578e-09
2.65403e-08
4.93137e-09
2.92256e-08
2.81374e-09
2.75699e-08
9.16592e-10
2.10365e-08
9.04785e-09
-2.42232e-09
9.21102e-09
-9.22186e-09
2.94217e-08
-1.99679e-08
5.02595e-08
-3.42613e-08
7.08923e-08
-5.17301e-08
9.07371e-08
-7.20287e-08
1.0938e-07
-9.48358e-08
1.2655e-07
-1.19854e-07
1.42095e-07
-1.46809e-07
1.55956e-07
-1.75448e-07
1.68143e-07
-2.05542e-07
1.78716e-07
-2.36878e-07
1.87763e-07
-2.69265e-07
1.95393e-07
-3.02527e-07
2.01717e-07
-3.36503e-07
2.06843e-07
-3.7104e-07
2.10868e-07
-4.05999e-07
2.13874e-07
-4.41244e-07
2.15923e-07
-4.76642e-07
2.17058e-07
-5.12061e-07
2.173e-07
-5.47368e-07
2.16652e-07
-5.82426e-07
2.15099e-07
-6.17093e-07
2.12611e-07
-6.51217e-07
2.09145e-07
-6.84642e-07
2.04649e-07
-7.17202e-07
1.99064e-07
-7.48721e-07
1.92331e-07
-7.79016e-07
1.8439e-07
-8.07897e-07
1.75184e-07
-8.35167e-07
1.64668e-07
-8.60624e-07
1.52804e-07
-8.84063e-07
1.3957e-07
-9.05278e-07
1.24959e-07
-9.24066e-07
1.08986e-07
-9.40228e-07
9.16836e-08
-9.53571e-07
7.31095e-08
-9.63913e-07
5.33453e-08
-9.71088e-07
3.24975e-08
-9.74945e-07
1.06983e-08
-9.75353e-07
-1.18946e-08
-9.72207e-07
-3.50987e-08
-9.65429e-07
-5.87081e-08
-9.54969e-07
-8.2495e-08
-9.40813e-07
-1.06212e-07
-9.22981e-07
-1.29598e-07
-9.01531e-07
-1.52375e-07
-8.76563e-07
-1.7426e-07
-8.48216e-07
-1.94967e-07
-8.16673e-07
-2.1421e-07
-7.82155e-07
-2.31711e-07
-7.44929e-07
-2.47205e-07
-7.05297e-07
-2.60448e-07
-6.636e-07
-2.71219e-07
-6.20212e-07
-2.79329e-07
-5.75535e-07
-2.84628e-07
-5.29996e-07
-2.87004e-07
-4.84039e-07
-2.86393e-07
-4.38116e-07
-2.82781e-07
-3.92687e-07
-2.76204e-07
-3.48201e-07
-2.66752e-07
-3.05098e-07
-2.54571e-07
-2.63795e-07
-2.39855e-07
-2.24678e-07
-2.22853e-07
-1.88095e-07
-2.03857e-07
-1.5435e-07
-1.83208e-07
-1.23692e-07
-1.61281e-07
-9.63143e-08
-1.38489e-07
-7.23448e-08
-1.15274e-07
-5.1845e-08
-9.21014e-08
-3.48057e-08
-6.94605e-08
-2.11455e-08
-4.78562e-08
-1.07091e-08
-2.78088e-08
-3.26708e-09
-9.85186e-09
1.48473e-09
5.4688e-09
3.92498e-09
1.75955e-08
4.50726e-09
2.5958e-08
3.76085e-09
2.9972e-08
2.29178e-09
2.9039e-08
7.83728e-10
2.25446e-08
9.83158e-09
-2.73999e-09
1.1951e-08
-1.03879e-08
3.70697e-08
-2.24168e-08
6.22884e-08
-3.83425e-08
8.68179e-08
-5.77204e-08
1.10115e-07
-8.01444e-08
1.31804e-07
-1.05244e-07
1.5165e-07
-1.32685e-07
1.69535e-07
-1.62161e-07
1.85432e-07
-1.93398e-07
1.99381e-07
-2.2615e-07
2.11468e-07
-2.60194e-07
2.21807e-07
-2.9533e-07
2.30528e-07
-3.31375e-07
2.37762e-07
-3.68164e-07
2.43632e-07
-4.05543e-07
2.48247e-07
-4.43368e-07
2.51699e-07
-4.81501e-07
2.54056e-07
-5.19807e-07
2.55364e-07
-5.58152e-07
2.55644e-07
-5.96398e-07
2.54898e-07
-6.34403e-07
2.53104e-07
-6.7202e-07
2.50228e-07
-7.09093e-07
2.46218e-07
-7.45458e-07
2.41013e-07
-7.8094e-07
2.34547e-07
-8.15356e-07
2.26747e-07
-8.48514e-07
2.17547e-07
-8.80211e-07
2.06882e-07
-9.10241e-07
1.94697e-07
-9.38388e-07
1.80951e-07
-9.64434e-07
1.65616e-07
-9.88159e-07
1.48684e-07
-1.00934e-06
1.30171e-07
-1.02777e-06
1.10112e-07
-1.04323e-06
8.85724e-08
-1.05553e-06
6.5643e-08
-1.06448e-06
4.14433e-08
-1.0699e-06
1.61224e-08
-1.07165e-06
-1.01421e-08
-1.06961e-06
-3.71439e-08
-1.06367e-06
-6.46496e-08
-1.05376e-06
-9.24009e-08
-1.03986e-06
-1.20117e-07
-1.02196e-06
-1.47496e-07
-1.00011e-06
-1.74225e-07
-9.74393e-07
-1.99976e-07
-9.44941e-07
-2.24419e-07
-9.11927e-07
-2.47223e-07
-8.75573e-07
-2.68065e-07
-8.36145e-07
-2.86633e-07
-7.93952e-07
-3.0264e-07
-7.49347e-07
-3.15823e-07
-7.02721e-07
-3.25956e-07
-6.54498e-07
-3.3285e-07
-6.05133e-07
-3.36369e-07
-5.55102e-07
-3.36424e-07
-5.04896e-07
-3.32986e-07
-4.55014e-07
-3.26086e-07
-4.05953e-07
-3.15814e-07
-3.58198e-07
-3.02326e-07
-3.12215e-07
-2.85839e-07
-2.68438e-07
-2.66629e-07
-2.27266e-07
-2.4503e-07
-1.89047e-07
-2.21427e-07
-1.54075e-07
-1.96253e-07
-1.22582e-07
-1.69982e-07
-9.47328e-08
-1.43122e-07
-7.06197e-08
-1.16215e-07
-5.02587e-08
-8.98215e-08
-3.3588e-08
-6.45269e-08
-2.04661e-08
-4.09306e-08
-1.06719e-08
-1.96461e-08
-3.9039e-09
-1.29919e-09
2.18814e-10
1.34728e-08
2.15646e-09
2.40204e-08
2.448e-09
2.96805e-08
1.71057e-09
2.97764e-08
6.38098e-10
2.3617e-08
1.04697e-08
-3.05044e-09
1.50014e-08
-1.15291e-08
4.55483e-08
-2.48165e-08
7.55759e-08
-4.23463e-08
1.04348e-07
-6.36031e-08
1.31372e-07
-8.81215e-08
1.56322e-07
-1.15483e-07
1.79011e-07
-1.45314e-07
1.99365e-07
-1.77279e-07
2.17398e-07
-2.11083e-07
2.33185e-07
-2.46463e-07
2.46847e-07
-2.83183e-07
2.58528e-07
-3.21037e-07
2.68382e-07
-3.59837e-07
2.76562e-07
-3.99415e-07
2.83209e-07
-4.39614e-07
2.88447e-07
-4.80291e-07
2.92376e-07
-5.21305e-07
2.95071e-07
-5.62521e-07
2.9658e-07
-6.03803e-07
2.96926e-07
-6.45011e-07
2.96106e-07
-6.86002e-07
2.94095e-07
-7.26624e-07
2.9085e-07
-7.66717e-07
2.86311e-07
-8.06111e-07
2.80407e-07
-8.44625e-07
2.73061e-07
-8.82069e-07
2.64191e-07
-9.18242e-07
2.5372e-07
-9.52931e-07
2.41572e-07
-9.85919e-07
2.27685e-07
-1.01698e-06
2.12009e-07
-1.04588e-06
1.94513e-07
-1.07238e-06
1.75186e-07
-1.09625e-06
1.5404e-07
-1.11725e-06
1.31115e-07
-1.13516e-06
1.06481e-07
-1.14975e-06
8.02365e-08
-1.16082e-06
5.25138e-08
-1.16818e-06
2.3477e-08
-1.17164e-06
-6.6767e-09
-1.17107e-06
-3.7718e-08
-1.16633e-06
-6.93862e-08
-1.15734e-06
-1.01392e-07
-1.14404e-06
-1.33419e-07
-1.1264e-06
-1.6513e-07
-1.10446e-06
-1.96166e-07
-1.07828e-06
-2.26158e-07
-1.04797e-06
-2.54727e-07
-1.0137e-06
-2.81493e-07
-9.75683e-07
-3.06083e-07
-9.3418e-07
-3.28136e-07
-8.89506e-07
-3.47314e-07
-8.42022e-07
-3.63307e-07
-7.92135e-07
-3.75843e-07
-7.4029e-07
-3.84695e-07
-6.86971e-07
-3.89688e-07
-6.32688e-07
-3.90708e-07
-5.77972e-07
-3.87703e-07
-5.23366e-07
-3.80691e-07
-4.69417e-07
-3.69763e-07
-4.16663e-07
-3.5508e-07
-3.65623e-07
-3.36878e-07
-3.1679e-07
-3.15463e-07
-2.70614e-07
-2.91206e-07
-2.27498e-07
-2.64542e-07
-1.87789e-07
-2.35963e-07
-1.51764e-07
-2.06007e-07
-1.1963e-07
-1.75256e-07
-9.15162e-08
-1.44328e-07
-6.74693e-08
-1.13868e-07
-4.74513e-08
-8.45449e-08
-3.13386e-08
-5.70433e-08
-1.89209e-08
-3.20638e-08
-9.90178e-09
-1.03183e-08
-3.89953e-09
7.47056e-09
-4.48388e-10
2.05692e-08
9.99993e-10
2.82321e-08
1.07442e-09
2.9702e-08
4.80994e-10
2.42105e-08
1.09507e-08
-3.35353e-09
1.8355e-08
-1.26439e-08
5.48387e-08
-2.71624e-08
9.00943e-08
-4.6263e-08
1.23448e-07
-6.9362e-08
1.54471e-07
-9.59361e-08
1.82896e-07
-1.2552e-07
2.08595e-07
-1.57701e-07
2.31547e-07
-1.92117e-07
2.51814e-07
-2.2845e-07
2.69518e-07
-2.6642e-07
2.84817e-07
-3.05783e-07
2.97891e-07
-3.46324e-07
3.08923e-07
-3.87851e-07
3.1809e-07
-4.30195e-07
3.25553e-07
-4.73198e-07
3.31451e-07
-5.16717e-07
3.35894e-07
-5.60612e-07
3.38966e-07
-6.04748e-07
3.40716e-07
-6.48989e-07
3.41167e-07
-6.93197e-07
3.40313e-07
-7.37225e-07
3.38123e-07
-7.80921e-07
3.34546e-07
-8.24121e-07
3.29511e-07
-8.66651e-07
3.22938e-07
-9.08326e-07
3.14736e-07
-9.48949e-07
3.04814e-07
-9.8831e-07
2.93081e-07
-1.02619e-06
2.79451e-07
-1.06236e-06
2.63852e-07
-1.09657e-06
2.46225e-07
-1.12859e-06
2.26531e-07
-1.15816e-06
2.04754e-07
-1.18502e-06
1.80906e-07
-1.20893e-06
1.55025e-07
-1.22964e-06
1.27185e-07
-1.24689e-06
9.74921e-08
-1.26047e-06
6.60875e-08
-1.27014e-06
3.31499e-08
-1.27571e-06
-1.10499e-09
-1.277e-06
-3.64262e-08
-1.27386e-06
-7.2526e-08
-1.26617e-06
-1.09084e-07
-1.25384e-06
-1.4575e-07
-1.23683e-06
-1.82145e-07
-1.21512e-06
-2.17869e-07
-1.18878e-06
-2.52504e-07
-1.15788e-06
-2.85622e-07
-1.12259e-06
-3.1679e-07
-1.08309e-06
-3.45579e-07
-1.03965e-06
-3.71575e-07
-9.92585e-07
-3.94382e-07
-9.42256e-07
-4.13636e-07
-8.89085e-07
-4.29014e-07
-8.33539e-07
-4.4024e-07
-7.76129e-07
-4.47098e-07
-7.17401e-07
-4.49436e-07
-6.57928e-07
-4.47176e-07
-5.98302e-07
-4.40317e-07
-5.39124e-07
-4.28941e-07
-4.80989e-07
-4.13215e-07
-4.2448e-07
-3.93388e-07
-3.70149e-07
-3.69793e-07
-3.18512e-07
-3.42842e-07
-2.70035e-07
-3.1302e-07
-2.25119e-07
-2.80878e-07
-1.84101e-07
-2.47025e-07
-1.47235e-07
-2.12122e-07
-1.14694e-07
-1.76869e-07
-8.65606e-08
-1.42001e-07
-6.28272e-08
-1.08278e-07
-4.33913e-08
-7.64793e-08
-2.80568e-08
-4.73983e-08
-1.65346e-08
-2.18405e-08
-8.44371e-09
-6.20377e-10
-3.31319e-09
1.54387e-08
-5.84981e-10
2.55039e-08
3.83033e-10
2.8734e-08
3.12425e-10
2.42811e-08
1.12631e-08
-3.64897e-09
2.20039e-08
-1.37306e-08
6.49203e-08
-2.94495e-08
1.05813e-07
-5.00832e-08
1.44082e-07
-7.49816e-08
1.79369e-07
-1.03566e-07
2.11481e-07
-1.35325e-07
2.40354e-07
-1.6981e-07
2.66032e-07
-2.06631e-07
2.88635e-07
-2.45448e-07
3.08335e-07
-2.85967e-07
3.25336e-07
-3.27934e-07
3.39858e-07
-3.71127e-07
3.52116e-07
-4.15353e-07
3.62315e-07
-4.60439e-07
3.70639e-07
-5.06231e-07
3.77243e-07
-5.52586e-07
3.82249e-07
-5.99366e-07
3.85746e-07
-6.46439e-07
3.87789e-07
-6.93669e-07
3.88398e-07
-7.40921e-07
3.87565e-07
-7.88047e-07
3.8525e-07
-8.34896e-07
3.81394e-07
-8.81302e-07
3.75917e-07
-9.27088e-07
3.68724e-07
-9.72066e-07
3.59714e-07
-1.01603e-06
3.4878e-07
-1.05877e-06
3.35819e-07
-1.10005e-06
3.20732e-07
-1.13963e-06
3.03435e-07
-1.17727e-06
2.83858e-07
-1.21269e-06
2.61953e-07
-1.24563e-06
2.37698e-07
-1.27583e-06
2.11098e-07
-1.30299e-06
1.82193e-07
-1.32686e-06
1.51054e-07
-1.34716e-06
1.17794e-07
-1.36364e-06
8.25612e-08
-1.37604e-06
4.55479e-08
-1.38413e-06
6.98541e-09
-1.3877e-06
-3.28537e-08
-1.38657e-06
-7.36566e-08
-1.38058e-06
-1.15072e-07
-1.36962e-06
-1.56714e-07
-1.3536e-06
-1.98165e-07
-1.33249e-06
-2.38978e-07
-1.3063e-06
-2.78688e-07
-1.27511e-06
-3.16811e-07
-1.23904e-06
-3.52859e-07
-1.19828e-06
-3.86344e-07
-1.15306e-06
-4.16789e-07
-1.10371e-06
-4.43736e-07
-1.05059e-06
-4.6676e-07
-9.94123e-07
-4.85477e-07
-9.34806e-07
-4.99557e-07
-8.73174e-07
-5.0873e-07