/*--------------------------------*- C++ -*----------------------------------*\
  =========                 |
  \\      /  F ield         | OpenFOAM: The Open Source CFD Toolbox
   \\    /   O peration     | Website:  https://openfoam.org
    \\  /    A nd           | Version:  7
     \\/     M anipulation  |
\*---------------------------------------------------------------------------*/
FoamFile
{
    version     2.0;
    format      ascii;
    class       volScalarField;
    location    "2";
    object      p;
}
// * * * * * * * * * * * * * * * * * * * * * * * * * * * * * * * * * * * * * //

dimensions      [0 2 -2 0 0 0 0];

internalField   nonuniform List<scalar> 
6400
(
2.28167e-06
5.9942e-07
-6.32862e-05
-0.000185675
-0.000351452
-0.00054723
-0.000761337
-0.000983895
-0.00120682
-0.00142366
-0.00162935
-0.00181994
-0.00199243
-0.00214455
-0.0022746
-0.00238135
-0.00246394
-0.00252174
-0.00255433
-0.00256143
-0.00254285
-0.00249848
-0.00242826
-0.00233217
-0.00221024
-0.00206254
-0.00188922
-0.00169049
-0.00146665
-0.00121814
-0.00094553
-0.000649544
-0.000331096
8.69938e-06
0.000368508
0.000746759
0.00114164
0.00155107
0.00197273
0.00240404
0.00284218
0.00328411
0.00372656
0.00416611
0.00459918
0.0050221
0.00543114
0.00582255
0.00619265
0.00653784
0.00685473
0.00714011
0.00739109
0.00760514
0.00778011
0.00791433
0.00800662
0.00805636
0.0080635
0.0080286
0.00795284
0.007838
0.00768651
0.00750139
0.00728625
0.00704528
0.00678321
0.00650527
0.00621718
0.00592509
0.00563562
0.00535572
0.00509275
0.00485435
0.00464837
0.00448253
0.00436375
0.00429716
0.00428471
0.00431361
6.86873e-06
3.94827e-06
-5.26093e-05
-0.000156366
-0.00029518
-0.000459567
-0.00064058
-0.00083032
-0.00102193
-0.00120971
-0.00138901
-0.0015561
-0.00170803
-0.00184251
-0.00195775
-0.0020524
-0.00212547
-0.00217618
-0.002204
-0.00220852
-0.00218947
-0.00214665
-0.00207993
-0.00198925
-0.00187461
-0.00173604
-0.00157369
-0.00138776
-0.00117856
-0.000946512
-0.00069217
-0.000416245
-0.000119617
0.000196644
0.000531269
0.000882771
0.00124944
0.00162933
0.00202028
0.00241987
0.00282551
0.00323437
0.00364344
0.00404957
0.00444949
0.00483982
0.00521714
0.00557806
0.00591922
0.00623735
0.00652938
0.00679243
0.0070239
0.00722152
0.0073834
0.00750806
0.00759452
0.00764226
0.00765132
0.0076223
0.00755634
0.00745515
0.00732103
0.0071568
0.00696583
0.006752
0.00651966
0.00627361
0.00601905
0.00576155
0.00550702
0.00526162
0.0050317
0.00482372
0.00464406
0.00449875
0.00439268
0.00432936
0.00431332
0.00434239
7.16194e-05
6.06043e-05
3.53725e-06
-9.24369e-05
-0.000217299
-0.000363541
-0.000524108
-0.000692447
-0.000862765
-0.00103011
-0.00119035
-0.00134006
-0.00147651
-0.00159747
-0.00170122
-0.00178639
-0.00185194
-0.00189707
-0.00192116
-0.00192376
-0.00190454
-0.00186324
-0.00179969
-0.00171379
-0.0016055
-0.00147484
-0.00132193
-0.00114694
-0.000950169
-0.000732006
-0.000492981
-0.000233767
4.48024e-05
0.000341714
0.000655767
0.000985558
0.00132947
0.00168569
0.00205216
0.00242664
0.00280667
0.00318962
0.00357268
0.00395289
0.0043272
0.00469247
0.00504552
0.00538317
0.00570231
0.00599991
0.00627312
0.00651928
0.006736
0.00692118
0.00707311
0.00719045
0.00727232
0.0073183
0.00732847
0.00730342
0.0072443
0.00715273
0.00703091
0.00688152
0.00670772
0.00651315
0.00630187
0.00607833
0.00584732
0.00561396
0.00538357
0.00516171
0.00495398
0.00476599
0.00460323
0.00447078
0.00437275
0.00431237
0.00429686
0.00433043
0.000195482
0.000164911
9.85579e-05
1.59188e-06
-0.000118877
-0.000256612
-0.000405767
-0.000560914
-0.000717195
-0.000870386
-0.00101689
-0.0011537
-0.00127836
-0.00138884
-0.00148353
-0.00156116
-0.00162072
-0.00166141
-0.00168262
-0.00168389
-0.00166484
-0.00162519
-0.00156476
-0.00148339
-0.00138103
-0.00125766
-0.00111336
-0.000948284
-0.000762674
-0.00055689
-0.000331416
-8.68714e-05
0.000175967
0.000456153
0.000752562
0.00106388
0.00138858
0.00172495
0.00207107
0.0024248
0.00278385
0.00314571
0.00350773
0.00386713
0.004221
0.00456637
0.00490024
0.00521961
0.00552151
0.00580311
0.00606169
0.00629475
0.00650002
0.00667555
0.00681971
0.00693127
0.00700939
0.00705372
0.00706437
0.00704192
0.00698747
0.00690261
0.00678944
0.0066505
0.00648882
0.00630782
0.00611134
0.00590353
0.00568886
0.00547206
0.00525801
0.00505176
0.00485838
0.00468287
0.00453011
0.00440469
0.00431037
0.00425055
0.00423352
0.00426557
0.000364871
0.000305516
0.000223023
0.000119172
-2.71602e-06
-0.000137533
-0.00028044
-0.000427055
-0.00057341
-0.000715999
-0.000851797
-0.000978244
-0.00109321
-0.00119493
-0.00128198
-0.0013532
-0.00140768
-0.00144468
-0.00146362
-0.00146402
-0.00144553
-0.00140785
-0.00135076
-0.00127409
-0.00117774
-0.00106168
-0.000925934
-0.00077061
-0.000595911
-0.000402142
-0.000189729
4.07729e-05
0.000288656
0.000553053
0.000832922
0.00112704
0.00143398
0.00175214
0.0020797
0.00241467
0.00275484
0.00309787
0.00344123
0.00378227
0.00411823
0.00444628
0.00476354
0.00506715
0.00535429
0.00562222
0.00586835
0.00609028
0.00628586
0.00645319
0.00659074
0.00669731
0.00677214
0.00681488
0.00682564
0.006805
0.00675402
0.00667424
0.00656767
0.00643674
0.00628433
0.0061137
0.00592847
0.00573255
0.00553012
0.00532555
0.00512337
0.00492818
0.00474457
0.00457708
0.0044301
0.00430777
0.00421361
0.004151
0.0041278
0.00415
0.00056737
0.000473479
0.000369784
0.000254355
0.000126332
-1.01785e-05
-0.000151198
-0.000293309
-0.000433379
-0.000568595
-0.000696505
-0.000815012
-0.000922354
-0.00101706
-0.00109793
-0.00116397
-0.00121438
-0.00124853
-0.00126587
-0.00126598
-0.0012485
-0.00121314
-0.00115967
-0.00108789
-0.000997668
-0.000888934
-0.000761669
-0.000615932
-0.000451868
-0.00026972
-6.98424e-05
0.00014728
0.000381022
0.000630599
0.000895062
0.00117328
0.00146393
0.00176552
0.00207634
0.00239449
0.0027179
0.00304434
0.00337138
0.00369649
0.00401704
0.00433028
0.00463346
0.0049238
0.00519857
0.00545513
0.00569097
0.00590374
0.00609136
0.00625198
0.0063841
0.00648656
0.0065586
0.00659989
0.00661052
0.00659106
0.00654251
0.00646637
0.00636455
0.00623939
0.00609366
0.00593046
0.00575322
0.00556564
0.00537164
0.00517533
0.00498089
0.00479256
0.00461454
0.00445095
0.00430579
0.0041828
0.00408527
0.0040164
0.00398258
0.00398833
0.000791966
0.000660198
0.000531883
0.000401278
0.000263335
0.000121321
-2.15142e-05
-0.000162623
-0.000299649
-0.000430434
-0.000553083
-0.000665967
-0.000767707
-0.000857147
-0.000933328
-0.000995462
-0.0010429
-0.0010751
-0.00109162
-0.00109207
-0.00107613
-0.00104351
-0.00099397
-0.000927299
-0.000843335
-0.000741959
-0.000623105
-0.000486776
-0.00033305
-0.000162098
2.58007e-05
0.000230245
0.000450696
0.000686464
0.000936691
0.00120035
0.00147622
0.0017629
0.0020588
0.00236212
0.00267089
0.00298297
0.00329605
0.00360767
0.00391529
0.00421625
0.00450786
0.00478742
0.00505226
0.00529977
0.00552748
0.0057331
0.00591454
0.00606999
0.00619795
0.00629725
0.00636714
0.00640725
0.00641765
0.00639887
0.00635189
0.00627811
0.00617939
0.00605799
0.00591654
0.00575804
0.00558576
0.00540321
0.00521412
0.00502235
0.0048318
0.00464642
0.00447007
0.00430654
0.00415947
0.00403227
0.00392802
0.00384967
0.00380157
0.00378623
0.00102895
0.000857651
0.000702504
0.000554141
0.000403442
0.000252977
0.000105382
-3.75794e-05
-0.000174263
-0.000303126
-0.000422806
-0.000532133
-0.000630115
-0.000715918
-0.000788847
-0.000848327
-0.000893873
-0.000925077
-0.000941579
-0.00094306
-0.000929231
-0.000899824
-0.000854593
-0.000793315
-0.000715792
-0.000621863
-0.000511408
-0.000384364
-0.000240739
-8.06255e-05
9.57825e-05
0.000288174
0.000496104
0.00071898
0.000956046
0.00120637
0.00146885
0.00174217
0.00202484
0.00231516
0.00261126
0.00291108
0.00321238
0.00351279
0.00380981
0.00410086
0.00438329
0.00465442
0.00491162
0.00515229
0.00537399
0.00557439
0.00575142
0.00590325
0.00602834
0.00612551
0.00619397
0.0062333
0.00624354
0.00622518
0.00617911
0.0061067
0.00600972
0.00589036
0.00575117
0.00559501
0.00542504
0.00524463
0.00505732
0.00486678
0.0046767
0.00449078
0.00431263
0.00414574
0.00399343
0.00385882
0.00374481
0.00365419
0.00358893
0.00354937
0.00126989
0.00105847
0.000875208
0.000707335
0.000541833
0.0003807
0.000226056
7.89579e-05
-5.96011e-05
-0.00018865
-0.000307332
-0.000414922
-0.000510808
-0.00059448
-0.00066551
-0.000723544
-0.000768275
-0.000799428
-0.000816747
-0.000819983
-0.000808892
-0.000783226
-0.000742741
-0.000687197
-0.000616364
-0.000530032
-0.000428025
-0.000310211
-0.00017652
-2.69582e-05
0.000138371
0.000319253
0.000515343
0.000726151
0.000951027
0.00118914
0.00143949
0.00170087
0.00197187
0.0022509
0.00253615
0.00282565
0.00311721
0.00340854
0.00369717
0.00398054
0.00425604
0.004521
0.00477277
0.00500876
0.00522648
0.0054236
0.00559799
0.00574777
0.00587136
0.00596752
0.00603539
0.00607451
0.00608485
0.00606682
0.00602128
0.00594951
0.00585321
0.00573451
0.00559585
0.00544003
0.00527009
0.00508929
0.00490103
0.00470882
0.00451618
0.00432662
0.00414355
0.00397024
0.00380974
0.00366492
0.00353855
0.00343324
0.00334863
0.00328284
0.00150746
0.00125599
0.001044
0.000855504
0.000673777
0.000500347
0.000336903
0.000183865
4.16296e-05
-8.93636e-05
-0.000208736
-0.000316184
-0.000411466
-0.000494388
-0.000564792
-0.000622542
-0.000667511
-0.000699565
-0.000718554
-0.000724304
-0.000716616
-0.000695269
-0.000660018
-0.000610607
-0.00054677
-0.000468249
-0.000374805
-0.000266231
-0.000142375
-3.1517e-06
0.000151433
0.000321268
0.000506113
0.000705587
0.000919144
0.00114607
0.00138545
0.00163619
0.00189697
0.00216628
0.00244239
0.00272339
0.00300715
0.00329141
0.00357373
0.00385158
0.00412232
0.00438329
0.0046318
0.00486521
0.00508101
0.00527677
0.00545032
0.0055997
0.00572325
0.00581964
0.00588793
0.00592757
0.00593846
0.00592094
0.00587577
0.00580418
0.00570779
0.00558864
0.00544913
0.00529196
0.0051201
0.00493671
0.0047451
0.00454866
0.00435078
0.00415483
0.00396406
0.00378158
0.00361026
0.00345275
0.00331175
0.00318977
0.00308417
0.00299089
0.00173521
0.00144418
0.00120331
0.000993558
0.000794673
0.000607797
0.00043425
0.000273876
0.000126521
-7.86649e-06
-0.000129358
-0.000238051
-0.000334059
-0.000417493
-0.000488457
-0.000547031
-0.000593266
-0.000627167
-0.000648691
-0.000657738
-0.000654159
-0.000637753
-0.000608277
-0.000565454
-0.000508983
-0.000438552
-0.000353853
-0.000254604
-0.00014056
-1.15406e-05
0.000132552
0.000291713
0.000465815
0.000654588
0.000857599
0.00107424
0.00130371
0.001545
0.00179688
0.00205794
0.0023265
0.00260071
0.00287849
0.0031576
0.00343562
0.00371
0.0039781
0.00423721
0.00448459
0.00471755
0.00493347
0.00512987
0.00530445
0.00545517
0.00558024
0.00567825
0.00574813
0.00578924
0.00580135
0.00578473
0.00574004
0.00566843
0.00557145
0.00545107
0.00530961
0.00514972
0.00497429
0.00478644
0.00458939
0.00438646
0.00418097
0.00397617
0.00377522
0.00358113
0.00339664
0.00322424
0.00306665
0.00292634
0.00279846
0.00267694
0.00194734
0.00161752
0.00134794
0.00111666
0.000900075
0.000698986
0.000514401
0.000345635
0.000192027
5.30628e-05
-7.17483e-05
-0.000182885
-0.000280798
-0.000365891
-0.000438517
-0.000498968
-0.000547465
-0.000584149
-0.000609079
-0.00062223
-0.000623496
-0.000612698
-0.00058959
-0.000553871
-0.0005052
-0.000443207
-0.000367513
-0.000277749
-0.000173579
-5.47186e-05
7.90392e-05
0.000227803
0.000391563
0.000570163
0.000763288
0.000970441
0.00119093
0.00142384
0.00166804
0.00192219
0.00218468
0.0024537
0.00272722
0.00300301
0.00327865
0.00355157
0.00381909
0.00407844
0.00432683
0.00456145
0.00477961
0.00497868
0.00515627
0.00531018
0.0054385
0.00553968
0.00561251
0.00565623
0.00567048
0.0056554
0.00561157
0.00554003
0.00544225
0.00532013
0.00517593
0.00501223
0.0048319
0.004638
0.00443372
0.00422233
0.00400712
0.0037913
0.00357796
0.00337007
0.00317029
0.00298105
0.00280514
0.00264506
0.00249389
0.00234361
0.00213862
0.0017709
0.00147302
0.00122023
0.000985689
0.000769927
0.000573668
0.000395737
0.000234997
9.05043e-05
-3.86289e-05
-0.000153241
-0.000254102
-0.000341893
-0.000417205
-0.000480531
-0.000532253
-0.000572644
-0.000601859
-0.00061994
-0.000626823
-0.000622343
-0.000606248
-0.00057821
-0.000537842
-0.00048471
-0.000418359
-0.00033833
-0.000244186
-0.000135537
-1.20577e-05
0.000126479
0.000280182
0.000449023
0.000632803
0.000831144
0.00104346
0.00126894
0.00150655
0.00175502
0.0020128
0.00227813
0.00254902
0.00282323
0.00309834
0.00337175
0.00364072
0.00390242
0.00415394
0.0043924
0.00461495
0.00481884
0.00500151
0.0051606
0.00529406
0.00540016
0.00547752
0.00552522
0.00554277
0.00553015
0.00548782
0.00541672
0.00531823
0.00519416
0.00504671
0.00487843
0.00469215
0.0044909
0.00427787
0.00405632
0.00382954
0.00360075
0.00337304
0.00314937
0.0029324
0.00272455
0.00252876
0.00234764
0.00217228
0.00199283
0.00230417
0.0018996
0.00157398
0.00129988
0.00104737
0.00081672
0.000608391
0.00042075
0.000252214
0.000101434
-3.28538e-05
-0.000151828
-0.000256559
-0.000347992
-0.000426943
-0.000494091
-0.000549975
-0.000594986
-0.000629369
-0.000653227
-0.000666529
-0.000669123
-0.000660743
-0.000641028
-0.000609537
-0.00056577
-0.000509188
-0.000439237
-0.000355375
-0.000257094
-0.000143951
-1.55918e-05
0.000128223
0.000287588
0.000462437
0.000652507
0.00085733
0.0010762
0.00130818
0.00155206
0.00180639
0.00206943
0.0023392
0.0026135
0.00288987
0.00316567
0.00343811
0.00370424
0.00396108
0.00420558
0.00443476
0.00464571
0.00483568
0.00500213
0.0051428
0.00525576
0.00533947
0.00539279
0.00541506
0.0054061
0.00536622
0.00529623
0.00519741
0.00507148
0.00492059
0.00474724
0.00455423
0.00434461
0.00412157
0.00388841
0.00364844
0.00340494
0.00316106
0.00291982
0.00268392
0.00245584
0.00223872
0.00203538
0.00183499
0.00162593
0.00243948
0.00199915
0.00164649
0.00135146
0.00108114
0.000835561
0.000614955
0.000417246
0.000240427
8.27597e-05
-5.73731e-05
-0.000181472
-0.000290893
-0.00038683
-0.000470308
-0.000542185
-0.000603141
-0.000653677
-0.000694119
-0.000724623
-0.000745187
-0.000755658
-0.000755752
-0.000745068
-0.000723109
-0.000689297
-0.000643007
-0.000583581
-0.000510365
-0.000422729
-0.000320103
-0.000201999
-6.80441e-05
8.19945e-05
0.00024818
0.00043038
0.000628246
0.000841187
0.00106835
0.00130863
0.00156062
0.00182264
0.00209274
0.0023687
0.00264806
0.00292812
0.003206
0.00347868
0.00374303
0.00399587
0.00423402
0.00445439
0.00465403
0.00483018
0.00498035
0.00510238
0.00519449
0.00525534
0.00528406
0.00528025
0.00524408
0.00517619
0.00507775
0.00495037
0.00479615
0.00461753
0.00441732
0.00419856
0.00396451
0.0037185
0.00346395
0.0032042
0.00294253
0.00268206
0.00242561
0.00217577
0.00193594
0.00170923
0.00148294
0.00124372
0.00254029
0.00206536
0.00168643
0.00137096
0.00108313
0.000822746
0.000589809
0.000381822
0.000196372
3.13499e-05
-0.0001152
-0.000245085
-0.000359929
-0.000461161
-0.000550006
-0.000627481
-0.0006944
-0.000751364
-0.00079877
-0.000836817
-0.00086552
-0.000884724
-0.000894116
-0.000893248
-0.000881558
-0.000858388
-0.000823015
-0.000774674
-0.00071259
-0.000636006
-0.000544215
-0.000436588
-0.00031261
-0.000171905
-1.42694e-05
0.000160303
0.000351589
0.000559117
0.000782145
0.00101964
0.00127029
0.00153245
0.0018042
0.00208332
0.00236733
0.00265346
0.00293878
0.00322012
0.00349423
0.00375775
0.00400732
0.00423963
0.00445149
0.00463988
0.00480207
0.00493562
0.00503849
0.00510908
0.00514628
0.00514947
0.0051186
0.00505414
0.0049571
0.00482902
0.00467188
0.00448811
0.0042805
0.00405212
0.0038063
0.00354645
0.00327611
0.00299876
0.00271782
0.00243659
0.00215806
0.00188498
0.00162109
0.00136983
0.00111669
0.000846594
0.00260253
0.00209422
0.0016899
0.00135456
0.00104963
0.000774676
0.000529473
0.000311118
0.000116802
-5.59374e-05
-0.000209382
-0.000345629
-0.000466561
-0.000573826
-0.000668832
-0.000752752
-0.000826515
-0.000890813
-0.000946104
-0.000992621
-0.00103039
-0.00105924
-0.00107882
-0.00108863
-0.00108804
-0.0010763
-0.00105259
-0.00101601
-0.000965683
-0.000900699
-0.00082021
-0.000723441
-0.000609723
-0.000478527
-0.000329499
-0.000162488
2.24222e-05
0.000224889
0.000444283
0.000679675
0.000929818
0.00119314
0.00146775
0.00175144
0.00204167
0.00233566
0.00263036
0.0029225
0.00320866
0.00348531
0.00374886
0.00399577
0.00422257
0.00442598
0.00460296
0.00475076
0.00486706
0.00494994
0.004998
0.00501037
0.00498675
0.00492741
0.00483319
0.00470549
0.0045462
0.00435771
0.0041428
0.0039046
0.0036465
0.00337204
0.0030849
0.00278875
0.00248721
0.00218379
0.0018817
0.00158394
0.00129463
0.00101759
0.000736509
0.000434583
0.00262234
0.00208193
0.00165313
0.0012986
0.000977063
0.000687864
0.000430554
0.000201831
-1.49506e-06
-0.000182231
-0.000342972
-0.000486095
-0.000613724
-0.000727715
-0.000829652
-0.000920843
-0.00100233
-0.00107488
-0.001139
-0.00119495
-0.00124276
-0.00128223
-0.00131297
-0.00133442
-0.00134586
-0.00134645
-0.00133525
-0.00131127
-0.00127345
-0.00122077
-0.00115222
-0.00106686
-0.000963864
-0.000842538
-0.000702368
-0.000543043
-0.000364497
-0.000166933
4.9149e-05
0.000282928
0.000533249
0.000798609
0.00107715
0.00136668
0.00166466
0.00196822
0.00227423
0.00257931
0.00287986
0.00317215
0.00345237
0.0037167
0.00396138
0.00418281
0.00437762
0.00454272
0.00467543
0.00477349
0.00483518
0.00485931
0.0048453
0.00479317
0.00470355
0.00457769
0.00441739
0.00422495
0.00400318
0.00375523
0.0034846
0.00319499
0.00289024
0.00257424
0.00225088
0.00192392
0.00159686
0.00127296
0.000956811
0.000652675
0.000342416
7.46219e-06
0.00259603
0.00202485
0.00157256
0.00119956
0.000861982
0.000558937
0.000289753
5.07371e-05
-0.000161675
-0.000350623
-0.000519006
-0.000669468
-0.000804365
-0.000925749
-0.00103536
-0.00113465
-0.00122474
-0.00130648
-0.00138041
-0.0014468
-0.00150568
-0.00155681
-0.00159976
-0.00163389
-0.0016584
-0.00167234
-0.00167467
-0.00166423
-0.00163986
-0.00160035
-0.00154455
-0.00147134
-0.00137973
-0.00126884
-0.00113798
-0.000986682
-0.000814702
-0.000622091
-0.000409207
-0.000176744
7.42466e-05
0.000342344
0.000625747
0.000922277
0.00122938
0.00154416
0.00186339
0.00218353
0.00250085
0.00281138
0.00311107
0.0033958
0.00366151
0.00390422
0.00412019
0.00430595
0.00445842
0.00457495
0.00465344
0.00469232
0.0046907
0.0046483
0.00456551
0.00444338
0.00428357
0.00408835
0.00386047
0.00360317
0.00332004
0.00301496
0.00269198
0.00235526
0.00200896
0.00165719
0.00130375
0.00095226
0.0006078
0.000275139
-6.57297e-05
-0.000435196
0.00252005
0.00191949
0.00144476
0.00105407
0.00070108
0.00038465
0.000103883
-0.000145296
-0.000366817
-0.000564147
-0.000740475
-0.000898705
-0.00104141
-0.00117084
-0.00128888
-0.00139708
-0.00149668
-0.00158856
-0.00167331
-0.0017512
-0.00182223
-0.00188615
-0.00194245
-0.00199041
-0.00202915
-0.0020576
-0.00207458
-0.00207882
-0.00206898
-0.0020437
-0.00200165
-0.00194155
-0.00186219
-0.00176252
-0.00164167
-0.00149896
-0.00133399
-0.00114662
-0.000937046
-0.000705826
-0.000453886
-0.000182546
0.000106462
0.000410996
0.000728506
0.00105605
0.00139031
0.00172765
0.00206412
0.00239556
0.00271764
0.00302593
0.003316
0.00358351
0.00382428
0.00403441
0.00421037
0.00434907
0.00444795
0.00450505
0.00451907
0.00448938
0.0044161
0.00430004
0.0041427
0.00394624
0.00371341
0.00344748
0.00315218
0.00283157
0.00248996
0.00213178
0.00176156
0.00138376
0.00100257
0.000621985
0.000247661
-0.000115081
-0.000488191
-0.000893953
0.00239101
0.00176254
0.00126648
0.00085894
0.000491202
0.000161893
-0.000130119
-0.000389291
-0.000619907
-0.000825753
-0.0010103
-0.00117671
-0.00132776
-0.00146586
-0.00159306
-0.00171102
-0.00182104
-0.00192406
-0.00202068
-0.00211119
-0.00219554
-0.00227344
-0.00234432
-0.00240738
-0.00246162
-0.00250587
-0.0025388
-0.002559
-0.00256497
-0.00255518
-0.0025281
-0.00248226
-0.00241626
-0.00232885
-0.00221894
-0.00208565
-0.00192838
-0.00174679
-0.0015409
-0.00131111
-0.00105817
-0.000783314
-0.000488162
-0.000174806
0.000154224
0.000495958
0.000847009
0.00120361
0.00156164
0.0019167
0.00226419
0.00259934
0.00291734
0.00321341
0.00348292
0.00372149
0.00392508
0.00409008
0.00421343
0.0042927
0.00432611
0.00431266
0.00425209
0.00414494
0.0039925
0.00379681
0.00356058
0.00328714
0.00298032
0.0026444
0.00228396
0.00190378
0.00150876
0.00110378
0.000693472
0.000282259
-0.000123574
-0.000518094
-0.00092529
-0.00136944
0.0022057
0.00155086
0.00103462
0.000611112
0.000229347
-0.000112294
-0.000415182
-0.000684142
-0.000923813
-0.00113829
-0.00133132
-0.00150629
-0.0016662
-0.00181364
-0.00195075
-0.00207932
-0.0022007
-0.00231589
-0.00242549
-0.00252978
-0.00262869
-0.00272186
-0.00280865
-0.00288818
-0.00295933
-0.00302081
-0.00307115
-0.00310878
-0.00313202
-0.00313917
-0.0031285
-0.00309833
-0.00304705
-0.00297319
-0.00287542
-0.00275266
-0.00260406
-0.00242909
-0.00222755
-0.00199963
-0.00174594
-0.00146754
-0.00116594
-0.000843161
-0.000501686
-0.000144493
0.000224975
0.000602832
0.000984792
0.00136622
0.00174222
0.00210767
0.00245735
0.00278602
0.00308855
0.00335999
0.00359576
0.00379166
0.00394407
0.00404998
0.00410711
0.00411396
0.00406986
0.00397501
0.00383044
0.00363803
0.00340043
0.00312098
0.00280367
0.00245297
0.00207377
0.00167122
0.00125066
0.000817427
0.000376639
-6.67827e-05
-0.000505863
-0.000934008
-0.00137736
-0.00186232
0.00196106
0.00128146
0.000746264
0.000307718
-8.73182e-05
-0.000440713
-0.000754077
-0.0010326
-0.00128127
-0.00150447
-0.00170623
-0.00189017
-0.00205947
-0.00221687
-0.00236467
-0.00250472
-0.00263845
-0.00276687
-0.00289061
-0.00300991
-0.00312468
-0.0032345
-0.00333865
-0.00343614
-0.00352575
-0.00360604
-0.00367541
-0.00373211
-0.0037743
-0.00380006
-0.00380747
-0.00379463
-0.00375969
-0.00370094
-0.00361682
-0.00350598
-0.00336735
-0.00320013
-0.0030039
-0.00277863
-0.00252473
-0.00224306
-0.001935
-0.00160245
-0.00124783
-0.0008741
-0.000484744
-8.3741e-05
0.000324459
0.000734995
0.00114266
0.00154196
0.00192726
0.0022928
0.00263291
0.00294206
0.00321499
0.00344688
0.00363346
0.00377106
0.00385681
0.00388864
0.0038654
0.00378684
0.00365371
0.00346765
0.00323121
0.00294774
0.00262135
0.00225675
0.00185914
0.00143409
0.00098738
0.000524905
5.23045e-05
-0.000424947
-0.000899116
-0.00136288
-0.00184469
-0.0023732
0.00165422
0.000951557
0.000398688
-5.39275e-05
-0.000461446
-0.000825989
-0.00114941
-0.00143726
-0.00169485
-0.00192687
-0.00213761
-0.0023309
-0.00251013
-0.00267817
-0.00283744
-0.00298987
-0.00313695
-0.00327971
-0.00341879
-0.00355441
-0.00368644
-0.00381437
-0.00393741
-0.00405448
-0.00416423
-0.00426508
-0.00435527
-0.00443288
-0.00449589
-0.00454216
-0.00456957
-0.00457596
-0.00455925
-0.00451748
-0.00444881
-0.00435163
-0.00422458
-0.0040666
-0.003877
-0.00365549
-0.00340224
-0.0031179
-0.00280368
-0.00246131
-0.00209312
-0.00170203
-0.00129151
-0.000865637
-0.000428993
1.33327e-05
0.000455828
0.000892632
0.00131763
0.00172456
0.00210712
0.00245914
0.00277467
0.00304816
0.00327457
0.00344953
0.00356945
0.0036316
0.00363425
0.00357666
0.00345917
0.00328314
0.00305097
0.002766
0.00243243
0.0020552
0.00163985
0.00119238
0.000719117
0.000226507
-0.000279208
-0.000791946
-0.00130314
-0.00180468
-0.00232747
-0.00290261
0.00128252
0.00055857
-1.06403e-05
-0.000476315
-0.000895495
-0.00127056
-0.0016036
-0.00190052
-0.00216696
-0.0024079
-0.00262786
-0.00283091
-0.0030206
-0.00319995
-0.00337149
-0.00353723
-0.00369871
-0.00385698
-0.00401266
-0.00416597
-0.0043167
-0.0044643
-0.00460789
-0.00474627
-0.00487797
-0.00500126
-0.00511424
-0.0052148
-0.0053007
-0.00536962
-0.00541918
-0.00544699
-0.00545071
-0.00542808
-0.00537699
-0.00529552
-0.00518202
-0.00503512
-0.00485383
-0.00463757
-0.00438622
-0.0041002
-0.00378047
-0.00342858
-0.00304672
-0.00263772
-0.00220503
-0.00175276
-0.00128563
-0.000808927
-0.000328462
0.000149518
0.000618423
0.00107143
0.0015016
0.00190203
0.00226603
0.00258721
0.00285971
0.00307832
0.00323863
0.00333716
0.00337148
0.00334025
0.00324331
0.00308169
0.00285755
0.00257418
0.00223584
0.0018477
0.00141565
0.000946175
0.000446138
-7.73692e-05
-0.000617452
-0.00116736
-0.0017176
-0.00225921
-0.00282575
-0.00345091
0.000843491
0.000100122
-0.000484037
-0.000961723
-0.00139172
-0.00177665
-0.00211886
-0.0024246
-0.00269981
-0.00294975
-0.00317919
-0.0033924
-0.0035931
-0.00378447
-0.00396911
-0.00414911
-0.00432606
-0.00450103
-0.00467463
-0.00484704
-0.00501802
-0.00518693
-0.00535281
-0.00551435
-0.00566994
-0.00581773
-0.00595562
-0.00608133
-0.00619242
-0.00628635
-0.00636047
-0.00641216
-0.00643878
-0.00643777
-0.00640672
-0.00634339
-0.00624577
-0.00611218
-0.00594127
-0.00573215
-0.00548438
-0.00519805
-0.00487387
-0.00451315
-0.00411789
-0.00369078
-0.00323521
-0.00275531
-0.00225586
-0.00174236
-0.00122088
-0.000698061
-0.000180981
0.000322948
0.000806111
0.00126084
0.00167958
0.00205506
0.00238049
0.00264969
0.00285734
0.00299906
0.00307161
0.00307293
0.00300227
0.00286018
0.00264855
0.00237053
0.00203043
0.00163361
0.00118635
0.000695589
0.000168818
-0.000386189
-0.000961818
-0.00155057
-0.00214198
-0.0027261
-0.00333936
-0.00401829
0.000334917
-0.000425928
-0.00102359
-0.0015122
-0.00195214
-0.00234627
-0.0026972
-0.00301149
-0.00329538
-0.00355442
-0.0037936
-0.00401738
-0.00422966
-0.00443373
-0.00463231
-0.00482756
-0.00502108
-0.00521398
-0.00540685
-0.00559985
-0.00579267
-0.00598461
-0.00617462
-0.00636127
-0.00654283
-0.00671728
-0.00688238
-0.00703564
-0.00717442
-0.00729592
-0.00739728
-0.00747556
-0.00752785
-0.00755127
-0.00754306
-0.00750063
-0.00742162
-0.00730396
-0.00714594
-0.00694628
-0.00670417
-0.00641937
-0.00609224
-0.00572382
-0.00531586
-0.00487085
-0.00439208
-0.00388362
-0.00335032
-0.00279782
-0.00223245
-0.00166122
-0.00109169
-0.000531895
9.84081e-06
0.000525025
0.00100519
0.00144207
0.00182784
0.00215525
0.00241792
0.00261044
0.00272861
0.00276953
0.0027317
0.00261512
0.00242128
0.00215312
0.00181493
0.00141227
0.000951748
0.000440836
-0.000112336
-0.000699247
-0.00131149
-0.00194077
-0.00257549
-0.0032047
-0.00386791
-0.00460466
-0.000245171
-0.00102147
-0.00163114
-0.00212957
-0.00257855
-0.00298121
-0.00334038
-0.00366294
-0.00395544
-0.00422366
-0.00447283
-0.00470761
-0.00493203
-0.00514952
-0.00536289
-0.00557436
-0.00578559
-0.00599767
-0.0062112
-0.0064263
-0.00664261
-0.00685937
-0.00707542
-0.00728922
-0.00749893
-0.00770237
-0.00789711
-0.00808048
-0.00824963
-0.00840151
-0.00853299
-0.00864085
-0.00872186
-0.00877281
-0.00879058
-0.00877219
-0.0087149
-0.00861621
-0.00847401
-0.00828658
-0.00805271
-0.00777174
-0.00744366
-0.00706915
-0.00664965
-0.00618742
-0.00568556
-0.00514804
-0.00457971
-0.00398631
-0.00337441
-0.00275136
-0.0021252
-0.00150458
-0.000898562
-0.000316524
0.000232084
0.000737926
0.00119201
0.00158591
0.00191203
0.00216379
0.00233587
0.00242434
0.00242685
0.00234267
0.00217278
0.0019198
0.00158796
0.00118295
0.000711702
0.00018223
-0.000396655
-0.00101563
-0.00166543
-0.00233684
-0.0030171
-0.00369409
-0.00441066
-0.00520963
-0.000898472
-0.00168814
-0.00230827
-0.00281537
-0.00327248
-0.00368297
-0.00404991
-0.00438047
-0.00468149
-0.00495898
-0.00521839
-0.00546457
-0.0057017
-0.00593332
-0.00616233
-0.00639102
-0.00662107
-0.0068536
-0.0070892
-0.00732794
-0.00756943
-0.00781284
-0.0080569
-0.00829999
-0.00854011
-0.00877495
-0.0090019
-0.00921811
-0.00942047
-0.00960572
-0.00977044
-0.00991111
-0.0100242
-0.0101061
-0.0101533
-0.0101624
-0.0101304
-0.0100541
-0.00993107
-0.00975911
-0.00953653
-0.00926221
-0.00893568
-0.00855722
-0.0081279
-0.00764964
-0.0071253
-0.00655869
-0.0059546
-0.00531881
-0.00465807
-0.00398004
-0.00329322
-0.00260688
-0.00193084
-0.00127539
-0.000651033
-6.82697e-05
0.000462644
0.000931963
0.00133072
0.001651
0.00188618
0.00203114
0.00208246
0.00203857
0.00189975
0.00166822
0.00134802
0.000944891
0.000466111
-7.97928e-05
-0.000683286
-0.00133418
-0.00202227
-0.00273738
-0.00346539
-0.00419296
-0.00496653
-0.00583241
-0.00162639
-0.00242727
-0.00305629
-0.0035709
-0.0040352
-0.00445281
-0.00482703
-0.00516531
-0.00547474
-0.00576158
-0.00603149
-0.00628946
-0.00653984
-0.00678629
-0.00703178
-0.00727867
-0.00752866
-0.00778291
-0.00804198
-0.00830592
-0.0085743
-0.0088462
-0.00912029
-0.00939484
-0.00966771
-0.00993645
-0.0101983
-0.0104502
-0.0106887
-0.0109105
-0.0111118
-0.0112887
-0.0114374
-0.011554
-0.0116344
-0.0116749
-0.0116719
-0.011622
-0.0115219
-0.0113692
-0.0111614
-0.0108971
-0.0105752
-0.0101955
-0.00975857
-0.00926606
-0.00872043
-0.00812526
-0.0074852
-0.006806
-0.00609453
-0.00535872
-0.0046075
-0.00385071
-0.00309896
-0.00236348
-0.00165587
-0.00098789
-0.000371161
0.000183104
0.000664421
0.00106334
0.00137175
0.00158314
0.00169284
0.00169818
0.00159862
0.0013958
0.00109345
0.000697321
0.000214935
-0.00034465
-0.000971152
-0.00165346
-0.00238036
-0.00314058
-0.00391857
-0.00469959
-0.00553398
-0.00647179
-0.00243002
-0.00323992
-0.00387622
-0.00439715
-0.0048677
-0.00529171
-0.00567271
-0.00601841
-0.00633615
-0.0066324
-0.00691302
-0.00718317
-0.00744733
-0.00770926
-0.00797205
-0.00823808
-0.00850911
-0.00878631
-0.00907023
-0.00936091
-0.00965787
-0.00996013
-0.0102663
-0.0105745
-0.0108825
-0.0111877
-0.0114871
-0.0117776
-0.0120555
-0.0123171
-0.0125584
-0.0127753
-0.0129634
-0.0131185
-0.0132362
-0.0133123
-0.0133426
-0.0133232
-0.0132504
-0.013121
-0.0129322
-0.0126817
-0.012368
-0.0119903
-0.0115488
-0.0110444
-0.0104793
-0.00985671
-0.00918107
-0.00845803
-0.00769448
-0.00689855
-0.00607955
-0.00524788
-0.00441493
-0.00359284
-0.00279439
-0.00203265
-0.00132073
-0.000671437
-9.695e-05
0.000391564
0.000784287
0.00107309
0.0012518
0.00131646
0.00126549
0.00109975
0.000822526
0.00043944
-4.17816e-05
-0.000611585
-0.00125892
-0.00197171
-0.00273763
-0.00354422
-0.00437435
-0.00521177
-0.00611096
-0.00712603
-0.00331014
-0.00412683
-0.00476877
-0.00529482
-0.00577067
-0.00620036
-0.00658763
-0.00694043
-0.00726635
-0.00757205
-0.00786357
-0.00814623
-0.00842465
-0.0087027
-0.00898353
-0.0092696
-0.00956272
-0.00986405
-0.0101742
-0.0104931
-0.0108203
-0.0111547
-0.0114949
-0.0118389
-0.0121845
-0.0125287
-0.0128686
-0.0132006
-0.0135211
-0.0138259
-0.0141108
-0.0143714
-0.0146029
-0.0148008
-0.0149601
-0.0150762
-0.0151443
-0.0151601
-0.0151192
-0.0150177
-0.0148523
-0.0146201
-0.0143188
-0.0139471
-0.0135044
-0.0129912
-0.0124091
-0.011761