/*--------------------------------*- C++ -*----------------------------------*\
  =========                 |
  \\      /  F ield         | OpenFOAM: The Open Source CFD Toolbox
   \\    /   O peration     | Website:  https://openfoam.org
    \\  /    A nd           | Version:  7
     \\/     M anipulation  |
\*---------------------------------------------------------------------------*/
FoamFile
{
    version     2.0;
    format      ascii;
    class       surfaceScalarField;
    location    "2";
    object      phi;
}
// * * * * * * * * * * * * * * * * * * * * * * * * * * * * * * * * * * * * * //

dimensions      [0 3 -1 0 0 0 0];

internalField   nonuniform List<scalar> 
12640
(
2.2017e-10
-2.30716e-10
6.19862e-10
-3.99649e-10
9.42689e-10
-3.2288e-10
1.0555e-09
-1.12809e-10
8.98676e-10
1.56843e-10
4.52638e-10
4.46044e-10
-2.79607e-10
7.32246e-10
-1.28297e-09
1.00337e-09
-2.53595e-09
1.25299e-09
-4.01397e-09
1.47803e-09
-5.69146e-09
1.6775e-09
-7.54308e-09
1.85161e-09
-9.54437e-09
2.0013e-09
-1.16722e-08
2.12785e-09
-1.3905e-08
2.23277e-09
-1.62226e-08
2.31759e-09
-1.86064e-08
2.3838e-09
-2.10391e-08
2.43275e-09
-2.35048e-08
2.46566e-09
-2.59884e-08
2.48356e-09
-2.84756e-08
2.48728e-09
-3.09531e-08
2.47748e-09
-3.34077e-08
2.45463e-09
-3.58268e-08
2.41904e-09
-3.81977e-08
2.37088e-09
-4.05079e-08
2.31022e-09
-4.27449e-08
2.23702e-09
-4.48961e-08
2.1512e-09
-4.69487e-08
2.05264e-09
-4.889e-08
1.94123e-09
-5.07068e-08
1.81688e-09
-5.23864e-08
1.67958e-09
-5.39158e-08
1.52938e-09
-5.52822e-08
1.36646e-09
-5.64734e-08
1.19115e-09
-5.74773e-08
1.0039e-09
-5.82827e-08
8.05374e-10
-5.88791e-08
5.96391e-10
-5.9257e-08
3.77986e-10
-5.94084e-08
1.51391e-10
-5.93265e-08
-8.19507e-11
-5.90061e-08
-3.20396e-10
-5.84439e-08
-5.62103e-10
-5.76389e-08
-8.05047e-10
-5.65918e-08
-1.04704e-09
-5.53061e-08
-1.28575e-09
-5.37874e-08
-1.51872e-09
-5.2044e-08
-1.74342e-09
-5.00867e-08
-1.95728e-09
-4.7929e-08
-2.15769e-09
-4.55869e-08
-2.34212e-09
-4.30788e-08
-2.50809e-09
-4.04255e-08
-2.65325e-09
-3.76501e-08
-2.77544e-09
-3.47773e-08
-2.8727e-09
-3.1834e-08
-2.94334e-09
-2.8848e-08
-2.98597e-09
-2.58485e-08
-2.99953e-09
-2.28652e-08
-2.98333e-09
-1.99281e-08
-2.93706e-09
-1.70673e-08
-2.86083e-09
-1.43121e-08
-2.75518e-09
-1.1691e-08
-2.62103e-09
-9.23126e-09
-2.45977e-09
-6.95809e-09
-2.27316e-09
-4.89466e-09
-2.06343e-09
-3.06147e-09
-1.83318e-09
-1.476e-09
-1.58547e-09
-1.52196e-10
-1.3238e-09
9.00029e-10
-1.05222e-09
1.6754e-09
-7.75363e-10
2.1742e-09
-4.98785e-10
2.40348e-09
-2.29263e-10
2.37886e-09
2.46365e-11
2.12757e-09
2.51311e-10
1.69283e-09
4.34759e-10
1.14073e-09
5.52093e-10
5.71122e-10
5.69571e-10
1.33568e-10
4.37541e-10
1.33608e-10
3.96487e-10
-6.27172e-10
9.11214e-10
-9.14469e-10
1.15055e-09
-5.62213e-10
8.75705e-10
1.62061e-10
-4.75941e-11
1.08015e-09
-1.67831e-09
2.07677e-09
-4.02581e-09
3.07976e-09
-7.06687e-09
4.04445e-09
-1.07586e-08
4.9447e-09
-1.50466e-08
5.76609e-09
-1.98709e-08
6.50178e-09
-2.51691e-08
7.14983e-09
-3.08792e-08
7.71137e-09
-3.69408e-08
8.18943e-09
-4.32961e-08
8.58812e-09
-4.98905e-08
8.91198e-09
-5.66724e-08
9.16564e-09
-6.35931e-08
9.35351e-09
-7.06071e-08
9.4796e-09
-7.76709e-08
9.54739e-09
-8.47434e-08
9.5598e-09
-9.17851e-08
9.51913e-09
-9.87576e-08
9.42714e-09
-1.05624e-07
9.28504e-09
-1.12346e-07
9.09359e-09
-1.18889e-07
8.85318e-09
-1.25216e-07
8.5639e-09
-1.31291e-07
8.22565e-09
-1.37076e-07
7.83828e-09
-1.42537e-07
7.40164e-09
-1.47635e-07
6.91571e-09
-1.52337e-07
6.38072e-09
-1.56604e-07
5.7972e-09
-1.60404e-07
5.16614e-09
-1.63702e-07
4.48898e-09
-1.66466e-07
3.76778e-09
-1.68666e-07
3.0052e-09
-1.70274e-07
2.20458e-09
-1.71266e-07
1.36998e-09
-1.71621e-07
5.06192e-10
-1.71321e-07
-3.81254e-10
-1.70356e-07
-1.28611e-09
-1.68716e-07
-2.20145e-09
-1.66402e-07
-3.11969e-09
-1.63416e-07
-4.03266e-09
-1.5977e-07
-4.93174e-09
-1.55481e-07
-5.80787e-09
-1.50573e-07
-6.65174e-09
-1.45076e-07
-7.45392e-09
-1.39029e-07
-8.20494e-09
-1.32475e-07
-8.89551e-09
-1.25467e-07
-9.51667e-09
-1.1806e-07
-1.00599e-08
-1.10318e-07
-1.05174e-08
-1.02309e-07
-1.0882e-08
-9.41045e-08
-1.11478e-08
-8.57808e-08
-1.13097e-08
-7.74164e-08
-1.13639e-08
-6.90917e-08
-1.13081e-08
-6.08874e-08
-1.11413e-08
-5.28844e-08
-1.08639e-08
-4.51615e-08
-1.0478e-08
-3.77953e-08
-9.98727e-09
-3.08581e-08
-9.39684e-09
-2.44177e-08
-8.71353e-09
-1.85354e-08
-7.94572e-09
-1.32652e-08
-7.10339e-09
-8.65244e-09
-6.19824e-09
-4.73244e-09
-5.24377e-09
-1.52908e-09
-4.25554e-09
9.47172e-10
-3.25159e-09
2.70149e-09
-2.2531e-09
3.75768e-09
-1.28545e-09
4.16227e-09
-3.79943e-10
3.98983e-09
4.23758e-10
3.35025e-09
1.07433e-09
2.39763e-09
1.50473e-09
1.33884e-09
1.62838e-09
4.35628e-10
1.34079e-09
5.69212e-10
3.26833e-10
-9.54052e-10
5.68231e-10
-1.15585e-09
2.87969e-10
-2.81926e-10
-7.87144e-10
1.23718e-09
-2.82075e-09
3.11376e-09
-5.89211e-09
5.14813e-09
-1.00181e-08
7.20576e-09
-1.51726e-08
9.199e-09
-2.13007e-08
1.10728e-08
-2.83289e-08
1.27943e-08
-3.61732e-08
1.4346e-08
-4.47441e-08
1.57207e-08
-5.39505e-08
1.69178e-08
-6.37025e-08
1.79414e-08
-7.39125e-08
1.87981e-08
-8.44964e-08
1.94959e-08
-9.5374e-08
2.00432e-08
-1.06469e-07
2.04483e-08
-1.17708e-07
2.07191e-08
-1.29023e-07
2.08622e-08
-1.40347e-07
2.08836e-08
-1.51616e-07
2.07879e-08
-1.62767e-07
2.05788e-08
-1.73741e-07
2.02589e-08
-1.84478e-07
1.98299e-08
-1.94917e-07
1.92929e-08
-2.05002e-07
1.86484e-08
-2.14673e-07
1.78964e-08
-2.23871e-07
1.70372e-08
-2.3254e-07
1.60707e-08
-2.40622e-07
1.49973e-08
-2.48059e-07
1.38181e-08
-2.54797e-07
1.25346e-08
-2.6078e-07
1.11495e-08
-2.65957e-07
9.66614e-09
-2.70279e-07
8.08946e-09
-2.73699e-07
6.42553e-09
-2.76177e-07
4.68187e-09
-2.77674e-07
2.86747e-09
-2.78161e-07
9.92838e-10
-2.77612e-07
-9.3e-10
-2.76011e-07
-2.88755e-09
-2.73347e-07
-4.86489e-09
-2.69621e-07
-6.84581e-09
-2.64841e-07
-8.81293e-09
-2.59025e-07
-1.07479e-08
-2.52201e-07
-1.26316e-08
-2.44408e-07
-1.44443e-08
-2.35696e-07
-1.61663e-08
-2.26123e-07
-1.77775e-08
-2.1576e-07
-1.92585e-08
-2.04686e-07
-2.05906e-08
-1.9299e-07
-2.17559e-08
-1.8077e-07
-2.27381e-08
-1.68129e-07
-2.35226e-08
-1.5518e-07
-2.40966e-08
-1.4204e-07
-2.44499e-08
-1.28829e-07
-2.45746e-08
-1.15671e-07
-2.44659e-08
-1.02691e-07
-2.41219e-08
-9.0011e-08
-2.35437e-08
-7.77532e-08
-2.27358e-08
-6.60344e-08
-2.17061e-08
-5.49654e-08
-2.04658e-08
-4.46494e-08
-1.90295e-08
-3.51798e-08
-1.74153e-08
-2.66383e-08
-1.56448e-08
-1.90933e-08
-1.37432e-08
-1.25973e-08
-1.17398e-08
-7.18466e-09
-9.66815e-09
-2.86931e-09
-7.56694e-09
3.5889e-10
-5.48127e-09
2.53784e-09
-3.46432e-09
3.73783e-09
-1.57986e-09
4.06734e-09
9.41813e-11
3.67976e-09
1.46179e-09
2.78097e-09
2.40359e-09
1.63516e-09
2.77441e-09
5.68797e-10
2.40714e-09
1.13798e-09
1.20002e-10
-1.07405e-09
-1.58127e-10
-8.77706e-10
-1.24636e-09
8.06312e-10
-3.41096e-09
3.40178e-09
-6.81392e-09
6.51673e-09
-1.15347e-08
9.86891e-09
-1.75888e-08
1.32599e-08
-2.49447e-08
1.65549e-08
-3.35372e-08
1.96653e-08
-4.32786e-08
2.25357e-08
-5.40667e-08
2.51342e-08
-6.57914e-08
2.74454e-08
-7.8339e-08
2.94654e-08
-9.15955e-08
3.1198e-08
-1.05449e-07
3.26515e-08
-1.1979e-07
3.38372e-08
-1.34514e-07
3.47675e-08
-1.49521e-07
3.54548e-08
-1.64713e-07
3.59112e-08
-1.79998e-07
3.61471e-08
-1.95286e-07
3.61718e-08
-2.10491e-07
3.59928e-08
-2.25528e-07
3.56162e-08
-2.40316e-07
3.50463e-08
-2.54772e-07
3.42863e-08
-2.68817e-07
3.33381e-08
-2.82372e-07
3.2203e-08
-2.95357e-07
3.08816e-08
-3.07694e-07
2.93747e-08
-3.19307e-07
2.76829e-08
-3.30117e-07
2.58076e-08
-3.4005e-07
2.37511e-08
-3.49032e-07
2.15167e-08
-3.56992e-07
1.91096e-08
-3.63862e-07
1.65363e-08
-3.69578e-07
1.38056e-08
-3.74081e-07
1.09286e-08
-3.77318e-07
7.91833e-09
-3.79241e-07
4.79068e-09
-3.79812e-07
1.56383e-09
-3.79001e-07
-1.74153e-09
-3.76786e-07
-5.10226e-09
-3.73158e-07
-8.49295e-09
-3.68118e-07
-1.18861e-08
-3.61678e-07
-1.52522e-08
-3.53866e-07
-1.85604e-08
-3.44719e-07
-2.17784e-08
-3.3429e-07
-2.48733e-08
-3.22644e-07
-2.78117e-08
-3.09862e-07
-3.05604e-08
-2.96033e-07
-3.30868e-08
-2.81264e-07
-3.53596e-08
-2.65671e-07
-3.73492e-08
-2.49381e-07
-3.90284e-08
-2.32531e-07
-4.03727e-08
-2.15266e-07
-4.13613e-08
-1.97739e-07
-4.19768e-08
-1.80107e-07
-4.22067e-08
-1.6253e-07
-4.20428e-08
-1.4517e-07
-4.1482e-08
-1.28187e-07
-4.05265e-08
-1.11739e-07
-3.91842e-08
-9.59763e-08
-3.74684e-08
-8.10439e-08
-3.53982e-08
-6.70749e-08
-3.29985e-08
-5.41901e-08
-3.03001e-08
-4.2495e-08
-2.73399e-08
-3.20774e-08
-2.41608e-08
-2.30045e-08
-2.08127e-08
-1.53203e-08
-1.73523e-08
-9.04202e-09
-1.38452e-08
-4.15693e-09
-1.03664e-08
-6.1793e-10
-7.00332e-09
1.66086e-09
-3.85856e-09
2.80914e-09
-1.05399e-09
3.00631e-09
1.2646e-09
2.48743e-09
2.92236e-09
1.54968e-09
3.71223e-09
5.61025e-10
3.39577e-09
1.69899e-09
-1.53904e-10
-9.2014e-10
-1.10494e-09
7.33407e-11
-3.1956e-09
2.89698e-09
-6.654e-09
6.86019e-09
-1.16183e-08
1.14811e-08
-1.81524e-08
1.64031e-08
-2.62604e-08
2.13679e-08
-3.59001e-08
2.61946e-08
-4.69948e-08
3.076e-08
-5.94437e-08
3.49845e-08
-7.31293e-08
3.88198e-08
-8.79245e-08
4.22407e-08
-1.03697e-07
4.52382e-08
-1.20314e-07
4.78146e-08
-1.37642e-07
4.99794e-08
-1.55551e-07
5.17466e-08
-1.73916e-07
5.31321e-08
-1.92614e-07
5.41527e-08
-2.11527e-07
5.48243e-08
-2.30541e-07
5.51616e-08
-2.49547e-07
5.51775e-08
-2.68437e-07
5.48825e-08
-2.87106e-07
5.42853e-08
-3.05452e-07
5.33924e-08
-3.23374e-07
5.22085e-08
-3.40773e-07
5.07369e-08
-3.5755e-07
4.89799e-08
-3.73608e-07
4.69391e-08
-3.88849e-07
4.46161e-08
-4.03179e-07
4.20129e-08
-4.16504e-07
3.91322e-08
-4.28731e-07
3.59783e-08
-4.39771e-07
3.25572e-08
-4.49539e-07
2.88773e-08
-4.57952e-07
2.49494e-08
-4.64934e-07
2.07874e-08
-4.70414e-07
1.64085e-08
-4.74329e-07
1.18332e-08
-4.76624e-07
7.08556e-09
-4.77253e-07
2.19342e-09
-4.76183e-07
-2.81191e-09
-4.73389e-07
-7.89559e-09
-4.68863e-07
-1.30195e-08
-4.62607e-07
-1.81424e-08
-4.54638e-07
-2.32204e-08
-4.44991e-07
-2.82076e-08
-4.33713e-07
-3.30561e-08
-4.2087e-07
-3.7717e-08
-4.06541e-07
-4.2141e-08
-3.90822e-07
-4.6279e-08
-3.73826e-07
-5.0083e-08
-3.55679e-07
-5.35069e-08
-3.36521e-07
-5.6507e-08
-3.16506e-07
-5.90433e-08
-2.95799e-07
-6.108e-08
-2.74574e-07
-6.25861e-08
-2.53014e-07
-6.35366e-08
-2.31308e-07
-6.39127e-08
-2.09648e-07
-6.37027e-08
-1.88228e-07
-6.29022e-08
-1.6724e-07
-6.15146e-08
-1.46872e-07
-5.95517e-08
-1.27307e-07
-5.70334e-08
-1.08717e-07
-5.39883e-08
-9.1262e-08
-5.04537e-08
-7.50864e-08
-4.64757e-08
-6.03171e-08
-4.21092e-08
-4.70594e-08
-3.74186e-08
-3.53941e-08
-3.24779e-08
-2.53746e-08
-2.73718e-08
-1.70231e-08
-2.21967e-08
-1.0327e-08
-1.70624e-08
-5.23536e-09
-1.2095e-08
-1.65412e-09
-7.43982e-09
5.57781e-10
-3.26585e-09
1.59323e-09
2.29247e-10
1.70199e-09
2.81357e-09
1.19712e-09
4.217e-09
4.65448e-10
4.12744e-09
2.16443e-09
-4.585e-10
-4.61639e-10
-2.17037e-09
1.78521e-09
-5.38681e-09
6.11343e-09
-1.02771e-08
1.17505e-08
-1.69392e-08
1.81432e-08
-2.54089e-08
2.48728e-08
-3.56696e-08
3.16286e-08
-4.76625e-08
3.81874e-08
-6.12964e-08
4.4394e-08
-7.64563e-08
5.01444e-08
-9.30105e-08
5.5374e-08
-1.10817e-07
6.00469e-08
-1.29727e-07
6.41483e-08
-1.4959e-07
6.76782e-08
-1.70257e-07
7.06465e-08
-1.9158e-07
7.30693e-08
-2.13414e-07
7.49661e-08
-2.35619e-07
7.63572e-08
-2.58057e-07
7.72628e-08
-2.80597e-07
7.77016e-08
-3.0311e-07
7.76899e-08
-3.25469e-07
7.72417e-08
-3.47552e-07
7.63683e-08
-3.69238e-07
7.50784e-08
-3.90408e-07
7.33787e-08
-4.10945e-07
7.1274e-08
-4.30733e-07
6.8768e-08
-4.49657e-07
6.58636e-08
-4.67605e-07
6.25637e-08
-4.84464e-07
5.88721e-08
-5.00125e-07
5.47935e-08
-5.14482e-07
5.03348e-08
-5.2743e-07
4.55056e-08
-5.38871e-07
4.03182e-08
-5.48711e-07
3.47888e-08
-5.56861e-07
2.89376e-08
-5.63242e-07
2.27892e-08
-5.67781e-07
1.63727e-08
-5.70418e-07
9.72212e-09
-5.71101e-07
2.87644e-09
-5.69792e-07
-4.12064e-09
-5.66467e-07
-1.12207e-08
-5.61115e-07
-1.8371e-08
-5.53743e-07
-2.55147e-08
-5.44372e-07
-3.25913e-08
-5.33042e-07
-3.95375e-08
-5.1981e-07
-4.62879e-08
-5.04752e-07
-5.27755e-08
-4.8796e-07
-5.89328e-08
-4.69546e-07
-6.46928e-08
-4.49639e-07
-6.99901e-08
-4.28384e-07
-7.47615e-08
-4.05944e-07
-7.89477e-08
-3.82493e-07
-8.24941e-08
-3.58221e-07
-8.53518e-08
-3.33329e-07
-8.74788e-08
-3.08024e-07
-8.88409e-08
-2.82525e-07
-8.94126e-08
-2.5705e-07
-8.91778e-08
-2.31821e-07
-8.81306e-08
-2.0706e-07
-8.62759e-08
-1.82982e-07
-8.36298e-08
-1.59795e-07
-8.02196e-08
-1.37699e-07
-7.60848e-08
-1.16876e-07
-7.12765e-08
-9.74936e-08
-6.58582e-08
-7.96973e-08
-5.99055e-08
-6.36091e-08
-5.35067e-08
-4.93235e-08
-4.67635e-08
-3.69042e-08
-3.97912e-08
-2.63801e-08
-3.27208e-08
-1.77425e-08
-2.57e-08
-1.09408e-08
-1.88967e-08
-5.87947e-09
-1.25012e-08
-2.41385e-09
-6.73146e-09
-3.46899e-10
-1.83765e-09
5.75203e-10
1.89157e-09
6.67899e-10
4.12422e-09
3.17196e-10
4.47815e-09
2.48164e-09
-7.74383e-10
3.1275e-10
-3.2925e-09
4.30335e-09
-7.7065e-09
1.05275e-08
-1.41157e-08
1.81596e-08
-2.25667e-08
2.65942e-08
-3.30574e-08
3.53635e-08
-4.55427e-08
4.41139e-08
-5.99416e-08
5.25864e-08
-7.61448e-08
6.05971e-08
-9.40209e-08
6.80205e-08
-1.13423e-07
7.47765e-08
-1.34195e-07
8.08188e-08
-1.56174e-07
8.61269e-08
-1.79194e-07
9.06982e-08
-2.0309e-07
9.45426e-08
-2.27699e-07
9.76782e-08
-2.5286e-07
1.00127e-07
-2.78416e-07
1.01914e-07
-3.04215e-07
1.03062e-07
-3.30107e-07
1.03594e-07
-3.55947e-07
1.0353e-07
-3.81592e-07
1.02887e-07
-4.06903e-07
1.01679e-07
-4.31742e-07
9.99178e-08
-4.55975e-07
9.76117e-08
-4.79468e-07
9.47671e-08
-5.0209e-07
9.13895e-08
-5.2371e-07
8.74834e-08
-5.44199e-07
8.30536e-08
-5.63433e-07
7.81059e-08
-5.81287e-07
7.26477e-08
-5.97642e-07
6.66893e-08
-6.1238e-07
6.02442e-08
-6.25392e-07
5.333e-08
-6.36572e-07
4.5969e-08
-6.45823e-07
3.81886e-08
-6.53056e-07
3.00221e-08
-6.58192e-07
2.15084e-08
-6.61163e-07
1.2693e-08
-6.61914e-07
3.6272e-09
-6.60403e-07
-5.63129e-09
-6.56605e-07
-1.50189e-08
-6.50509e-07
-2.44665e-08
-6.42124e-07
-3.38998e-08
-6.31475e-07
-4.32402e-08
-6.18608e-07
-5.24052e-08
-6.03586e-07
-6.13097e-08
-5.86494e-07
-6.9867e-08
-5.67438e-07
-7.79895e-08
-5.4654e-07
-8.55904e-08
-5.23945e-07
-9.25849e-08
-4.99815e-07
-9.88915e-08
-4.7433e-07
-1.04433e-07
-4.47684e-07
-1.0914e-07
-4.20089e-07
-1.12947e-07
-3.91766e-07
-1.15801e-07
-3.62949e-07
-1.17658e-07
-3.33877e-07
-1.18484e-07
-3.04797e-07
-1.18259e-07
-2.75954e-07
-1.16974e-07
-2.47594e-07
-1.14635e-07
-2.19959e-07
-1.11265e-07
-1.93282e-07
-1.06897e-07
-1.67783e-07
-1.01583e-07
-1.4367e-07
-9.53898e-08
-1.21129e-07
-8.83992e-08
-1.00325e-07
-8.07096e-08
-8.13963e-08
-7.24354e-08
-6.44517e-08
-6.37081e-08
-4.95664e-08
-5.46764e-08
-3.67789e-08
-4.55083e-08
-2.60871e-08
-3.63918e-08
-1.74456e-08
-2.75382e-08
-1.07622e-08
-1.91847e-08
-5.89515e-09
-1.15985e-08
-2.65054e-09
-5.08229e-09
-7.78945e-10
2.00961e-11
2.70769e-11
3.3182e-09
1.38736e-10
4.3665e-09
2.62039e-09
-1.09141e-09
1.40417e-09
-4.43411e-09
7.64606e-09
-1.0082e-08
1.61754e-08
-1.80591e-08
2.61367e-08
-2.83541e-08
3.68892e-08
-4.092e-08
4.79294e-08
-5.56772e-08
5.88711e-08
-7.25175e-08
6.94267e-08
-9.13094e-08
7.93891e-08
-1.11903e-07
8.86144e-08
-1.34136e-07
9.70094e-08
-1.57836e-07
1.04519e-07
-1.82827e-07
1.11117e-07
-2.08929e-07
1.168e-07
-2.35963e-07
1.21576e-07
-2.63751e-07
1.25467e-07
-2.9212e-07
1.28496e-07
-3.20897e-07
1.30691e-07
-3.49917e-07
1.32081e-07
-3.79014e-07
1.32691e-07
-4.08029e-07
1.32544e-07
-4.36804e-07
1.31662e-07
-4.65185e-07
1.3006e-07
-4.93021e-07
1.27753e-07
-5.20161e-07
1.24752e-07
-5.46458e-07
1.21064e-07
-5.71765e-07
1.16697e-07
-5.9594e-07
1.11658e-07
-6.18839e-07
1.05953e-07
-6.40324e-07
9.95906e-08
-6.60258e-07
9.2582e-08
-6.78509e-07
8.49409e-08
-6.94951e-07
7.66858e-08
-7.09461e-07
6.78399e-08
-7.21925e-07
5.84327e-08
-7.32236e-07
4.84999e-08
-7.40298e-07
3.80842e-08
-7.46025e-07
2.72356e-08
-7.49344e-07
1.6012e-08
-7.50195e-07
4.4785e-09
-7.48535e-07
-7.29196e-09
-7.44334e-07
-1.92193e-08
-7.37584e-07
-3.12165e-08
-7.28294e-07
-4.31906e-08
-7.16491e-07
-5.50428e-08
-7.02226e-07
-6.66704e-08
-6.85569e-07
-7.79668e-08
-6.66612e-07
-8.88237e-08
-6.45469e-07
-9.91321e-08
-6.22276e-07
-1.08784e-07
-5.97188e-07
-1.17673e-07
-5.70382e-07
-1.25698e-07
-5.42052e-07
-1.32763e-07
-5.12413e-07
-1.38779e-07
-4.81692e-07
-1.43668e-07
-4.50131e-07
-1.47362e-07
-4.17984e-07
-1.49805e-07
-3.85513e-07
-1.50955e-07
-3.52986e-07
-1.50786e-07
-3.20672e-07
-1.49288e-07
-2.8884e-07
-1.46467e-07
-2.57755e-07
-1.4235e-07
-2.27673e-07
-1.36979e-07
-1.98837e-07
-1.30419e-07
-1.71474e-07
-1.22752e-07
-1.45793e-07
-1.14081e-07
-1.21976e-07
-1.04527e-07
-1.00179e-07
-9.42323e-08
-8.05261e-08
-8.33607e-08
-6.31065e-08
-7.20961e-08
-4.797e-08
-6.06449e-08
-3.51246e-08
-4.92371e-08
-2.45338e-08
-3.81289e-08
-1.61135e-08
-2.7605e-08
-9.72975e-09
-1.79822e-08
-5.19751e-09
-9.61457e-09
-2.27852e-09
-2.89886e-09
-6.8035e-10
1.72007e-09
-5.55809e-11
3.74172e-09
2.56483e-09
-1.40428e-09
2.80846e-09
-5.57336e-09
1.18151e-08
-1.24673e-08
2.30693e-08
-2.20338e-08
3.57032e-08
-3.41999e-08
4.90552e-08
-4.88695e-08
6.25991e-08
-6.5924e-08
7.59255e-08
-8.52238e-08
8.87266e-08
-1.06612e-07
1.00778e-07
-1.29919e-07
1.11921e-07
-1.54963e-07
1.22053e-07
-1.81557e-07
1.31113e-07
-2.0951e-07
1.3907e-07
-2.38629e-07
1.45919e-07
-2.68722e-07
1.5167e-07
-2.996e-07
1.56344e-07
-3.31075e-07
1.59971e-07
-3.62963e-07
1.62579e-07
-3.95084e-07
1.64202e-07
-4.27262e-07
1.64868e-07
-4.59323e-07
1.64605e-07
-4.91096e-07
1.63436e-07
-5.22416e-07
1.6138e-07
-5.53116e-07
1.58454e-07
-5.83034e-07
1.5467e-07
-6.12009e-07
1.50039e-07
-6.39882e-07
1.44571e-07
-6.66498e-07
1.38273e-07
-6.91701e-07
1.31156e-07
-7.15341e-07
1.23231e-07
-7.37271e-07
1.14512e-07
-7.57347e-07
1.05017e-07
-7.75431e-07
9.47704e-08
-7.91394e-07
8.38022e-08
-8.0511e-07
7.21492e-08
-8.16466e-07
5.98561e-08
-8.25358e-07
4.69762e-08
-8.31694e-07
3.35714e-08
-8.35395e-07
1.97128e-08
-8.36397e-07
5.4807e-09
-8.34653e-07
-9.0359e-09
-8.30133e-07
-2.37391e-08
-8.22827e-07
-3.8523e-08
-8.12743e-07
-5.32744e-08
-7.99912e-07
-6.78734e-08
-7.84388e-07
-8.21952e-08
-7.66244e-07
-9.61107e-08
-7.45579e-07
-1.09489e-07
-7.22514e-07
-1.22197e-07
-6.97194e-07
-1.34104e-07
-6.69785e-07
-1.45082e-07
-6.40475e-07
-1.55008e-07
-6.09473e-07
-1.63765e-07
-5.77006e-07
-1.71246e-07
-5.4332e-07
-1.77355e-07
-5.08674e-07
-1.82008e-07
-4.7334e-07
-1.85139e-07
-4.376e-07
-1.86695e-07
-4.01743e-07
-1.86643e-07
-3.66059e-07
-1.84971e-07
-3.3084e-07
-1.81686e-07
-2.96372e-07
-1.76818e-07
-2.62932e-07
-1.70419e-07
-2.30787e-07
-1.62564e-07
-2.00185e-07
-1.53354e-07
-1.71355e-07
-1.42912e-07
-1.44498e-07
-1.31383e-07
-1.19789e-07
-1.18941e-07
-9.73694e-08
-1.0578e-07
-7.7343e-08
-9.21225e-08
-5.97744e-08
-7.82135e-08
-4.4685e-08
-6.43266e-08
-3.20501e-08
-5.07638e-08
-2.17977e-08
-3.78574e-08
-1.38061e-08
-2.59738e-08
-7.90341e-09
-1.55173e-08
-3.8671e-09
-6.93521e-09
-1.42489e-09
-7.22127e-10
-2.56998e-10
2.57381e-09
2.30784e-09
-1.71033e-09
4.5188e-09
-6.69751e-09
1.68023e-08
-1.48335e-08
3.12053e-08
-2.59908e-08
4.68606e-08
-4.00339e-08
6.30983e-08
-5.68151e-08
7.93802e-08
-7.61734e-08
9.52838e-08
-9.79353e-08
1.10488e-07
-1.21916e-07
1.24758e-07
-1.47922e-07
1.37927e-07
-1.75754e-07
1.49885e-07
-2.05207e-07
1.60566e-07
-2.36075e-07
1.69939e-07
-2.68154e-07
1.77998e-07
-3.01238e-07
1.84754e-07
-3.35126e-07
1.90232e-07
-3.69619e-07
1.94464e-07
-4.04522e-07
1.97482e-07
-4.39644e-07
1.99323e-07
-4.74795e-07
2.0002e-07
-5.09793e-07
1.99603e-07
-5.44455e-07
1.98097e-07
-5.78601e-07
1.95527e-07
-6.12057e-07
1.91909e-07
-6.44646e-07
1.87259e-07
-6.76198e-07
1.81591e-07
-7.06541e-07
1.74914e-07
-7.3551e-07
1.67241e-07
-7.62937e-07
1.58584e-07
-7.88663e-07
1.48956e-07
-8.12528e-07
1.38377e-07
-8.34381e-07
1.2687e-07
-8.54074e-07
1.14464e-07
-8.71468e-07
1.01196e-07
-8.8643e-07
8.71112e-08
-8.98838e-07
7.22647e-08
-9.08583e-07
5.67205e-08
-9.15565e-07
4.05532e-08
-9.197e-07
2.3848e-08
-9.2092e-07
6.70092e-09
-9.19174e-07
-1.07818e-08
-9.1443e-07
-2.84837e-08
-9.06674e-07
-4.62787e-08
-8.95916e-07
-6.40325e-08
-8.82186e-07
-8.1603e-08
-8.65539e-07
-9.88421e-08
-8.46053e-07
-1.15597e-07
-8.2383e-07
-1.31712e-07
-7.98996e-07
-1.4703e-07
-7.71704e-07
-1.61396e-07
-7.42127e-07
-1.74659e-07
-7.10465e-07
-1.8667e-07
-6.76936e-07
-1.97293e-07
-6.41782e-07
-2.064e-07
-6.05262e-07
-2.13875e-07
-5.67651e-07
-2.19619e-07
-5.29239e-07
-2.23551e-07
-4.90326e-07
-2.25608e-07
-4.51219e-07
-2.2575e-07
-4.12231e-07
-2.2396e-07
-3.73673e-07
-2.20244e-07
-3.35854e-07
-2.14637e-07
-2.99072e-07
-2.072e-07
-2.63617e-07
-1.9802e-07
-2.29759e-07
-1.87213e-07
-1.97746e-07
-1.74924e-07
-1.67803e-07
-1.61326e-07
-1.40123e-07
-1.46621e-07
-1.14867e-07
-1.31037e-07
-9.2156e-08
-1.14833e-07
-7.20723e-08
-9.82972e-08
-5.46528e-08
-8.17461e-08
-3.98886e-08
-6.5528e-08
-2.77226e-08
-5.00233e-08
-1.80488e-08
-3.56476e-08
-1.07118e-08
-2.28543e-08
-5.50811e-09
-1.2139e-08
-2.18803e-09
-4.04222e-09
-4.60445e-10
8.46223e-10
1.84739e-09
-2.00829e-09
6.52709e-09
-7.79922e-09
2.25932e-08
-1.71624e-08
4.05685e-08
-2.98979e-08
5.95961e-08
-4.58077e-08
7.90081e-08
-6.46916e-08
9.8264e-08
-8.63447e-08
1.16937e-07
-1.10557e-07
1.34701e-07
-1.37114e-07
1.51316e-07
-1.65798e-07
1.66611e-07
-1.96388e-07
1.80475e-07
-2.28663e-07
1.92841e-07
-2.62401e-07
2.03677e-07
-2.97384e-07
2.12981e-07
-3.33396e-07
2.20766e-07
-3.70224e-07
2.2706e-07
-4.07658e-07
2.31897e-07
-4.45492e-07
2.35317e-07
-4.83526e-07
2.37357e-07
-5.21561e-07
2.38055e-07
-5.59402e-07
2.37444e-07
-5.96858e-07
2.35553e-07
-6.3374e-07
2.32408e-07
-6.6986e-07
2.28029e-07
-7.05036e-07
2.22434e-07
-7.39083e-07
2.15638e-07
-7.71823e-07
2.07654e-07
-8.03077e-07
1.98496e-07
-8.32672e-07
1.88178e-07
-8.60435e-07
1.7672e-07
-8.862e-07
1.64142e-07
-9.09806e-07
1.50475e-07
-9.31095e-07
1.35753e-07
-9.49921e-07
1.20022e-07
-9.66144e-07
1.03334e-07
-9.79634e-07
8.57547e-08
-9.90273e-07
6.736e-08
-9.97958e-07
4.82376e-08
-1.0026e-06
2.84876e-08
-1.00412e-06
8.22224e-09
-1.00247e-06
-1.24343e-08
-9.97604e-07
-3.33462e-08
-9.89516e-07
-5.43666e-08
-9.78209e-07
-7.53391e-08
-9.63714e-07
-9.60983e-08
-9.46084e-07
-1.16472e-07
-9.25399e-07
-1.36282e-07
-9.01763e-07
-1.55348e-07
-8.75307e-07
-1.73486e-07
-8.46186e-07
-1.90517e-07
-8.14582e-07
-2.06262e-07
-7.80702e-07
-2.20551e-07
-7.44774e-07
-2.33221e-07
-7.07051e-07
-2.44123e-07
-6.67804e-07
-2.53122e-07
-6.27323e-07
-2.601e-07
-5.85913e-07
-2.64961e-07
-5.43893e-07
-2.67629e-07
-5.01587e-07
-2.68055e-07
-4.59329e-07
-2.66218e-07
-4.17451e-07
-2.62122e-07
-3.76283e-07
-2.55805e-07
-3.36147e-07
-2.47336e-07
-2.97354e-07
-2.36813e-07
-2.60197e-07
-2.2437e-07
-2.24949e-07
-2.10173e-07
-1.91854e-07
-1.94421e-07
-1.6113e-07
-1.77345e-07
-1.32956e-07
-1.5921e-07
-1.07477e-07
-1.40313e-07
-8.4792e-08
-1.20982e-07
-6.49578e-08
-1.0158e-07
-4.79838e-08
-8.2502e-08
-3.38308e-08
-6.41763e-08
-2.24111e-08
-4.70673e-08
-1.35884e-08
-3.1677e-08
-7.17976e-09
-1.85476e-08
-2.95924e-09
-8.26274e-09
-6.63286e-10
-1.44972e-09
1.1841e-09
-2.29759e-09
8.82467e-09
-8.87422e-09
2.91698e-08
-1.94426e-08
5.11369e-08
-3.37334e-08
7.38869e-08
-5.14876e-08
9.67623e-08
-7.24522e-08
1.19229e-07
-9.63778e-08
1.40863e-07
-1.23017e-07
1.6134e-07
-1.52125e-07
1.80423e-07
-1.83456e-07
1.97942e-07
-2.16769e-07
2.13787e-07
-2.51823e-07
2.27895e-07
-2.88384e-07
2.40238e-07
-3.26218e-07
2.50815e-07
-3.65098e-07
2.59646e-07
-4.048e-07
2.66761e-07
-4.45104e-07
2.72201e-07
-4.85796e-07
2.76009e-07
-5.26664e-07
2.78226e-07
-5.67503e-07
2.78894e-07
-6.08109e-07
2.7805e-07
-6.4828e-07
2.75725e-07
-6.8782e-07
2.71948e-07
-7.26533e-07
2.66742e-07
-7.64225e-07
2.60127e-07
-8.00706e-07
2.52119e-07
-8.35786e-07
2.42734e-07
-8.6928e-07
2.31989e-07
-9.01004e-07
2.19902e-07
-9.30778e-07
2.06494e-07
-9.58426e-07
1.91791e-07
-9.8378e-07
1.75829e-07
-1.00667e-06
1.58648e-07
-1.02695e-06
1.40302e-07
-1.04447e-06
1.20852e-07
-1.05909e-06
1.00374e-07
-1.07069e-06
7.89557e-08
-1.07915e-06
5.66988e-08
-1.08438e-06
3.37182e-08
-1.0863e-06
1.01429e-08
-1.08485e-06
-1.38843e-08
-1.07999e-06
-3.82079e-08
-1.0717e-06
-6.26595e-08
-1.05997e-06
-8.70599e-08
-1.04485e-06
-1.1122e-07
-1.02638e-06
-1.34942e-07
-1.00464e-06
-1.58022e-07
-9.79739e-07
-1.80252e-07
-9.51801e-07
-2.01424e-07
-9.2099e-07
-2.21328e-07
-8.87491e-07
-2.39762e-07
-8.51515e-07
-2.56526e-07
-8.13301e-07
-2.71435e-07
-7.7311e-07
-2.84314e-07
-7.31224e-07
-2.95007e-07
-6.87947e-07
-3.03377e-07
-6.43599e-07
-3.09309e-07
-5.98514e-07
-3.12714e-07
-5.53036e-07
-3.13533e-07
-5.07518e-07
-3.11736e-07
-4.62313e-07
-3.07327e-07
-4.17774e-07
-3.00344e-07
-3.74247e-07
-2.90863e-07
-3.32065e-07
-2.78995e-07
-2.91546e-07
-2.64889e-07
-2.52988e-07
-2.48731e-07
-2.1666e-07
-2.30749e-07
-1.82803e-07
-2.11202e-07
-1.51621e-07
-1.90392e-07
-1.2328e-07
-1.68654e-07
-9.79024e-08
-1.46359e-07
-7.55668e-08
-1.23916e-07
-5.63032e-08
-1.01766e-07
-4.0093e-08
-8.03864e-08
-2.68689e-08
-6.02914e-08
-1.65154e-08
-4.20306e-08
-8.87127e-09
-2.61918e-08
-3.73366e-09
-1.34004e-08
-8.64494e-10
-4.31887e-09
3.196e-10
-2.57801e-09
1.14027e-08
-9.92005e-09
3.65119e-08
-2.16668e-08
6.28836e-08
-3.74826e-08
8.97027e-08
-5.70494e-08
1.16329e-07
-8.00624e-08
1.42242e-07
-1.06228e-07
1.67028e-07
-1.3526e-07
1.90373e-07
-1.66881e-07
2.12044e-07
-2.00821e-07
2.31882e-07
-2.36814e-07
2.49781e-07
-2.74603e-07
2.65685e-07
-3.13936e-07
2.79571e-07
-3.54567e-07
2.91446e-07
-3.96256e-07
3.01335e-07
-4.38769e-07
3.09275e-07
-4.81878e-07
3.1531e-07
-5.25359e-07
3.1949e-07
-5.68994e-07
3.21861e-07
-6.12567e-07
3.22467e-07
-6.55868e-07
3.2135e-07
-6.98688e-07
3.18545e-07
-7.40823e-07
3.14082e-07
-7.82068e-07
3.07987e-07
-8.22223e-07
3.00282e-07
-8.6109e-07
2.90986e-07
-8.98472e-07
2.80116e-07
-9.34174e-07
2.67692e-07
-9.68007e-07
2.53734e-07
-9.99782e-07
2.38268e-07
-1.02932e-06
2.21326e-07
-1.05643e-06
2.02945e-07
-1.08096e-06
1.83175e-07
-1.10273e-06
1.62075e-07
-1.1216e-06
1.39717e-07
-1.13741e-06
1.16188e-07
-1.15004e-06
9.15859e-08
-1.15937e-06
6.60271e-08
-1.16529e-06
3.96417e-08
-1.16773e-06
1.25757e-08
-1.1666e-06
-1.50096e-08
-1.16187e-06
-4.29381e-08
-1.15351e-06
-7.10199e-08
-1.14152e-06
-9.90522e-08
-1.12592e-06
-1.26821e-07
-1.10675e-06
-1.54103e-07
-1.08411e-06
-1.80668e-07
-1.05808e-06
-2.0628e-07
-1.0288e-06
-2.30702e-07
-9.96435e-07
-2.53696e-07
-9.61165e-07
-2.75031e-07
-9.23211e-07
-2.9448e-07
-8.82814e-07
-3.11831e-07
-8.40245e-07
-3.26884e-07
-7.95795e-07
-3.39457e-07
-7.49781e-07
-3.49391e-07
-7.02536e-07
-3.56554e-07
-6.54411e-07
-3.6084e-07
-6.05768e-07
-3.62176e-07
-5.56979e-07
-3.60525e-07
-5.0842e-07
-3.55886e-07
-4.60467e-07
-3.48298e-07
-4.13489e-07
-3.37841e-07
-3.67847e-07
-3.24637e-07
-3.23885e-07
-3.08851e-07
-2.81925e-07
-2.90691e-07
-2.42266e-07
-2.70408e-07
-2.05174e-07
-2.48295e-07
-1.70879e-07
-2.24687e-07
-1.39573e-07
-1.99959e-07
-1.11405e-07
-1.74528e-07
-8.64763e-08
-1.48845e-07
-6.48405e-08
-1.23401e-07
-4.65021e-08
-9.87248e-08
-3.14159e-08
-7.53776e-08
-1.94883e-08
-5.39581e-08
-1.058e-08
-3.51e-08
-4.51047e-09
-1.94699e-08
-1.06413e-09
-7.76522e-09
-7.44536e-10
-2.84949e-09
1.42522e-08
-1.09352e-08
4.45975e-08
-2.38298e-08
7.57783e-08
-4.11351e-08
1.07008e-07
-6.24756e-08
1.3767e-07
-8.74961e-08
1.67262e-07
-1.15859e-07
1.9539e-07
-1.4724e-07
2.21754e-07
-1.81331e-07
2.46135e-07
-2.17832e-07
2.68383e-07
-2.56458e-07
2.88406e-07
-2.9693e-07
3.06157e-07
-3.3898e-07
3.21622e-07
-3.82351e-07
3.34817e-07
-4.2679e-07
3.45774e-07
-4.72054e-07
3.54538e-07
-5.17905e-07
3.61161e-07
-5.64112e-07
3.65697e-07
-6.10449e-07
3.68198e-07
-6.56694e-07
3.68713e-07
-7.0263e-07
3.67286e-07
-7.48041e-07
3.63957e-07
-7.92716e-07
3.58758e-07
-8.36446e-07
3.51717e-07
-8.79023e-07
3.42859e-07
-9.20242e-07
3.32204e-07
-9.59899e-07
3.19773e-07
-9.97794e-07
3.05587e-07
-1.03373e-06
2.8967e-07
-1.06751e-06
2.72049e-07
-1.09895e-06
2.52762e-07
-1.12785e-06
2.31852e-07
-1.15405e-06
2.09375e-07
-1.17738e-06
1.85396e-07
-1.19766e-06
1.59998e-07
-1.21475e-06
1.33277e-07
-1.2285e-06
1.05344e-07
-1.23881e-06
7.63276e-08
-1.24554e-06
4.63743e-08
-1.24861e-06
1.56467e-08
-1.24794e-06
-1.5675e-08
-1.24349e-06
-4.73943e-08
-1.23521e-06
-7.92993e-08
-1.2231e-06
-1.11163e-07
-1.20717e-06
-1.42748e-07
-1.18747e-06
-1.73802e-07
-1.16407e-06
-2.04068e-07
-1.13707e-06
-2.33282e-07
-1.10659e-06
-2.61176e-07
-1.07281e-06
-2.87485e-07
-1.03589e-06
-3.11945e-07
-9.9607e-07
-3.34302e-07
-9.5359e-07
-3.54312e-07
-9.08725e-07
-3.71749e-07
-8.61778e-07
-3.86404e-07
-8.13074e-07
-3.98095e-07
-7.62962e-07
-4.06666e-07
-7.11807e-07
-4.11994e-07
-6.59991e-07
-4.13992e-07
-6.07905e-07
-4.1261e-07
-5.55948e-07
-4.07842e-07
-5.0452e-07
-3.99726e-07
-4.54017e-07
-3.88344e-07
-4.04826e-07
-3.73828e-07
-3.57321e-07
-3.56357e-07
-3.11852e-07
-3.36159e-07
-2.68748e-07
-3.13512e-07
-2.28303e-07
-2.88739e-07
-1.9078e-07
-2.62211e-07
-1.56396e-07
-2.34343e-07
-1.25329e-07
-2.05595e-07
-9.77073e-08
-1.76466e-07
-7.36108e-08
-1.47498e-07
-5.30686e-08
-1.19267e-07
-3.60593e-08
-9.23869e-08
-2.25121e-08
-6.75053e-08
-1.23096e-08
-4.53026e-08
-5.29178e-09
-2.64877e-08
-1.26302e-09
-1.1794e-08
-2.00756e-09
-3.11198e-09
1.73642e-08
-1.19184e-08
5.3404e-08
-2.59281e-08
8.9788e-08
-4.46827e-08
1.25762e-07
-6.77522e-08
1.60739e-07
-9.47325e-08
1.94242e-07
-1.25243e-07
2.259e-07
-1.58922e-07
2.55433e-07
-1.95429e-07
2.82642e-07
-2.34438e-07
3.07393e-07
-2.7564e-07
3.29608e-07
-3.18738e-07
3.49255e-07
-3.63448e-07
3.66332e-07
-4.09499e-07
3.80867e-07
-4.56627e-07
3.92902e-07
-5.0458e-07
4.02491e-07
-5.53111e-07
4.09693e-07
-6.01983e-07
4.14569e-07
-6.50963e-07
4.17177e-07
-6.99822e-07
4.17572e-07
-7.48338e-07
4.15802e-07
-7.9629e-07
4.11909e-07
-8.43461e-07
4.05929e-07
-8.89635e-07
3.97892e-07
-9.34602e-07
3.87825e-07
-9.78148e-07
3.75751e-07
-1.02007e-06
3.61691e-07
-1.06015e-06
3.4567e-07
-1.09819e-06
3.27714e-07
-1.134e-06
3.07854e-07
-1.16737e-06
2.86131e-07
-1.19811e-06
2.62594e-07
-1.22604e-06
2.37304e-07
-1.25098e-06
2.10335e-07
-1.27276e-06
1.81777e-07
-1.29121e-06
1.51736e-07
-1.30621e-06
1.20336e-07
-1.3176e-06
8.77187e-08
-1.32527e-06
5.4045e-08
-1.32912e-06
1.94948e-08
-1.32906e-06
-1.57333e-08
-1.32503e-06
-5.14225e-08
-1.31699e-06
-8.73384e-08
-1.30492e-06
-1.23231e-07
-1.28884e-06
-1.58835e-07
-1.26876e-06
-1.93874e-07
-1.24477e-06
-2.28061e-07
-1.21695e-06
-2.61102e-07
-1.18543e-06
-2.927e-07
-1.15035e-06
-3.22557e-07
-1.11192e-06
-3.50378e-07