/*--------------------------------*- C++ -*----------------------------------*\
  =========                 |
  \\      /  F ield         | OpenFOAM: The Open Source CFD Toolbox
   \\    /   O peration     | Website:  https://openfoam.org
    \\  /    A nd           | Version:  7
     \\/     M anipulation  |
\*---------------------------------------------------------------------------*/
FoamFile
{
    version     2.0;
    format      ascii;
    class       volVectorField;
    location    "2";
    object      U;
}
// * * * * * * * * * * * * * * * * * * * * * * * * * * * * * * * * * * * * * //

dimensions      [0 1 -1 0 0 0 0];

internalField   nonuniform List<vector> 
6400
(
(8.4996e-06 -8.94286e-06 0)
(3.38611e-05 -1.62069e-05 0)
(6.48559e-05 -1.48269e-05 0)
(8.40901e-05 -9.02592e-06 0)
(8.31208e-05 -1.47814e-06 0)
(5.9212e-05 6.47513e-06 0)
(1.19807e-05 1.41625e-05 0)
(-5.77229e-05 2.1279e-05 0)
(-0.000148358 2.76944e-05 0)
(-0.000258028 3.337e-05 0)
(-0.000384699 3.83164e-05 0)
(-0.000526312 4.25694e-05 0)
(-0.000680864 4.61766e-05 0)
(-0.000846446 4.91902e-05 0)
(-0.00102126 5.16629e-05 0)
(-0.00120364 5.36447e-05 0)
(-0.00139204 5.51815e-05 0)
(-0.00158503 5.6314e-05 0)
(-0.00178127 5.70771e-05 0)
(-0.00197952 5.74995e-05 0)
(-0.00217863 5.7604e-05 0)
(-0.00237748 5.74075e-05 0)
(-0.00257502 5.69219e-05 0)
(-0.00277022 5.6154e-05 0)
(-0.00296206 5.5107e-05 0)
(-0.00314955 5.37803e-05 0)
(-0.00333168 5.21712e-05 0)
(-0.00350746 5.02748e-05 0)
(-0.00367586 4.80854e-05 0)
(-0.00383587 4.55974e-05 0)
(-0.00398644 4.28054e-05 0)
(-0.00412654 3.97057e-05 0)
(-0.00425514 3.62966e-05 0)
(-0.00437122 3.25791e-05 0)
(-0.00447375 2.85577e-05 0)
(-0.00456177 2.42408e-05 0)
(-0.00463434 1.96413e-05 0)
(-0.00469059 1.47769e-05 0)
(-0.00472973 9.67025e-06 0)
(-0.00475104 4.34948e-06 0)
(-0.00475392 -1.15196e-06 0)
(-0.0047379 -6.79526e-06 0)
(-0.00470264 -1.25363e-05 0)
(-0.00464795 -1.83262e-05 0)
(-0.00457382 -2.41114e-05 0)
(-0.00448041 -2.98345e-05 0)
(-0.0043681 -3.54348e-05 0)
(-0.00423742 -4.08492e-05 0)
(-0.00408916 -4.60128e-05 0)
(-0.00392428 -5.08605e-05 0)
(-0.00374396 -5.53277e-05 0)
(-0.00354958 -5.93516e-05 0)
(-0.00334271 -6.28726e-05 0)
(-0.00312511 -6.58348e-05 0)
(-0.00289869 -6.81881e-05 0)
(-0.00266554 -6.98888e-05 0)
(-0.00242783 -7.09008e-05 0)
(-0.00218785 -7.11962e-05 0)
(-0.00194798 -7.07563e-05 0)
(-0.0017106 -6.95723e-05 0)
(-0.00147812 -6.76456e-05 0)
(-0.00125294 -6.49878e-05 0)
(-0.00103737 -6.1621e-05 0)
(-0.000833647 -5.75772e-05 0)
(-0.000643878 -5.28985e-05 0)
(-0.000470008 -4.76365e-05 0)
(-0.000313792 -4.18525e-05 0)
(-0.000176758 -3.56172e-05 0)
(-6.01706e-05 -2.9011e-05 0)
(3.50004e-05 -2.21268e-05 0)
(0.000108134 -1.50695e-05 0)
(0.000159013 -7.96855e-06 0)
(0.000187904 -9.8633e-07 0)
(0.000195673 5.65906e-06 0)
(0.00018398 1.16533e-05 0)
(0.000155568 1.6512e-05 0)
(0.000114645 1.94774e-05 0)
(6.76275e-05 1.9317e-05 0)
(2.53448e-05 1.41885e-05 0)
(3.56079e-06 3.575e-06 0)
(1.60602e-05 -3.46074e-05 0)
(5.49278e-05 -5.51907e-05 0)
(8.98616e-05 -4.22399e-05 0)
(9.23347e-05 -1.05139e-05 0)
(4.63014e-05 3.03268e-05 0)
(-5.52423e-05 7.44808e-05 0)
(-0.00021452 0.000118535 0)
(-0.00043068 0.000160529 0)
(-0.000700909 0.000199389 0)
(-0.00102119 0.000234574 0)
(-0.00138686 0.000265874 0)
(-0.00179295 0.000293278 0)
(-0.00223447 0.000316898 0)
(-0.00270648 0.000336914 0)
(-0.00320426 0.000353541 0)
(-0.00372328 0.000367006 0)
(-0.00425932 0.000377532 0)
(-0.00480835 0.000385325 0)
(-0.00536662 0.000390569 0)
(-0.00593056 0.000393422 0)
(-0.00649681 0.000394014 0)
(-0.00706215 0.000392447 0)
(-0.00762347 0.000388795 0)
(-0.00817774 0.000383108 0)
(-0.00872202 0.000375416 0)
(-0.00925337 0.00036573 0)
(-0.00976888 0.000354048 0)
(-0.0102657 0.000340359 0)
(-0.0107408 0.000324649 0)
(-0.0111913 0.000306903 0)
(-0.0116144 0.000287112 0)
(-0.0120071 0.000265276 0)
(-0.0123666 0.000241409 0)
(-0.0126899 0.000215542 0)
(-0.0129745 0.000187728 0)
(-0.0132176 0.000158046 0)
(-0.0134167 0.000126598 0)
(-0.0135695 9.35194e-05 0)
(-0.0136739 5.89741e-05 0)
(-0.0137282 2.31584e-05 0)
(-0.0137307 -1.36995e-05 0)
(-0.0136803 -5.13397e-05 0)
(-0.0135761 -8.94721e-05 0)
(-0.013418 -0.000127778 0)
(-0.0132058 -0.000165914 0)
(-0.0129402 -0.000203513 0)
(-0.0126224 -0.000240192 0)
(-0.012254 -0.000275554 0)
(-0.0118371 -0.000309196 0)
(-0.0113746 -0.000340714 0)
(-0.0108696 -0.000369709 0)
(-0.0103261 -0.000395796 0)
(-0.00974828 -0.00041861 0)
(-0.00914106 -0.000437812 0)
(-0.00850964 -0.000453098 0)
(-0.00785964 -0.000464206 0)
(-0.00719701 -0.000470919 0)
(-0.00652793 -0.000473074 0)
(-0.00585879 -0.000470564 0)
(-0.00519605 -0.000463342 0)
(-0.0045462 -0.000451428 0)
(-0.00391565 -0.000434904 0)
(-0.00331063 -0.00041392 0)
(-0.00273713 -0.000388693 0)
(-0.00220078 -0.000359505 0)
(-0.00170674 -0.000326704 0)
(-0.00125968 -0.000290707 0)
(-0.000863573 -0.000251996 0)
(-0.000521688 -0.00021113 0)
(-0.000236423 -0.000168754 0)
(-9.19124e-06 -0.000125614 0)
(0.000159747 -8.25949e-05 0)
(0.000271484 -4.07744e-05 0)
(0.000328748 -1.51223e-06 0)
(0.000336276 3.34084e-05 0)
(0.000301329 6.15675e-05 0)
(0.000234167 7.9642e-05 0)
(0.000148744 8.30482e-05 0)
(6.58091e-05 6.59401e-05 0)
(1.40745e-05 2.52622e-05 0)
(1.50283e-05 -6.56079e-05 0)
(4.27148e-05 -9.02434e-05 0)
(4.70896e-05 -4.66877e-05 0)
(-2.56397e-06 3.71442e-05 0)
(-0.000124549 0.000142663 0)
(-0.000327874 0.000257405 0)
(-0.000615886 0.000373265 0)
(-0.000987913 0.000485121 0)
(-0.00144048 0.000589869 0)
(-0.00196828 0.000685737 0)
(-0.00256488 0.000771838 0)
(-0.00322326 0.000847863 0)
(-0.00393613 0.000913876 0)
(-0.00469622 0.000970179 0)
(-0.00549639 0.0010172 0)
(-0.00632977 0.00105545 0)
(-0.00718978 0.00108543 0)
(-0.00807015 0.00110765 0)
(-0.00896493 0.00112255 0)
(-0.00986845 0.00113053 0)
(-0.0107753 0.00113193 0)
(-0.0116802 0.00112702 0)
(-0.0125783 0.00111599 0)
(-0.0134645 0.001099 0)
(-0.0143341 0.00107614 0)
(-0.0151823 0.00104746 0)
(-0.0160044 0.00101296 0)
(-0.0167958 0.000972663 0)
(-0.0175517 0.000926541 0)
(-0.0182676 0.00087459 0)
(-0.0189388 0.000816818 0)
(-0.0195606 0.00075326 0)
(-0.0201287 0.000683989 0)
(-0.0206386 0.000609129 0)
(-0.021086 0.00052886 0)
(-0.0214669 0.000443432 0)
(-0.0217774 0.000353166 0)
(-0.0220141 0.000258461 0)
(-0.0221738 0.000159802 0)
(-0.0222537 5.77579e-05 0)
(-0.0222516 -4.70189e-05 0)
(-0.0221659 -0.000153791 0)
(-0.0219954 -0.00026174 0)
(-0.0217397 -0.000369977 0)
(-0.0213992 -0.000477543 0)
(-0.0209748 -0.000583426 0)
(-0.0204686 -0.000686565 0)
(-0.0198831 -0.000785874 0)
(-0.0192218 -0.000880246 0)
(-0.0184891 -0.000968579 0)
(-0.0176902 -0.00104979 0)
(-0.0168311 -0.00112283 0)
(-0.0159184 -0.0011867 0)
(-0.0149598 -0.0012405 0)
(-0.0139632 -0.00128341 0)
(-0.0129373 -0.00131472 0)
(-0.0118914 -0.00133384 0)
(-0.010835 -0.00134035 0)
(-0.0097778 -0.00133396 0)
(-0.00872981 -0.00131457 0)
(-0.00770098 -0.00128223 0)
(-0.00670113 -0.00123719 0)
(-0.00573981 -0.00117987 0)
(-0.00482618 -0.00111089 0)
(-0.00396884 -0.00103105 0)
(-0.00317569 -0.000941344 0)
(-0.00245377 -0.000842945 0)
(-0.00180912 -0.000737237 0)
(-0.00124661 -0.00062582 0)
(-0.000769785 -0.000510533 0)
(-0.000380624 -0.000393507 0)
(-7.93434e-05 -0.00027724 0)
(0.000135893 -0.000164709 0)
(0.000269308 -5.95432e-05 0)
(0.000327949 3.37327e-05 0)
(0.000322186 0.000109381 0)
(0.000266071 0.000160112 0)
(0.000177755 0.000176811 0)
(8.32166e-05 0.000148872 0)
(1.91698e-05 6.73231e-05 0)
(9.46992e-06 -8.53472e-05 0)
(1.12367e-05 -9.29247e-05 0)
(-3.73369e-05 3.0381e-06 0)
(-0.00016319 0.000161826 0)
(-0.000383537 0.000355976 0)
(-0.000707603 0.000566101 0)
(-0.00113879 0.000778856 0)
(-0.00167617 0.000985365 0)
(-0.00231564 0.00117993 0)
(-0.00305088 0.00135909 0)
(-0.00387417 0.0015209 0)
(-0.0047769 0.00166452 0)
(-0.00575005 0.00178979 0)
(-0.00678445 0.00189706 0)
(-0.00787104 0.00198695 0)
(-0.00900094 0.00206022 0)
(-0.0101656 0.00211771 0)
(-0.0113568 0.00216026 0)
(-0.0125666 0.00218864 0)
(-0.0137875 0.00220354 0)
(-0.0150122 0.00220557 0)
(-0.0162336 0.0021952 0)
(-0.017445 0.00217281 0)
(-0.0186396 0.00213867 0)
(-0.0198109 0.00209298 0)
(-0.0209526 0.00203584 0)
(-0.0220581 0.00196733 0)
(-0.0231213 0.00188746 0)
(-0.0241358 0.00179626 0)
(-0.0250953 0.00169374 0)
(-0.0259937 0.00157998 0)
(-0.0268249 0.00145509 0)
(-0.0275829 0.00131925 0)
(-0.028262 0.00117274 0)
(-0.0288565 0.00101596 0)
(-0.0293612 0.000849427 0)
(-0.0297711 0.000673791 0)
(-0.0300817 0.000489854 0)
(-0.0302889 0.00029857 0)
(-0.0303893 0.000101051 0)
(-0.0303802 -0.000101436 0)
(-0.0302595 -0.000307471 0)
(-0.0300258 -0.000515489 0)
(-0.029679 -0.000723789 0)
(-0.0292194 -0.000930553 0)
(-0.0286487 -0.00113386 0)
(-0.0279694 -0.00133171 0)
(-0.0271852 -0.00152206 0)
(-0.0263008 -0.00170283 0)
(-0.0253219 -0.00187195 0)
(-0.0242555 -0.0020274 0)
(-0.0231094 -0.00216721 0)
(-0.0218925 -0.00228954 0)
(-0.0206146 -0.00239269 0)
(-0.0192861 -0.00247513 0)
(-0.0179186 -0.00253555 0)
(-0.0165239 -0.00257289 0)
(-0.0151144 -0.00258633 0)
(-0.0137028 -0.00257537 0)
(-0.0123021 -0.00253981 0)
(-0.0109253 -0.00247979 0)
(-0.00958496 -0.00239577 0)
(-0.0082936 -0.00228859 0)
(-0.00706307 -0.00215942 0)
(-0.00590449 -0.0020098 0)
(-0.00482809 -0.00184162 0)
(-0.00384297 -0.00165716 0)
(-0.00295692 -0.00145908 0)
(-0.00217619 -0.00125044 0)
(-0.00150529 -0.00103476 0)
(-0.000946736 -0.000816117 0)
(-0.00050078 -0.000599202 0)
(-0.000165112 -0.000389532 0)
(6.5484e-05 -0.000193662 0)
(0.000199538 -1.94914e-05 0)
(0.000249335 0.000123366 0)
(0.000231144 0.000223203 0)
(0.000165549 0.000265985 0)
(8.142e-05 0.000235568 0)
(1.95376e-05 0.000114484 0)
(1.9693e-06 -8.49529e-05 0)
(-3.04938e-05 -4.61154e-05 0)
(-0.000146576 0.000127086 0)
(-0.00036524 0.000383387 0)
(-0.000700199 0.000687458 0)
(-0.00115949 0.00101353 0)
(-0.00174559 0.00134321 0)
(-0.0024567 0.0016638 0)
(-0.00328786 0.00196683 0)
(-0.00423179 0.00224688 0)
(-0.0052796 0.00250079 0)
(-0.00642142 0.00272696 0)
(-0.00764678 0.00292488 0)
(-0.00894501 0.00309481 0)
(-0.0103054 0.0032375 0)
(-0.0117174 0.00335396 0)
(-0.0131709 0.00344532 0)
(-0.0146558 0.00351277 0)
(-0.0161625 0.00355742 0)
(-0.0176819 0.00358027 0)
(-0.0192048 0.00358221 0)
(-0.0207228 0.00356395 0)
(-0.0222272 0.00352609 0)
(-0.0237098 0.00346905 0)
(-0.0251625 0.00339314 0)
(-0.0265774 0.00329857 0)
(-0.0279463 0.00318546 0)
(-0.0292617 0.00305392 0)
(-0.0305155 0.002904 0)
(-0.0317003 0.00273582 0)
(-0.0328083 0.00254953 0)
(-0.0338322 0.00234538 0)
(-0.0347646 0.00212372 0)
(-0.0355986 0.00188508 0)
(-0.0363274 0.00163012 0)
(-0.0369447 0.00135975 0)
(-0.0374445 0.00107505 0)
(-0.0378214 0.000777349 0)
(-0.0380708 0.000468208 0)
(-0.0381886 0.000149431 0)
(-0.0381715 -0.000176936 0)
(-0.0380173 -0.000508614 0)
(-0.0377246 -0.000843103 0)
(-0.037293 -0.0011777 0)
(-0.0367236 -0.00150951 0)
(-0.0360181 -0.0018355 0)
(-0.03518 -0.00215253 0)
(-0.0342137 -0.00245735 0)
(-0.033125 -0.00274672 0)
(-0.0319211 -0.00301738 0)
(-0.0306101 -0.00326616 0)
(-0.0292017 -0.00349 0)
(-0.0277066 -0.00368601 0)
(-0.0261365 -0.00385153 0)
(-0.0245042 -0.00398418 0)
(-0.0228234 -0.00408193 0)
(-0.0211083 -0.0041431 0)
(-0.0193739 -0.00416645 0)
(-0.0176354 -0.0041512 0)
(-0.0159084 -0.00409705 0)
(-0.0142083 -0.00400423 0)
(-0.0125504 -0.00387351 0)
(-0.0109496 -0.00370619 0)
(-0.00942005 -0.00350416 0)
(-0.0079752 -0.00326987 0)
(-0.00662727 -0.00300635 0)
(-0.00538717 -0.00271721 0)
(-0.00426423 -0.00240669 0)
(-0.00326596 -0.00207968 0)
(-0.0023978 -0.00174175 0)
(-0.00166285 -0.00139931 0)
(-0.00106156 -0.00105967 0)
(-0.000591473 -0.000731308 0)
(-0.000246871 -0.000424073 0)
(-1.84342e-05 -0.000149554 0)
(0.000107131 7.85375e-05 0)
(0.000147259 0.000243939 0)
(0.000123834 0.000327556 0)
(6.67677e-05 0.000307303 0)
(1.71337e-05 0.000156775 0)
(-6.23075e-06 -6.08959e-05 0)
(-7.72647e-05 5.91491e-05 0)
(-0.000269693 0.000337517 0)
(-0.000592063 0.000715159 0)
(-0.00105291 0.00115028 0)
(-0.00165798 0.00161161 0)
(-0.00240798 0.0020762 0)
(-0.00329964 0.00252779 0)
(-0.00432679 0.00295518 0)
(-0.00548102 0.00335099 0)
(-0.00675232 0.0037107 0)
(-0.00812963 0.00403186 0)
(-0.00960126 0.00431353 0)
(-0.0111552 0.00455582 0)
(-0.0127794 0.00475951 0)
(-0.0144619 0.00492581 0)
(-0.016191 0.00505614 0)
(-0.0179553 0.00515199 0)
(-0.0197437 0.00521482 0)
(-0.0215455 0.00524596 0)
(-0.0233501 0.00524657 0)
(-0.0251475 0.00521763 0)
(-0.0269276 0.00515995 0)
(-0.0286807 0.00507413 0)
(-0.0303973 0.00496062 0)
(-0.0320679 0.00481974 0)
(-0.0336832 0.00465172 0)
(-0.035234 0.00445674 0)
(-0.0367111 0.00423497 0)
(-0.0381056 0.00398662 0)
(-0.0394086 0.003712 0)
(-0.0406114 0.00341152 0)
(-0.0417056 0.0030858 0)
(-0.0426831 0.00273565 0)
(-0.0435361 0.00236213 0)
(-0.0442574 0.00196659 0)
(-0.0448401 0.00155065 0)
(-0.0452783 0.0011163 0)
(-0.0455664 0.000665821 0)
(-0.0457001 0.000201852 0)
(-0.0456757 -0.000272635 0)
(-0.0454907 -0.000754347 0)
(-0.0451436 -0.00123968 0)
(-0.0446344 -0.00172475 0)
(-0.043964 -0.00220543 0)
(-0.043135 -0.00267738 0)
(-0.0421513 -0.00313611 0)
(-0.041018 -0.00357703 0)
(-0.0397419 -0.0039955 0)
(-0.0383313 -0.00438693 0)
(-0.0367957 -0.0047468 0)
(-0.0351462 -0.00507079 0)
(-0.033395 -0.00535481 0)
(-0.0315557 -0.00559511 0)
(-0.029643 -0.00578833 0)
(-0.0276723 -0.00593157 0)
(-0.0256602 -0.0060225 0)
(-0.0236237 -0.00605935 0)
(-0.0215803 -0.00604102 0)
(-0.0195478 -0.0059671 0)
(-0.0175438 -0.00583794 0)
(-0.015586 -0.00565462 0)
(-0.0136914 -0.00541904 0)
(-0.0118763 -0.00513389 0)
(-0.010156 -0.00480268 0)
(-0.00854469 -0.00442975 0)
(-0.00705486 -0.00402029 0)
(-0.00569731 -0.00358035 0)
(-0.00448078 -0.0031169 0)
(-0.00341164 -0.00263789 0)
(-0.00249369 -0.00215236 0)
(-0.00172779 -0.00167055 0)
(-0.00111165 -0.00120417 0)
(-0.000639503 -0.000766617 0)
(-0.000301799 -0.000373339 0)
(-8.49314e-05 -4.22473e-05 0)
(2.89297e-05 0.000205815 0)
(6.21099e-05 0.000346707 0)
(4.40468e-05 0.000352511 0)
(1.3238e-05 0.000188829 0)
(-1.45416e-05 -1.17578e-05 0)
(-0.000126123 0.000227736 0)
(-0.000399781 0.000641697 0)
(-0.000832471 0.00116582 0)
(-0.00142654 0.00175339 0)
(-0.00218463 0.00236866 0)
(-0.00310495 0.00298487 0)
(-0.00418225 0.0035826 0)
(-0.00540875 0.00414818 0)
(-0.00677471 0.00467237 0)
(-0.00826889 0.00514934 0)
(-0.00987906 0.0055758 0)
(-0.0115924 0.00595032 0)
(-0.0133956 0.0062728 0)
(-0.0152755 0.00654403 0)
(-0.017219 0.00676539 0)
(-0.0192129 0.00693853 0)
(-0.0212447 0.00706526 0)
(-0.0233019 0.00714734 0)
(-0.0253725 0.00718642 0)
(-0.0274447 0.00718395 0)
(-0.0295069 0.00714118 0)
(-0.0315479 0.00705912 0)
(-0.0335566 0.00693857 0)
(-0.0355222 0.00678014 0)
(-0.0374339 0.00658428 0)
(-0.0392811 0.00635134 0)
(-0.0410533 0.00608163 0)
(-0.0427402 0.00577543 0)
(-0.0443316 0.00543312 0)
(-0.0458176 0.00505518 0)
(-0.0471883 0.00464228 0)
(-0.0484343 0.00419533 0)
(-0.0495465 0.00371552 0)
(-0.0505161 0.00320435 0)
(-0.0513352 0.00266372 0)
(-0.0519963 0.00209592 0)
(-0.0524925 0.00150366 0)
(-0.052818 0.00089007 0)
(-0.0529678 0.000258753 0)
(-0.0529381 -0.00038627 0)
(-0.0527261 -0.00104055 0)
(-0.0523303 -0.00169924 0)
(-0.0517508 -0.00235712 0)
(-0.0509887 -0.00300867 0)
(-0.0500469 -0.0036481 0)
(-0.0489299 -0.00426941 0)
(-0.0476434 -0.00486648 0)
(-0.0461952 -0.00543316 0)
(-0.0445944 -0.00596333 0)
(-0.0428517 -0.006451 0)
(-0.0409793 -0.00689043 0)
(-0.0389909 -0.00727619 0)
(-0.0369016 -0.00760332 0)
(-0.0347277 -0.00786734 0)
(-0.0324864 -0.00806442 0)
(-0.0301961 -0.00819145 0)
(-0.0278757 -0.00824609 0)
(-0.0255447 -0.00822688 0)
(-0.0232229 -0.00813328 0)
(-0.0209299 -0.00796574 0)
(-0.0186854 -0.0077257 0)
(-0.0165084 -0.00741571 0)
(-0.0144171 -0.00703934 0)
(-0.0124287 -0.00660128 0)
(-0.010559 -0.00610733 0)
(-0.00882218 -0.00556443 0)
(-0.00723039 -0.00498063 0)
(-0.00579361 -0.00436522 0)
(-0.00451927 -0.00372873 0)
(-0.00341197 -0.00308306 0)
(-0.00247325 -0.00244162 0)
(-0.00170127 -0.00181952 0)
(-0.00109059 -0.00123387 0)
(-0.000631893 -0.00070405 0)
(-0.000311814 -0.000252189 0)
(-0.000112734 9.63733e-05 0)
(-1.2571e-05 0.000312641 0)
(1.65181e-05 0.000363341 0)
(8.6025e-06 0.000207522 0)
(-2.27076e-05 6.28468e-05 0)
(-0.000175427 0.000461951 0)
(-0.000532567 0.0010437 0)
(-0.00107913 0.00174059 0)
(-0.00181073 0.00250244 0)
(-0.00272633 0.00329013 0)
(-0.00382114 0.00407388 0)
(-0.00508746 0.00483167 0)
(-0.00651558 0.00554773 0)
(-0.00809414 0.00621123 0)
(-0.00981057 0.00681515 0)
(-0.0116514 0.00735543 0)
(-0.0136026 0.00783017 0)
(-0.0156499 0.00823908 0)
(-0.0177788 0.00858295 0)
(-0.0199752 0.00886327 0)
(-0.022225 0.00908195 0)
(-0.0245142 0.00924106 0)
(-0.0268294 0.00934267 0)
(-0.0291573 0.00938872 0)
(-0.031485 0.00938096 0)
(-0.0337997 0.00932088 0)
(-0.036089 0.00920973 0)
(-0.0383407 0.00904849 0)
(-0.0405427 0.00883794 0)
(-0.0426831 0.00857868 0)
(-0.0447502 0.00827121 0)
(-0.0467323 0.00791596 0)
(-0.048618 0.0075134 0)
(-0.0503961 0.00706408 0)
(-0.0520556 0.00656872 0)
(-0.0535856 0.00602829 0)
(-0.0549758 0.00544404 0)
(-0.0562162 0.0048176 0)
(-0.0572974 0.00415101 0)
(-0.0582104 0.0034468 0)
(-0.0589471 0.00270797 0)
(-0.0595003 0.00193808 0)
(-0.0598635 0.00114121 0)
(-0.0600313 0.000322025 0)
(-0.0599996 -0.000514288 0)
(-0.0597656 -0.00136201 0)
(-0.0593276 -0.00221491 0)
(-0.0586855 -0.00306633 0)
(-0.057841 -0.00390922 0)
(-0.0567971 -0.00473617 0)
(-0.0555586 -0.00553958 0)
(-0.054132 -0.00631164 0)
(-0.0525255 -0.00704455 0)
(-0.0507492 -0.00773052 0)
(-0.0488146 -0.00836196 0)
(-0.0467351 -0.00893158 0)
(-0.0445257 -0.0094325 0)
(-0.0422025 -0.00985838 0)
(-0.0397834 -0.0102036 0)
(-0.0372872 -0.0104632 0)
(-0.0347337 -0.0106333 0)
(-0.0321437 -0.0107108 0)
(-0.0295384 -0.010694 0)
(-0.0269394 -0.010582 0)
(-0.0243683 -0.0103755 0)
(-0.0218464 -0.0100762 0)
(-0.0193948 -0.00968744 0)
(-0.0170333 -0.00921366 0)
(-0.014781 -0.00866083 0)
(-0.0126553 -0.00803634 0)
(-0.010672 -0.00734896 0)
(-0.00884465 -0.00660895 0)
(-0.00718453 -0.00582804 0)
(-0.00570023 -0.00501953 0)
(-0.00439739 -0.00419836 0)
(-0.00327837 -0.00338122 0)
(-0.00234211 -0.00258679 0)
(-0.00158382 -0.00183594 0)
(-0.000994819 -0.00115204 0)
(-0.000562397 -0.000561361 0)
(-0.000269638 -9.359e-05 0)
(-9.52352e-05 0.000217757 0)
(-1.3671e-05 0.000334681 0)
(3.66762e-06 0.000211106 0)
(-3.06254e-05 0.000162734 0)
(-0.000224285 0.000762459 0)
(-0.000665457 0.00154529 0)
(-0.00132728 0.00244212 0)
(-0.00219844 0.00340057 0)
(-0.00327387 0.00437922 0)
(-0.00454542 0.00534605 0)
(-0.00600257 0.00627709 0)
(-0.00763339 0.00715494 0)
(-0.00942471 0.00796745 0)
(-0.0113624 0.00870667 0)
(-0.0134317 0.0093679 0)
(-0.0156174 0.00994888 0)
(-0.0179042 0.0104491 0)
(-0.0202765 0.0108695 0)
(-0.0227191 0.0112116 0)
(-0.0252169 0.0114776 0)
(-0.0277551 0.0116698 0)
(-0.030319 0.0117905 0)
(-0.0328945 0.011842 0)
(-0.0354674 0.0118264 0)
(-0.0380242 0.0117453 0)
(-0.0405513 0.0116002 0)
(-0.0430353 0.0113923 0)
(-0.0454633 0.0111226 0)
(-0.0478222 0.0107918 0)
(-0.0500993 0.0104006 0)
(-0.0522819 0.00994957 0)
(-0.0543577 0.00943935 0)
(-0.0563144 0.00887074 0)
(-0.0581401 0.00824473 0)
(-0.0598231 0.0075626 0)
(-0.0613523 0.00682604 0)
(-0.0627167 0.00603717 0)
(-0.0639062 0.00519861 0)
(-0.0649113 0.00431359 0)
(-0.0657231 0.00338592 0)
(-0.066334 0.00242007 0)
(-0.0667368 0.00142116 0)
(-0.0669261 0.000395011 0)
(-0.0668972 -0.000651931 0)
(-0.066647 -0.00171257 0)
(-0.066174 -0.0027792 0)
(-0.0654779 -0.0038436 0)
(-0.0645605 -0.00489707 0)
(-0.063425 -0.0059305 0)
(-0.0620766 -0.00693452 0)
(-0.060522 -0.00789955 0)
(-0.0587702 -0.00881598 0)
(-0.0568317 -0.00967427 0)
(-0.054719 -0.0104651 0)
(-0.0524463 -0.0111794 0)
(-0.0500294 -0.0118089 0)
(-0.047486 -0.0123457 0)
(-0.0448348 -0.0127828 0)
(-0.0420962 -0.0131142 0)
(-0.0392915 -0.013335 0)
(-0.0364429 -0.0134415 0)
(-0.0335732 -0.0134313 0)
(-0.0307058 -0.0133036 0)
(-0.0278639 -0.0130588 0)
(-0.0250708 -0.0126993 0)
(-0.022349 -0.0122289 0)
(-0.0197205 -0.0116532 0)
(-0.0172059 -0.0109793 0)
(-0.0148243 -0.0102164 0)
(-0.012593 -0.00937517 0)
(-0.0105272 -0.00846814 0)
(-0.0086396 -0.00750965 0)
(-0.00694005 -0.00651588 0)
(-0.00543538 -0.00550491 0)
(-0.00412907 -0.00449686 0)
(-0.00302104 -0.00351403 0)
(-0.00210746 -0.0025811 0)
(-0.00138062 -0.00172541 0)
(-0.000828799 -0.000977312 0)
(-0.000436154 -0.000370623 0)
(-0.000182527 5.69931e-05 0)
(-4.51599e-05 0.000263449 0)
(-1.32131e-06 0.000198735 0)
(-3.82618e-05 0.000287426 0)
(-0.00027222 0.00112891 0)
(-0.000796885 0.00214667 0)
(-0.00157386 0.00327119 0)
(-0.00258491 0.00444899 0)
(-0.00382078 0.00563727 0)
(-0.00526969 0.0068026 0)
(-0.00691811 0.00791967 0)
(-0.0087516 0.00896992 0)
(-0.010755 0.00994032 0)
(-0.0129126 0.0108222 0)
(-0.015208 0.0116105 0)
(-0.017625 0.0123027 0)
(-0.020147 0.0128982 0)
(-0.0227576 0.0133979 0)
(-0.0254405 0.0138038 0)
(-0.0281797 0.014118 0)
(-0.0309594 0.0143432 0)
(-0.0337642 0.0144821 0)
(-0.0365788 0.0145372 0)
(-0.0393885 0.0145107 0)
(-0.0421784 0.0144047 0)
(-0.0449343 0.0142209 0)
(-0.0476419 0.0139605 0)
(-0.0502872 0.0136248 0)
(-0.0528562 0.0132147 0)
(-0.0553354 0.012731 0)
(-0.0577112 0.0121745 0)
(-0.0599703 0.011546 0)
(-0.0620996 0.0108465 0)
(-0.0640864 0.0100775 0)
(-0.0659181 0.00924049 0)
(-0.0675828 0.00833763 0)
(-0.069069 0.00737161 0)
(-0.0703657 0.00634569 0)
(-0.0714629 0.00526384 0)
(-0.0723511 0.00413074 0)
(-0.073022 0.00295185 0)
(-0.0734682 0.0017334 0)
(-0.0736836 0.000482426 0)
(-0.0736634 -0.000793269 0)
(-0.0734042 -0.00208513 0)
(-0.0729042 -0.00338391 0)
(-0.0721632 -0.0046797 0)
(-0.0711829 -0.00596207 0)
(-0.0699665 -0.00722011 0)
(-0.0685194 -0.00844257 0)
(-0.0668487 -0.00961799 0)
(-0.0649637 -0.0107349 0)
(-0.0628754 -0.0117817 0)
(-0.0605969 -0.0127474 0)
(-0.0581432 -0.0136212 0)
(-0.0555309 -0.0143928 0)
(-0.0527786 -0.015053 0)
(-0.0499063 -0.0155934 0)
(-0.0469355 -0.0160066 0)
(-0.0438887 -0.0162867 0)
(-0.0407896 -0.0164292 0)
(-0.0376626 -0.0164312 0)
(-0.0345326 -0.0162914 0)
(-0.0314246 -0.0160106 0)
(-0.0283634 -0.0155912 0)
(-0.0253735 -0.0150378 0)
(-0.0224785 -0.0143569 0)
(-0.0197007 -0.0135571 0)
(-0.0170611 -0.0126493 0)
(-0.0145787 -0.011646 0)
(-0.0122703 -0.0105623 0)
(-0.01015 -0.0094152 0)
(-0.00822924 -0.00822374 0)
(-0.00651625 -0.00700932 0)
(-0.00501582 -0.00579552 0)
(-0.00372911 -0.00460834 0)
(-0.00265351 -0.00347629 0)
(-0.00178252 -0.00243065 0)
(-0.00110572 -0.00150576 0)
(-0.00060857 -0.000739359 0)
(-0.000272316 -0.000172932 0)
(-7.71387e-05 0.000147902 0)
(-6.23735e-06 0.000170093 0)
(-4.56155e-05 0.000436304 0)
(-0.000318987 0.00156033 0)
(-0.000925914 0.00284699 0)
(-0.00181691 0.00422726 0)
(-0.00296694 0.00564744 0)
(-0.00436251 0.00706419 0)
(-0.00598812 0.00844339 0)
(-0.007827 0.00975901 0)
(-0.00986213 0.0109919 0)
(-0.0120762 0.0121285 0)
(-0.0144515 0.0131597 0)
(-0.0169705 0.0140804 0)
(-0.0196155 0.0148879 0)
(-0.0223687 0.0155818 0)
(-0.0252128 0.016163 0)
(-0.0281306 0.0166337 0)
(-0.0311052 0.0169965 0)
(-0.03412 0.0172543 0)
(-0.0371587 0.01741 0)
(-0.0402054 0.0174664 0)
(-0.0432443 0.017426 0)
(-0.04626 0.0172912 0)
(-0.0492373 0.0170637 0)
(-0.0521611 0.0167452 0)
(-0.0550166 0.016337 0)
(-0.0577891 0.0158401 0)
(-0.0604642 0.0152556 0)
(-0.0630275 0.0145845 0)
(-0.0654649 0.0138278 0)
(-0.0677626 0.0129869 0)
(-0.069907 0.0120633 0)
(-0.071885 0.0110591 0)
(-0.0736838 0.009977 0)
(-0.0752913 0.00882017 0)
(-0.076696 0.0075926 0)
(-0.0778869 0.00629903 0)
(-0.0788543 0.00494507 0)
(-0.0795892 0.00353721 0)
(-0.0800838 0.00208284 0)
(-0.0803315 0.000590296 0)
(-0.0803272 -0.000931227 0)
(-0.0800671 -0.00247164 0)
(-0.0795491 -0.00402006 0)
(-0.078773 -0.00556486 0)
(-0.0777401 -0.00709376 0)
(-0.0764537 -0.00859396 0)
(-0.0749193 -0.0100523 0)
(-0.0731441 -0.0114552 0)
(-0.0711376 -0.0127893 0)
(-0.0689111 -0.014041 0)
(-0.0664783 -0.0151973 0)
(-0.0638546 -0.0162454 0)
(-0.0610574 -0.0171734 0)
(-0.0581062 -0.0179703 0)
(-0.0550218 -0.018626 0)
(-0.0518267 -0.0191319 0)
(-0.0485449 -0.0194809 0)
(-0.0452012 -0.0196676 0)
(-0.0418216 -0.0196884 0)
(-0.0384325 -0.0195417 0)
(-0.0350604 -0.0192281 0)
(-0.031732 -0.0187505 0)
(-0.0284736 -0.0181139 0)
(-0.0253104 -0.017326 0)
(-0.0222667 -0.0163967 0)
(-0.0193653 -0.0153384 0)
(-0.0166269 -0.0141661 0)
(-0.0140702 -0.0128969 0)
(-0.0117111 -0.0115507 0)
(-0.0095625 -0.0101496 0)
(-0.00763433 -0.0087183 0)
(-0.00593289 -0.00728396 0)
(-0.00446084 -0.00587628 0)
(-0.003217 -0.00452762 0)
(-0.00219633 -0.00327318 0)
(-0.00138988 -0.00215119 0)
(-0.000784645 -0.00120317 0)
(-0.000363361 -0.000474154 0)
(-0.000109169 -1.28767e-05 0)
(-1.10246e-05 0.000125161 0)
(-5.26969e-05 0.000608687 0)
(-0.000364462 0.00205539 0)
(-0.00105199 0.00364473 0)
(-0.00205515 0.00530883 0)
(-0.00334233 0.00699454 0)
(-0.00489584 0.00865868 0)
(-0.0066964 0.0102671 0)
(-0.00872395 0.0117937 0)
(-0.0109587 0.0132191 0)
(-0.0133811 0.0145298 0)
(-0.0159717 0.0157166 0)
(-0.0187112 0.0167745 0)
(-0.0215805 0.0177009 0)
(-0.0245609 0.0184956 0)
(-0.027634 0.0191599 0)
(-0.0307817 0.0196962 0)
(-0.0339863 0.0201074 0)
(-0.0372303 0.0203968 0)
(-0.0404969 0.0205675 0)
(-0.0437694 0.0206228 0)
(-0.0470312 0.0205654 0)
(-0.0502663 0.0203977 0)
(-0.0534587 0.020122 0)
(-0.0565926 0.0197399 0)
(-0.0596527 0.0192529 0)
(-0.0626234 0.0186624 0)
(-0.0654896 0.0179694 0)
(-0.0682363 0.0171752 0)
(-0.0708486 0.0162811 0)
(-0.073312 0.0152887 0)
(-0.0756124 0.0142 0)
(-0.0777358 0.0130174 0)
(-0.079669 0.011744 0)
(-0.081399 0.0103838 0)
(-0.0829137 0.00894136 0)
(-0.0842018 0.00742227 0)
(-0.0852527 0.0058331 0)
(-0.0860571 0.0041814 0)
(-0.0866065 0.00247579 0)
(-0.0868939 0.00072589 0)
(-0.0869138 -0.00105762 0)
(-0.0866619 -0.00286308 0)
(-0.0861359 -0.00467792 0)
(-0.085335 -0.0064887 0)
(-0.0842605 -0.00828126 0)
(-0.0829155 -0.0100408 0)
(-0.0813053 -0.0117521 0)
(-0.0794372 -0.0133997 0)
(-0.0773206 -0.0149678 0)
(-0.0749672 -0.016441 0)
(-0.0723908 -0.0178039 0)
(-0.0696073 -0.019042 0)
(-0.0666348 -0.0201412 0)
(-0.0634931 -0.0210887 0)
(-0.0602042 -0.0218729 0)
(-0.0567915 -0.0224835 0)
(-0.05328 -0.0229122 0)
(-0.0496958 -0.0231525 0)
(-0.0460664 -0.0232 0)
(-0.0424195 -0.0230527 0)
(-0.0387836 -0.022711 0)
(-0.0351868 -0.0221781 0)
(-0.0316574 -0.0214595 0)
(-0.0282225 -0.0205638 0)
(-0.0249083 -0.0195023 0)
(-0.0217395 -0.0182891 0)
(-0.018739 -0.0169411 0)
(-0.0159271 -0.0154782 0)
(-0.0133218 -0.0139229 0)
(-0.010938 -0.0123005 0)
(-0.00878724 -0.0106389 0)
(-0.00687763 -0.00896897 0)
(-0.00521352 -0.00732417 0)
(-0.0037954 -0.00574074 0)
(-0.00261986 -0.00425778 0)
(-0.00167961 -0.00291735 0)
(-0.000963252 -0.00176469 0)
(-0.000455069 -0.00084815 0)
(-0.000141067 -0.000219365 0)
(-1.56701e-05 6.40536e-05 0)
(-5.95195e-05 0.000803867 0)
(-0.000408589 0.00261253 0)
(-0.00117476 0.00453789 0)
(-0.00228774 0.00651375 0)
(-0.00370957 0.00848808 0)
(-0.00541845 0.0104185 0)
(-0.00739135 0.0122715 0)
(-0.00960489 0.0140213 0)
(-0.0120365 0.0156491 0)
(-0.0146643 0.0171415 0)
(-0.0174669 0.0184898 0)
(-0.0204233 0.0196892 0)
(-0.0235132 0.0207377 0)
(-0.0267166 0.0216353 0)
(-0.0300141 0.0223838 0)
(-0.0333868 0.022986 0)
(-0.0368162 0.0234452 0)
(-0.0402842 0.023765 0)
(-0.0437732 0.023949 0)
(-0.0472658 0.0240006 0)
(-0.050745 0.0239229 0)
(-0.0541939 0.0237187 0)
(-0.0575962 0.0233901 0)
(-0.0609355 0.0229393 0)
(-0.0641955 0.0223678 0)
(-0.0673603 0.0216771 0)
(-0.0704142 0.0208685 0)
(-0.0733414 0.0199435 0)
(-0.0761266 0.0189036 0)
(-0.0787546 0.0177507 0)
(-0.0812105 0.0164871 0)
(-0.08348 0.0151157 0)
(-0.0855491 0.0136402 0)
(-0.0874042 0.012065 0)
(-0.0890327 0.0103955 0)
(-0.0904227 0.00863814 0)
(-0.0915629 0.00680044 0)
(-0.0924434 0.00489105 0)
(-0.0930554 0.00291979 0)
(-0.0933912 0.000897662 0)
(-0.0934446 -0.00116318 0)
(-0.0932111 -0.00324946 0)
(-0.0926877 -0.00534688 0)
(-0.0918734 -0.00744015 0)
(-0.0907689 -0.00951316 0)
(-0.0893772 -0.0115491 0)
(-0.087703 -0.0135306 0)
(-0.0857537 -0.0154399 0)
(-0.0835386 -0.0172592 0)
(-0.0810693 -0.0189708 0)
(-0.0783598 -0.0205572 0)
(-0.0754263 -0.0220014 0)
(-0.0722871 -0.0232876 0)
(-0.0689629 -0.0244009 0)
(-0.065476 -0.0253277 0)
(-0.061851 -0.0260562 0)
(-0.0581138 -0.0265766 0)
(-0.0542919 -0.0268812 0)
(-0.0504138 -0.0269648 0)
(-0.0465091 -0.0268246 0)
(-0.0426077 -0.0264608 0)
(-0.0387398 -0.0258767 0)
(-0.0349352 -0.0250783 0)
(-0.0312234 -0.0240751 0)
(-0.0276325 -0.0228797 0)
(-0.0241894 -0.0215078 0)
(-0.0209191 -0.0199785 0)
(-0.017844 -0.018314 0)
(-0.0149843 -0.0165398 0)
(-0.0123569 -0.0146842 0)
(-0.00997539 -0.0127786 0)
(-0.00784993 -0.0108576 0)
(-0.00598674 -0.00895844 0)
(-0.00438816 -0.00712122 0)
(-0.00305256 -0.005389 0)
(-0.00197444 -0.00380771 0)
(-0.0011441 -0.00242619 0)
(-0.000547316 -0.00129611 0)
(-0.000172823 -0.000471866 0)
(-2.01874e-05 -1.30832e-05 0)
(-6.60953e-05 0.00102113 0)
(-0.000451337 0.00323006 0)
(-0.00129401 0.00552416 0)
(-0.00251409 0.00783934 0)
(-0.00406755 0.0101252 0)
(-0.00592861 0.0123407 0)
(-0.00807052 0.0144535 0)
(-0.0104666 0.0164388 0)
(-0.0130916 0.0182785 0)
(-0.0159211 0.0199601 0)
(-0.0189318 0.0214756 0)
(-0.0221012 0.0228207 0)
(-0.0254074 0.0239941 0)
(-0.0288294 0.0249965 0)
(-0.0323467 0.0258301 0)
(-0.0359396 0.0264983 0)
(-0.0395889 0.0270048 0)
(-0.0432758 0.0273538 0)
(-0.0469821 0.0275491 0)
(-0.0506897 0.0275946 0)
(-0.0543813 0.0274935 0)
(-0.0580395 0.027249 0)
(-0.0616471 0.0268635 0)
(-0.0651875 0.0263392 0)
(-0.0686439 0.0256778 0)
(-0.0719998 0.0248811 0)
(-0.0752389 0.0239505 0)
(-0.078345 0.0228877 0)
(-0.0813021 0.0216944 0)
(-0.0840946 0.0203727 0)
(-0.0867071 0.0189255 0)
(-0.0891245 0.017356 0)
(-0.0913323 0.0156683 0)
(-0.0933165 0.0138676 0)
(-0.0950637 0.0119599 0)
(-0.0965614 0.00995252 0)
(-0.0977979 0.00785397 0)
(-0.0987626 0.00567398 0)
(-0.099446 0.0034236 0)
(-0.0998398 0.00111519 0)
(-0.0999373 -0.0012376 0)
(-0.0997333 -0.00361986 0)
(-0.0992243 -0.00601552 0)
(-0.0984086 -0.00840741 0)
(-0.0972865 -0.0107774 0)
(-0.0958603 -0.0131066 0)
(-0.0941347 -0.0153755 0)
(-0.0921163 -0.0175641 0)
(-0.0898144 -0.0196522 0)
(-0.0872403 -0.0216198 0)
(-0.0844082 -0.023447 0)
(-0.0813341 -0.0251147 0)
(-0.0780368 -0.0266046 0)
(-0.0745372 -0.0278998 0)
(-0.0708585 -0.0289848 0)