/*--------------------------------*- C++ -*----------------------------------*\
  =========                 |
  \\      /  F ield         | OpenFOAM: The Open Source CFD Toolbox
   \\    /   O peration     | Website:  https://openfoam.org
    \\  /    A nd           | Version:  7
     \\/     M anipulation  |
\*---------------------------------------------------------------------------*/
FoamFile
{
    version     2.0;
    format      ascii;
    class       volScalarField;
    location    "1.8";
    object      p;
}
// * * * * * * * * * * * * * * * * * * * * * * * * * * * * * * * * * * * * * //

dimensions      [0 2 -2 0 0 0 0];

internalField   nonuniform List<scalar> 
6400
(
-1.58452e-08
9.12271e-06
-3.91854e-06
-4.08125e-05
-9.87014e-05
-0.0001743
-0.000264357
-0.000366099
-0.000477363
-0.000596584
-0.00072268
-0.00085491
-0.000992743
-0.00113575
-0.0012835
-0.0014355
-0.00159111
-0.00174951
-0.0019097
-0.00207043
-0.00223023
-0.00238741
-0.00254002
-0.00268593
-0.00282279
-0.0029481
-0.00305924
-0.00315353
-0.00322826
-0.00328082
-0.00330876
-0.00330985
-0.00328226
-0.00322461
-0.00313607
-0.00301652
-0.0028666
-0.0026878
-0.0024825
-0.00225402
-0.00200658
-0.00174547
-0.00147653
-0.00120644
-0.000942387
-0.000691886
-0.000462541
-0.000261795
-9.66617e-05
2.65531e-05
0.000102506
0.000127051
9.74287e-05
1.24033e-05
-0.000127663
-0.000320809
-0.000563539
-0.00085097
-0.00117704
-0.0015347
-0.00191628
-0.00231376
-0.00271903
-0.00312424
-0.00352196
-0.00390547
-0.00426879
-0.00460685
-0.00491542
-0.00519111
-0.00543128
-0.00563389
-0.00579744
-0.00592092
-0.0060039
-0.00604688
-0.00605225
-0.00602604
-0.00597989
-0.00593123
-9.5794e-06
-5.21498e-07
-1.40067e-05
-4.82842e-05
-0.000100208
-0.000167606
-0.000248197
-0.000339934
-0.000441065
-0.000550248
-0.000666479
-0.000789017
-0.000917288
-0.0010508
-0.00118908
-0.0013316
-0.00147772
-0.00162666
-0.0017775
-0.00192908
-0.00208008
-0.00222894
-0.00237394
-0.00251311
-0.00264434
-0.00276537
-0.00287379
-0.00296716
-0.00304299
-0.00309888
-0.00313253
-0.00314189
-0.00312522
-0.00308117
-0.00300895
-0.00290835
-0.0027799
-0.00262488
-0.00244544
-0.00224458
-0.0020262
-0.00179485
-0.00155616
-0.0013162
-0.0010816
-0.000859301
-0.000656325
-0.000479564
-0.000335507
-0.000229988
-0.000167941
-0.000153186
-0.000188245
-0.000274222
-0.000410732
-0.000595905
-0.000826452
-0.0010978
-0.00140429
-0.0017394
-0.00209602
-0.00246672
-0.00284407
-0.00322083
-0.00359024
-0.00394615
-0.00428315
-0.00459666
-0.0048829
-0.00513891
-0.00536242
-0.00555185
-0.00570615
-0.00582486
-0.00590813
-0.00595697
-0.00597392
-0.0059637
-0.00593123
-0.00588251
3.50237e-06
1.2296e-05
-1.79536e-06
-3.51359e-05
-8.40815e-05
-0.0001468
-0.000221555
-0.000306634
-0.000400605
-0.000502369
-0.000611065
-0.000726038
-0.000846766
-0.000972792
-0.00110367
-0.0012389
-0.00137791
-0.00151997
-0.00166424
-0.00180967
-0.00195507
-0.00209901
-0.0022399
-0.00237596
-0.0025052
-0.00262553
-0.00273468
-0.00283034
-0.00291012
-0.00297171
-0.00301286
-0.00303153
-0.00302596
-0.00299475
-0.00293699
-0.00285235
-0.00274116
-0.00260451
-0.00244428
-0.00226321
-0.00206484
-0.00185364
-0.00163474
-0.00141397
-0.00119766
-0.000992465
-0.00080516
-0.000642398
-0.000510462
-0.000415007
-0.000360822
-0.000351615
-0.000389832
-0.000476532
-0.000611325
-0.000792371
-0.00101645
-0.0012791
-0.0015748
-0.00189723
-0.0022395
-0.00259446
-0.00295496
-0.00331412
-0.00366551
-0.00400337
-0.00432267
-0.00461921
-0.00488962
-0.00513131
-0.00534243
-0.00552174
-0.0056686
-0.00578284
-0.00586479
-0.00591535
-0.00593653
-0.0059314
-0.00589893
-0.00583643
4.20039e-05
4.65231e-05
2.96763e-05
-4.66562e-06
-5.29132e-05
-0.000113433
-0.000184614
-0.000265119
-0.000353802
-0.000449789
-0.000552415
-0.000661174
-0.000775664
-0.00089553
-0.00102041
-0.0011499
-0.0012835
-0.00142059
-0.00156042
-0.00170208
-0.00184446
-0.0019863
-0.00212611
-0.00226222
-0.00239279
-0.00251579
-0.00262905
-0.00273028
-0.00281715
-0.00288729
-0.00293842
-0.00296841
-0.00297536
-0.00295773
-0.00291441
-0.00284487
-0.0027492
-0.00262824
-0.00248364
-0.00231792
-0.00213436
-0.00193726
-0.00173156
-0.00152293
-0.0013176
-0.00112214
-0.000943274
-0.000787636
-0.000661514
-0.00057059
-0.000519691
-0.000512568
-0.000551709
-0.000638211
-0.000771707
-0.000950369
-0.00117098
-0.00142906
-0.00171909
-0.00203473
-0.00236912
-0.00271513
-0.0030657
-0.00341404
-0.00375391
-0.00407974
-0.00438677
-0.00467111
-0.00492972
-0.00516038
-0.00536159
-0.00553251
-0.00567278
-0.00578245
-0.00586185
-0.00591158
-0.00593291
-0.00592745
-0.0058897
-0.0058111
0.000104056
9.95534e-05
7.71956e-05
3.9906e-05
-9.35366e-06
-6.91423e-05
-0.000138152
-0.00021531
-0.000299782
-0.000390961
-0.000488414
-0.000591834
-0.000700989
-0.000815667
-0.000935638
-0.00106062
-0.00119024
-0.001324
-0.00146128
-0.0016013
-0.00174308
-0.00188546
-0.0020271
-0.00216642
-0.00230165
-0.00243081
-0.00255176
-0.00266219
-0.00275969
-0.00284182
-0.00290615
-0.00295037
-0.00297237
-0.00297037
-0.002943
-0.00288944
-0.00280953
-0.00270382
-0.00257374
-0.00242158
-0.00225039
-0.00206434
-0.00186826
-0.00166776
-0.00146905
-0.00127874
-0.00110362
-0.000950435
-0.00082561
-0.000734984
-0.000683546
-0.000675204
-0.000712588
-0.000796909
-0.000927878
-0.00110371
-0.00132117
-0.00157576
-0.00186186
-0.00217306
-0.00250237
-0.00284258
-0.00318661
-0.00352758
-0.00385931
-0.00417634
-0.00447406
-0.0047488
-0.00499782
-0.00521923
-0.00541188
-0.00557527
-0.00570934
-0.00581434
-0.00589062
-0.00593849
-0.00595868
-0.00595172
-0.00590918
-0.0058189
0.000186767
0.000169235
0.000138834
9.69113e-05
4.50351e-05
-1.54436e-05
-8.35278e-05
-0.000158495
-0.000239849
-0.000327285
-0.000420639
-0.00051984
-0.000624861
-0.000735678
-0.000852229
-0.000974391
-0.00110194
-0.00123455
-0.00137173
-0.00151284
-0.00165705
-0.00180331
-0.00195038
-0.00209674
-0.00224067
-0.0023802
-0.00251313
-0.00263705
-0.00274944
-0.00284766
-0.00292904
-0.00299101
-0.00303118
-0.00304742
-0.00303807
-0.00300197
-0.00293862
-0.00284831
-0.00273219
-0.00259243
-0.0024317
-0.00225421
-0.00206469
-0.00186874
-0.00167264
-0.00148311
-0.0013071
-0.00115159
-0.00102323
-0.000928133
-0.000871575
-0.000857735
-0.000889491
-0.000968268
-0.00109394
-0.00126483
-0.00147774
-0.00172813
-0.00201031
-0.00231771
-0.0026432
-0.00297939
-0.00331897
-0.00365501
-0.00398119
-0.00429203
-0.00458299
-0.00485053
-0.00509211
-0.0053061
-0.00549169
-0.00564866
-0.00577726
-0.00587793
-0.0059511
-0.00599694
-0.00601583
-0.00600763
-0.00596236
-0.00586607
0.000286467
0.000252792
0.000212218
0.000164042
0.000108238
4.58527e-05
-2.24398e-05
-9.63241e-05
-0.000175682
-0.000260545
-0.000351056
-0.000447411
-0.000549825
-0.000658491
-0.000773554
-0.00089508
-0.00102303
-0.00115725
-0.00129742
-0.00144305
-0.00159344
-0.00174766
-0.00190453
-0.00206259
-0.00222009
-0.002375
-0.00252502
-0.00266757
-0.00279989
-0.00291906
-0.00302212
-0.00310613
-0.00316832
-0.0032062
-0.00321768
-0.00320124
-0.00315603
-0.00308199
-0.00298007
-0.0028524
-0.00270073
-0.00252985
-0.00234431
-0.00214972
-0.00195245
-0.00175939
-0.00157774
-0.00141475
-0.00127744
-0.0011723
-0.00110499
-0.0010801
-0.00110087
-0.00116909
-0.0012849
-0.00144682
-0.00165181
-0.00189534
-0.00217168
-0.00247413
-0.00279536
-0.00312773
-0.00346371
-0.00379611
-0.00411843
-0.00442503
-0.00471132
-0.00497378
-0.00520997
-0.00541846
-0.00559865
-0.00575061
-0.00587484
-0.00597202
-0.00604268
-0.00608701
-0.00610521
-0.00609684
-0.0060514
-0.00595453
0.000399135
0.000346765
0.000294272
0.000238577
0.000177747
0.000112445
4.29559e-05
-3.08741e-05
-0.000109356
-0.000192901
-0.000281984
-0.000377103
-0.000478745
-0.000587351
-0.0007033
-0.000826876
-0.000958253
-0.00109747
-0.00124438
-0.00139867
-0.00155976
-0.00172681
-0.0018987
-0.00207396
-0.00225077
-0.00242699
-0.0026001
-0.0027673
-0.00292551
-0.00307144
-0.00320173
-0.00331301
-0.00340205
-0.0034659
-0.00350203
-0.00350847
-0.00348399
-0.00342816
-0.00334168
-0.00322663
-0.00308345
-0.00291801
-0.00273453
-0.00253859
-0.00233666
-0.00213584
-0.00194361
-0.00176759
-0.00161522
-0.00149347
-0.00140853
-0.00136553
-0.00136824
-0.00141895
-0.00151825
-0.00166503
-0.00185648
-0.00208825
-0.00235463
-0.00264885
-0.0029634
-0.0032904
-0.00362201
-0.00395072
-0.00426975
-0.00457319
-0.00485627
-0.00511535
-0.00534799
-0.00555283
-0.00572941
-0.00587801
-0.00599935
-0.00609431
-0.0061636
-0.00620752
-0.00622626
-0.00621929
-0.00617636
-0.00608363
0.000520385
0.000447258
0.00038147
0.000317272
0.000250553
0.000181509
0.000109954
3.51934e-05
-4.35679e-05
-0.000127158
-0.00021642
-0.000312185
-0.000415234
-0.000526287
-0.00064598
-0.000774845
-0.000913286
-0.00106156
-0.00121971
-0.00138758
-0.00156471
-0.00175036
-0.00194338
-0.00214228
-0.00234511
-0.00254952
-0.00275275
-0.00295164
-0.00314271
-0.00332226
-0.0034864
-0.00363127
-0.0037531
-0.00384841
-0.00391415
-0.00394785
-0.00394783
-0.00391328
-0.00384418
-0.0037411
-0.00360898
-0.00344905
-0.00326642
-0.00306689
-0.00285707
-0.00264425
-0.00243624
-0.00224106
-0.00206666
-0.0019206
-0.00180972
-0.00173984
-0.00171548
-0.00173959
-0.00181342
-0.00193643
-0.00210626
-0.00231888
-0.00256877
-0.00284918
-0.00315249
-0.0034706
-0.00379534
-0.00411885
-0.00443394
-0.00473433
-0.00501492
-0.00527185
-0.00550252
-0.00570549
-0.00588035
-0.00602746
-0.00614771
-0.00624216
-0.0063117
-0.00635678
-0.00637768
-0.00637391
-0.00633601
-0.00625126
0.000645599
0.000549968
0.000469817
0.000396378
0.000323117
0.000249656
0.000175244
9.85715e-05
1.8306e-05
-6.68408e-05
-0.000158116
-0.000256707
-0.000363721
-0.000480177
-0.000606997
-0.000744981
-0.000894788
-0.0010569
-0.00123156
-0.00141878
-0.0016182
-0.00182911
-0.00205037
-0.00228034
-0.00251692
-0.00275748
-0.00299891
-0.00323764
-0.00346971
-0.00369088
-0.0038967
-0.00408272
-0.00424455
-0.00437811
-0.00447974
-0.00454643
-0.00457594
-0.00456696
-0.00451909
-0.00443286
-0.00431135
-0.00415709
-0.00397471
-0.00376985
-0.00354916
-0.00332012
-0.00309085
-0.00286981
-0.00266552
-0.00248623
-0.00233958
-0.00223226
-0.0021697
-0.0021558
-0.00219269
-0.00228067
-0.00241808
-0.00260145
-0.00282564
-0.00308409
-0.00336921
-0.00367273
-0.00398618
-0.00430128
-0.00461038
-0.00490673
-0.00518475
-0.00544018
-0.0056701
-0.00587285
-0.0060479
-0.00619559
-0.00631685
-0.00641284
-0.00648461
-0.00653276
-0.0065577
-0.00655907
-0.00652844
-0.00645463
0.000769525
0.00065012
0.000554822
0.000471631
0.000391348
0.000312901
0.00023488
0.000155283
7.21814e-05
-1.62159e-05
-0.000111591
-0.000215517
-0.000329452
-0.000454742
-0.000592616
-0.000744168
-0.000910325
-0.00109181
-0.00128908
-0.00150227
-0.00173113
-0.00197496
-0.00223254
-0.00250208
-0.00278121
-0.00306699
-0.00335586
-0.00364377
-0.00392619
-0.00419827
-0.00445492
-0.00469099
-0.00490143
-0.00508145
-0.00522672
-0.00533355
-0.00539907
-0.00542134
-0.00539947
-0.0053337
-0.00522598
-0.00507906
-0.00489721
-0.00468592
-0.0044518
-0.00420247
-0.00394633
-0.00369228
-0.00344946
-0.00322691
-0.0030332
-0.00287608
-0.00276211
-0.0026964
-0.00268227
-0.00272114
-0.0028124
-0.00295343
-0.00313975
-0.00336525
-0.00362251
-0.00390324
-0.00419874
-0.00450031
-0.00479975
-0.00508974
-0.00536407
-0.00561791
-0.00584782
-0.00605175
-0.00622884
-0.00637926
-0.00650382
-0.00660368
-0.00667996
-0.00673337
-0.00676441
-0.00677283
-0.00675145
-0.00669075
0.000886734
0.000742513
0.00063152
0.000538246
0.000450587
0.000366652
0.000284271
0.000200666
0.000113258
1.97085e-05
-8.21322e-05
-0.00019425
-0.000318481
-0.000456524
-0.000609939
-0.000780134
-0.000968322
-0.00117547
-0.00140225
-0.00164893
-0.00191532
-0.00220069
-0.0025037
-0.00282235
-0.00315395
-0.00349515
-0.00384189
-0.00418954
-0.00453295
-0.00486655
-0.00518454
-0.00548101
-0.00575012
-0.0059863
-0.00618445
-0.0063401
-0.00644961
-0.00651033
-0.00652071
-0.00648043
-0.00639069
-0.00625388
-0.00607385
-0.00585584
-0.00560635
-0.00533304
-0.00504452
-0.00475014
-0.00445967
-0.00418299
-0.00392973
-0.00370887
-0.00352834
-0.00339473
-0.00331289
-0.00328573
-0.00331405
-0.00339647
-0.00352954
-0.0037079
-0.0039246
-0.00417152
-0.0044398
-0.00472041
-0.00500458
-0.00528427
-0.00555253
-0.00580373
-0.00603372
-0.00623981
-0.0064206
-0.00657586
-0.00670611
-0.00681236
-0.00689563
-0.00695666
-0.00699596
-0.00701336
-0.0070029
-0.00695684
0.00099125
0.000821486
0.000694471
0.000590936
0.000495637
0.000405734
0.000318199
0.000229397
0.00013604
3.52041e-05
-7.57629e-05
-0.00019929
-0.000337619
-0.000492826
-0.000666829
-0.000861367
-0.00107796
-0.00131782
-0.00158183
-0.00187036
-0.00218327
-0.00251976
-0.00287831
-0.00325666
-0.00365173
-0.00405967
-0.00447589
-0.00489507
-0.00531136
-0.00571842
-0.00610962
-0.0064782
-0.00681745
-0.00712093
-0.00738264
-0.00759722
-0.00776016
-0.00786795
-0.00791824
-0.00790995
-0.00784353
-0.00772075
-0.00754494
-0.00732094
-0.007055
-0.0067547
-0.00642881
-0.00608702
-0.00573972
-0.00539768
-0.00507163
-0.00477195
-0.00450816
-0.0042886
-0.00412
-0.00400717
-0.00395273
-0.00395702
-0.00401806
-0.00413167
-0.00429173
-0.00449056
-0.0047194
-0.00496895
-0.00522989
-0.00549339
-0.00575159
-0.00599788
-0.00622714
-0.00643574
-0.00662153
-0.00678357
-0.00692189
-0.00703709
-0.00712995
-0.00720108
-0.00725087
-0.00727912
-0.00728105
-0.00725063
0.00107667
0.000880956
0.000737796
0.000623939
0.000520791
0.000424431
0.000330868
0.000235541
0.000134397
2.38876e-05
-9.91757e-05
-0.000237695
-0.000394347
-0.000571613
-0.000771794
-0.000996982
-0.00124901
-0.00152935
-0.00183907
-0.00217864
-0.00254792
-0.00294601
-0.00337116
-0.00382077
-0.00429133
-0.00477842
-0.00527679
-0.00578042
-0.00628265
-0.00677627
-0.00725375
-0.00770739
-0.0081295
-0.00851265
-0.00884983
-0.00913469
-0.00936171
-0.00952641
-0.00962548
-0.00965696
-0.00962038
-0.00951678
-0.0093488
-0.00912072
-0.00883839
-0.00850918
-0.00814185
-0.00774636
-0.00733363
-0.00691526
-0.00650315
-0.00610912
-0.00574448
-0.00541956
-0.00514329
-0.00492279
-0.00476302
-0.00466653
-0.00463336
-0.00466102
-0.00474472
-0.00487765
-0.00505145
-0.00525673
-0.00548371
-0.00572276
-0.00596496
-0.0062025
-0.006429
-0.00663964
-0.00683113
-0.00700156
-0.00715014
-0.0072768
-0.00738187
-0.00746562
-0.00752816
-0.00756909
-0.00758471
-0.00757057
0.00113623
0.000914472
0.000755234
0.000631089
0.000519903
0.000416548
0.000315977
0.000212634
0.000101653
-2.1179e-05
-0.000159619
-0.000317074
-0.000496683
-0.000701365
-0.000933828
-0.00119654
-0.00149164
-0.00182089
-0.0021855
-0.00258604
-0.00302233
-0.0034933
-0.00399694
-0.00453025
-0.00508918
-0.0056687
-0.00626285
-0.00686477
-0.00746692
-0.00806114
-0.0086389
-0.00919143
-0.00971
-0.0101861
-0.0106115
-0.0109788
-0.0112814
-0.0115138
-0.0116714
-0.0117514
-0.0117522
-0.0116741
-0.0115188
-0.0112898
-0.0109926
-0.0106339
-0.0102226
-0.00976849
-0.00928302
-0.00877849
-0.00826787
-0.00776447
-0.00728143
-0.00683127
-0.00642542
-0.00607368
-0.00578382
-0.00556118
-0.00540844
-0.00532546
-0.00530937
-0.00535478
-0.00545418
-0.00559847
-0.00577756
-0.00598107
-0.00619892
-0.00642191
-0.00664212
-0.00685316
-0.00705025
-0.00723013
-0.00739082
-0.0075313
-0.00765112
-0.00774996
-0.00782748
-0.00788292
-0.00791342
-0.00791602
0.00116283
0.000915293
0.000740229
0.000605894
0.000486475
0.000375513
0.000266823
0.000153794
3.07047e-05
-0.00010736
-0.000264756
-0.000445429
-0.000653012
-0.00089089
-0.0011622
-0.00146981
-0.00181618
-0.00220333
-0.00263262
-0.00310469
-0.00361926
-0.00417506
-0.00476974
-0.00539984
-0.00606071
-0.00674662
-0.00745078
-0.00816545
-0.00888207
-0.00959146
-0.010284
-0.0109497
-0.0115787
-0.0121612
-0.0126879
-0.0131502
-0.0135403
-0.0138513
-0.0140777
-0.0142155
-0.0142621
-0.0142166
-0.0140798
-0.0138546
-0.0135454
-0.0131586
-0.0127025
-0.012187
-0.0116236
-0.0110251
-0.0104055
-0.00977933
-0.00916163
-0.00856714
-0.00800996
-0.0075029
-0.00705699
-0.00668093
-0.00638069
-0.00615922
-0.00601632
-0.00594875
-0.00595048
-0.00601316
-0.00612679
-0.00628037
-0.00646266
-0.00666291
-0.00687136
-0.00707968
-0.00728117
-0.00747078
-0.00764495
-0.00780128
-0.0079382
-0.00805454
-0.00814923
-0.00822095
-0.00826752
-0.00828725
0.00114919
0.000876488
0.000686026
0.00054165
0.000413773
0.0002945
0.000176437
5.18664e-05
-8.58237e-05
-0.000242279
-0.00042249
-0.000630969
-0.000871878
-0.0011491
-0.00146622
-0.00182651
-0.00223279
-0.00268728
-0.00319152
-0.00374613
-0.00435071
-0.00500374
-0.00570247
-0.00644285
-0.0072196
-0.00802615
-0.00885482
-0.00969684
-0.0105426
-0.0113817
-0.0122033
-0.0129962
-0.0137493
-0.0144515
-0.0150922
-0.0156615
-0.0161504
-0.0165508
-0.0168562
-0.0170611
-0.0171619
-0.0171567
-0.0170454
-0.0168296
-0.016513
-0.0161013
-0.0156021
-0.0150249
-0.0143812
-0.013684
-0.0129478
-0.0121885
-0.0114225
-0.0106669
-0.00993837
-0.00925293
-0.00862521
-0.00806778
-0.00759057
-0.00720039
-0.00690061
-0.00669098
-0.00656781
-0.00652422
-0.00655082
-0.00663634
-0.00676853
-0.00693496
-0.00712381
-0.00732442
-0.00752771
-0.00772633
-0.00791462
-0.00808836
-0.00824446
-0.00838054
-0.00849452
-0.00858429
-0.00864814
-0.0086855
0.00108796
0.00079107
0.000585804
0.000431569
0.000294962
0.000166573
3.77312e-05
-0.000100415
-0.0002554
-0.00043363
-0.000640754
-0.000881888
-0.00116175
-0.00148475
-0.00185495
-0.00227602
-0.00275113
-0.00328273
-0.00387245
-0.00452089
-0.00522747
-0.00599032
-0.0068062
-0.00767044
-0.00857695
-0.00951827
-0.0104857
-0.0114693
-0.0124582
-0.0134409
-0.0144051
-0.0153383
-0.016228
-0.0170619
-0.017828
-0.0185152
-0.0191132
-0.0196128
-0.0200061
-0.0202869
-0.0204502
-0.0204931
-0.0204143
-0.0202146
-0.0198966
-0.0194651
-0.0189269
-0.0182908
-0.0175678
-0.0167709
-0.0159149
-0.0150161
-0.0140925
-0.0131628
-0.0122463
-0.0113622
-0.0105289
-0.00976319
-0.0090795
-0.00848932
-0.00800047
-0.00761678
-0.00733787
-0.00715934
-0.00707316
-0.00706842
-0.00713215
-0.00725035
-0.00740894
-0.00759456
-0.00779526
-0.00800084
-0.00820297
-0.00839507
-0.00857204
-0.00872988
-0.00886517
-0.00897477
-0.00905721
-0.0091129
0.000971884
0.00065214
0.000432822
0.000268934
0.000123274
-1.51482e-05
-0.000156313
-0.000310235
-0.000485388
-0.00068896
-0.000927291
-0.00120612
-0.00153077
-0.00190617
-0.00233689
-0.00282702
-0.00338005
-0.00399863
-0.00468445
-0.00543802
-0.00625852
-0.00714365
-0.00808956
-0.00909085
-0.0101405
-0.0112301
-0.0123496
-0.013488
-0.014633
-0.0157716
-0.0168903
-0.0179751
-0.0190121
-0.0199877
-0.0208886
-0.0217024
-0.0224178
-0.0230244
-0.0235133
-0.0238771
-0.0241101
-0.0242081
-0.0241691
-0.0239926
-0.0236803
-0.0232358
-0.022665
-0.0219759
-0.0211785
-0.0202852
-0.0193107
-0.0182715
-0.0171863
-0.0160751
-0.0149594
-0.0138613
-0.0128027
-0.0118048
-0.010887
-0.0100662
-0.00935558
-0.00876401
-0.00829572
-0.00794996
-0.00772121
-0.00759975
-0.00757254
-0.00762428
-0.00773861
-0.00789922
-0.00809079
-0.00829966
-0.00851418
-0.00872478
-0.0089238
-0.00910514
-0.00926365
-0.00939485
-0.00949733
-0.00957239
0.000793945
0.000453052
0.000220584
4.72634e-05
-0.000107829
-0.000257298
-0.000412458
-0.000584493
-0.000782827
-0.00101545
-0.00128941
-0.0016111
-0.00198644
-0.00242095
-0.00291969
-0.00348717
-0.00412716
-0.00484249
-0.00563486
-0.00650461
-0.00745057
-0.00846992
-0.00955809
-0.0107088
-0.011914
-0.013164
-0.0144475
-0.0157522
-0.0170642
-0.018369
-0.0196517
-0.0208968
-0.0220891
-0.0232135
-0.0242557
-0.0252021
-0.0260403
-0.0267591
-0.0273488
-0.027801
-0.0281092
-0.0282683
-0.0282754
-0.0281291
-0.0278301
-0.0273808
-0.0267859
-0.0260523
-0.0251889
-0.0242072
-0.0231209
-0.0219463
-0.0207019
-0.0194087
-0.0180894
-0.0167684
-0.0154709
-0.0142224
-0.0130474
-0.0119682
-0.0110044
-0.0101711
-0.0094783
-0.00893036
-0.00852566
-0.00825693
-0.008112
-0.0080749
-0.00812724
-0.0082496
-0.00842288
-0.00862937
-0.00885338
-0.00908165
-0.00930327
-0.00950948
-0.00969297
-0.00984756
-0.00997171
-0.0100675
0.000547577
0.000187587
-5.69872e-05
-0.00023951
-0.000404463
-0.000566078
-0.000737006
-0.000929592
-0.00115421
-0.00141966
-0.00173372
-0.00210345
-0.00253541
-0.00303568
-0.00360983
-0.00426275
-0.0049985
-0.00582002
-0.00672892
-0.00772531
-0.00880754
-0.00997214
-0.0112137
-0.0125249
-0.0138964
-0.0153172
-0.0167746
-0.0182546
-0.0197418
-0.0212203
-0.0226734
-0.0240843
-0.0254363
-0.0267133
-0.0278998
-0.0289813
-0.0299447
-0.0307779
-0.0314705
-0.0320138
-0.0324004
-0.0326246
-0.032683
-0.0325732
-0.0322949
-0.0318495
-0.0312404
-0.0304733
-0.0295556
-0.0284974
-0.0273111
-0.026012
-0.0246179
-0.0231495
-0.0216302
-0.0200859
-0.0185442
-0.0170342
-0.0155852
-0.0142255
-0.0129811
-0.0118743
-0.0109223
-0.0101361
-0.00951946
-0.00906934
-0.00877578
-0.00862318
-0.00859168
-0.00865891
-0.00880173
-0.00899778
-0.00922664
-0.00947051
-0.00971451
-0.00994654
-0.0101566
-0.0103363
-0.010484
-0.0106024
0.000226837
-0.000149863
-0.000405369
-0.00059685
-0.000772132
-0.000947056
-0.00113559
-0.00135122
-0.00160526
-0.00190732
-0.0022659
-0.00268877
-0.00318312
-0.0037556
-0.00441226
-0.00515838
-0.00599821
-0.00693473
-0.00796941
-0.00910197
-0.0103302
-0.0116497
-0.0130542
-0.014535
-0.0160816
-0.0176812
-0.0193197
-0.0209812
-0.0226488
-0.0243048
-0.0259311
-0.0275095
-0.029022
-0.0304514
-0.0317814
-0.0329969
-0.0340839
-0.0350301
-0.0358248
-0.0364587
-0.0369244
-0.0372157
-0.0373287
-0.0372602
-0.0370093
-0.0365764
-0.0359637
-0.0351753
-0.0342172
-0.0330978
-0.0318278
-0.0304207
-0.0288928
-0.0272639
-0.0255568
-0.0237977
-0.0220158
-0.0202429
-0.0185123
-0.0168576
-0.0153117
-0.0139046
-0.0126616
-0.0116017
-0.0107363
-0.0100682
-0.00959151
-0.00929261
-0.00915118
-0.00914242
-0.00923916
-0.00941397
-0.00964093
-0.00989688
-0.0101621
-0.0104203
-0.0106582
-0.0108649
-0.0110381
-0.0111813
-0.000173412
-0.000564127
-0.000829266
-0.00102944
-0.00121554
-0.00140497
-0.00161298
-0.00185414
-0.0021407
-0.00248306
-0.00289047
-0.00337138
-0.00393361
-0.00458439
-0.00533022
-0.00617668
-0.00712819
-0.00818767
-0.00935631
-0.0106333
-0.0120157
-0.0134982
-0.0150732
-0.0167307
-0.0184583
-0.020242
-0.0220655
-0.0239114
-0.0257609
-0.0275947
-0.0293931
-0.0311367
-0.0328064
-0.0343841
-0.0358529
-0.0371972
-0.0384028
-0.0394572
-0.0403497
-0.041071
-0.0416137
-0.0419717
-0.0421401
-0.0421161
-0.0418979
-0.0414852
-0.040879
-0.0400821
-0.0390989
-0.0379357
-0.0366013
-0.0351069
-0.0334668
-0.0316987
-0.029824
-0.027868
-0.0258601
-0.0238333
-0.0218238
-0.0198701
-0.0180109
-0.016284
-0.0147237
-0.0133583
-0.0122083
-0.0112848
-0.0105882
-0.0101086
-0.00982706
-0.00971734
-0.00974861
-0.00988819
-0.0101041
-0.0103668
-0.0106509
-0.0109351
-0.0112019
-0.0114373
-0.0116381
-0.0118089
-0.000657323
-0.00105908
-0.00133244
-0.00154103
-0.00173843
-0.00194356
-0.00217287
-0.00244199
-0.00276406
-0.00315025
-0.00361054
-0.00415407
-0.00478928
-0.00552391
-0.0063649
-0.00731808
-0.00838792
-0.00957718
-0.0108866
-0.0123148
-0.0138578
-0.0155092
-0.0172599
-0.0190983
-0.0210104
-0.0229801
-0.0249894
-0.0270188
-0.0290479
-0.0310558
-0.0330214
-0.034924
-0.0367437
-0.0384619
-0.0400611
-0.0415255
-0.0428412
-0.0439959
-0.044979
-0.0457815
-0.0463963
-0.0468176
-0.0470405
-0.0470621
-0.0468802
-0.0464939
-0.0459034
-0.0451101
-0.0441168
-0.0429281
-0.0415503
-0.0399922
-0.0382653
-0.0363848
-0.0343694
-0.0322425
-0.0300321
-0.0277712
-0.0254972
-0.0232515
-0.0210784
-0.0190225
-0.0171269
-0.0154303
-0.0139639
-0.0127489
-0.0117946
-0.0110976
-0.0106422
-0.0104025
-0.010345
-0.010432
-0.0106248
-0.010887
-0.0111863
-0.0114954
-0.0117918
-0.0120574
-0.0122883
-0.0124895
-0.00122791
-0.0016375
-0.00191756
-0.00213423
-0.0023434
-0.00256537
-0.00281774
-0.00311713
-0.0034775
-0.00391079
-0.00442768
-0.00503796
-0.00575066
-0.00657404
-0.00751537
-0.00858064
-0.00977428
-0.0110988
-0.0125543
-0.0141385
-0.0158465
-0.0176703
-0.0195994
-0.0216202
-0.0237169
-0.0258714
-0.0280636
-0.0302722
-0.0324751
-0.0346497
-0.0367737
-0.0388256
-0.0407847
-0.0426319
-0.0443499
-0.0459231
-0.0473377
-0.0485819
-0.0496458
-0.0505211
-0.051201
-0.0516802
-0.0519544
-0.0520205
-0.0518765
-0.0515209
-0.0509534
-0.0501743
-0.049185
-0.0479882
-0.0465879
-0.0449905
-0.0432044
-0.0412414
-0.0391171
-0.0368516
-0.0344704
-0.0320046
-0.0294912
-0.0269729
-0.0244973
-0.0221149
-0.0198771
-0.0178327
-0.0160246
-0.0144861
-0.0132378
-0.0122856
-0.0116202
-0.0112181
-0.0110447
-0.0110579
-0.0112127
-0.0114647
-0.0117739
-0.0121059
-0.0124319
-0.0127292
-0.0129925
-0.0132276
-0.0018869
-0.00230092
-0.00258607
-0.00281045
-0.00303178
-0.00327165
-0.00354871
-0.00388048
-0.00428167
-0.00476497
-0.00534172
-0.00602232
-0.00681637
-0.00773254
-0.00877838
-0.00995996
-0.0112815
-0.0127451
-0.0143501
-0.0160933
-0.0179683
-0.0199656
-0.0220729
-0.0242747
-0.026553
-0.0288877
-0.0312567
-0.0336367
-0.0360041
-0.0383347
-0.0406054
-0.0427937
-0.0448787
-0.0468412
-0.048664
-0.0503321
-0.0518322
-0.0531535
-0.0542868
-0.0552245
-0.0559608
-0.056491
-0.0568113
-0.0569192
-0.0568126
-0.05649
-0.0559507
-0.0551941
-0.0542207
-0.0530313
-0.0516281
-0.0500147
-0.0481965
-0.046182
-0.0439827
-0.041615
-0.0391003
-0.0364666
-0.0337485
-0.0309879
-0.0282336
-0.0255401
-0.0229654
-0.0205678
-0.0184021
-0.016515
-0.0149406
-0.013697
-0.0127843
-0.0121846
-0.0118647
-0.0117795
-0.011878
-0.0121077
-0.0124196
-0.0127711
-0.0131262
-0.0134565
-0.0137545
-0.014027
-0.00263466
-0.00304956
-0.00333809
-0.00356973
-0.00380354
-0.00406223
-0.00436541
-0.00473139
-0.00517561
-0.00571139
-0.0063507
-0.00710454
-0.00798296
-0.00899501
-0.0101484
-0.0114492
-0.0129012
-0.014506
-0.0162621
-0.0181648
-0.0202065
-0.0223759
-0.0246585
-0.0270369
-0.0294909
-0.0319982
-0.0345347
-0.0370755
-0.0395951
-0.0420685
-0.0444714
-0.046781
-0.0489764
-0.0510385
-0.0529507
-0.0546986
-0.0562699
-0.0576547
-0.0588448
-0.0598338
-0.0606167
-0.0611897
-0.0615499
-0.0616952
-0.0616238
-0.0613345
-0.0608262
-0.0600982
-0.0591497
-0.0579806
-0.0565911
-0.0549825
-0.0531575
-0.0511209
-0.0488804
-0.0464477
-0.0438398
-0.0410799
-0.0381987
-0.0352353
-0.0322372
-0.0292604
-0.0263673
-0.0236241
-0.0210966
-0.0188453
-0.0169194
-0.0153519
-0.0141558
-0.0133224
-0.0128227
-0.0126112
-0.0126318
-0.012824
-0.0131294
-0.0134959
-0.0138788
-0.0142427
-0.0145778
-0.0148914
-0.00347009
-0.00388222
-0.00417236
-0.00441073
-0.00465719
-0.00493545
-0.00526595
-0.00566767
-0.00615668
-0.00674689
-0.00745085
-0.00828004
-0.00924496
-0.0103549
-0.0116176
-0.013039
-0.0146226
-0.0163689
-0.0182754
-0.0203363
-0.0225419
-0.0248793
-0.0273317
-0.0298796
-0.0325006
-0.0351703
-0.0378626
-0.0405508
-0.0432084
-0.0458091
-0.0483282
-0.0507428
-0.0530319
-0.0551771
-0.0571625
-0.0589746
-0.0606024
-0.0620369
-0.0632713
-0.0643001
-0.0651196
-0.0657268
-0.0661198
-0.066297
-0.0662573
-0.0659998
-0.0655235
-0.0648272
-0.06391
-0.0627706
-0.0614079
-0.0598213
-0.0580111
-0.0559787
-0.053728
-0.0512662
-0.0486052
-0.0457626
-0.0427639
-0.0396432
-0.0364449
-0.0332234
-0.0300429
-0.026975
-0.0240946
-0.0214752
-0.0191819
-0.0172646
-0.0157524
-0.0146497
-0.0139356
-0.0135672
-0.0134854
-0.0136223
-0.0139097
-0.0142848
-0.0146931
-0.0150911
-0.0154654
-0.0158237
-0.00439062
-0.00479627
-0.00508619
-0.00533066
-0.00558981
-0.00588817
-0.00624686
-0.00668546
-0.00722055
-0.00786657
-0.00863654
-0.00954239
-0.0105949
-0.0118036
-0.0131762
-0.0147181
-0.0164324
-0.0183187
-0.0203732
-0.0225885
-0.0249532
-0.027452
-0.0300664
-0.0327744
-0.0355514
-0.0383709
-0.0412051
-0.0440259
-0.0468054
-0.049517
-0.0521354
-0.0546377
-0.0570037
-0.0592155
-0.0612582
-0.0631195
-0.0647895
-0.0662606
-0.0675271
-0.0685848
-0.0694311
-0.0700641
-0.0704826
-0.0706859
-0.0706735
-0.070445
-0.0699995
-0.0693361
-0.0684534
-0.0673498
-0.0660232
-0.0644716
-0.0626931
-0.0606866
-0.0584525
-0.0559936
-0.0533166
-0.0504335
-0.0473634
-0.0441342
-0.0407847
-0.0373654
-0.0339393
-0.0305798
-0.0273687
-0.0243904
-0.0217253
-0.0194414
-0.0175866
-0.0161818
-0.015219
-0.0146615
-0.01445
-0.014511
-0.0147665
-0.0151423
-0.0155726
-0.0160042
-0.0164196
-0.0168264
-0.00539219
-0.00578769
-0.0060755
-0.0063253
-0.00659698
-0.00691571
-0.00730316
-0.00777935
-0.00836129
-0.00906384
-0.00990042
-0.0108833
-0.0120235
-0.0133306
-0.0148121
-0.0164731
-0.0183157
-0.0203387
-0.0225367
-0.0249006
-0.0274172
-0.0300691
-0.0328354
-0.0356919
-0.038612
-0.0415673
-0.0445283
-0.0474656
-0.0503505
-0.0531559
-0.0558565
-0.0584299
-0.0608563
-0.0631189
-0.065204
-0.0671004
-0.0687995
-0.0702951
-0.0715828
-0.0726595
-0.0735237
-0.0741744
-0.0746115
-0.0748351
-0.0748452
-0.0746418
-0.0742248
-0.0735933
-0.072746
-0.0716811
-0.0703961
-0.068888
-0.0671534
-0.0651892
-0.0629929
-0.0605636
-0.0579031
-0.0550176
-0.0519197
-0.0486302
-0.0451806
-0.0416154
-0.037993
-0.0343858
-0.0308785
-0.0275638
-0.0245354
-0.0218793
-0.0196635
-0.0179294
-0.0166857
-0.0159065
-0.0155365
-0.0154985
-0.0157058
-0.0160724
-0.0165201
-0.0169842
-0.0174421
-0.0179008
-0.00646931
-0.00685103
-0.00713481
-0.00738909
-0.00767294
-0.00801201
-0.00842839
-0.00894241
-0.00957139
-0.0103305
-0.0112335
-0.0122929
-0.0135198
-0.0149237
-0.0165119
-0.0182889
-0.0202559
-0.0224103
-0.0247456
-0.0272506
-0.0299102
-0.0327048
-0.0356113
-0.0386035
-0.0416526
-0.0447285
-0.0478003
-0.0508377
-0.0538112
-0.0566937
-0.0594601
-0.0620885
-0.0645601
-0.0668592
-0.0689731
-0.0708921
-0.072609
-0.0741187
-0.0754179
-0.076505
-0.0773793
-0.0780409
-0.0784904
-0.0787286
-0.0787563
-0.078574
-0.0781821
-0.0775801
-0.076767
-0.0757411
-0.0744998
-0.0730396
-0.0713564
-0.0694456
-0.0673025
-0.0649231
-0.0623052
-0.0594497
-0.0563626
-0.0530575
-0.0495578
-0.0458998
-0.0421349
-0.0383312
-0.0345726
-0.0309562
-0.027586
-0.0245644
-0.02198
-0.0198968
-0.0183442
-0.0173125
-0.0167542
-0.0165924
-0.0167331
-0.0170788
-0.0175377
-0.0180323
-0.0185337
-0.0190476
-0.00761517
-0.0079796
-0.00825739
-0.00851514
-0.00881057
-0.00916965
-0.00961474
-0.0101663
-0.010842
-0.011657
-0.0126254
-0.0137598
-0.0150713
-0.0165693
-0.0182607
-0.0201491
-0.022235
-0.0245143
-0.0269789
-0.0296159
-0.032408
-0.0353336
-0.0383675
-0.0414812
-0.0446444
-0.0478253
-0.0509919
-0.054113
-0.0571591
-0.0601028
-0.0629197
-0.0655887
-0.0680918
-0.0704147
-0.0725458
-0.0744768
-0.0762018
-0.0777169
-0.07902