/*--------------------------------*- C++ -*----------------------------------*\
  =========                 |
  \\      /  F ield         | OpenFOAM: The Open Source CFD Toolbox
   \\    /   O peration     | Website:  https://openfoam.org
    \\  /    A nd           | Version:  7
     \\/     M anipulation  |
\*---------------------------------------------------------------------------*/
FoamFile
{
    version     2.0;
    format      ascii;
    class       volScalarField;
    location    "3.35";
    object      p;
}
// * * * * * * * * * * * * * * * * * * * * * * * * * * * * * * * * * * * * * //

dimensions      [0 2 -2 0 0 0 0];

internalField   nonuniform List<scalar> 
6400
(
-5.71001e-09
1.5562e-05
5.83214e-06
-3.29938e-05
-9.87052e-05
-0.000187941
-0.000297004
-0.000422504
-0.00056169
-0.000712467
-0.000873315
-0.00104316
-0.00122121
-0.00140689
-0.00159962
-0.00179882
-0.00200373
-0.00221343
-0.00242672
-0.00264212
-0.00285787
-0.00307186
-0.00328168
-0.0034846
-0.00367764
-0.00385755
-0.00402091
-0.00416417
-0.00428376
-0.00437615
-0.00443799
-0.00446624
-0.00445825
-0.00441197
-0.00432605
-0.00419996
-0.00403414
-0.0038301
-0.0035905
-0.00331916
-0.00302112
-0.00270238
-0.00237034
-0.00203306
-0.00169935
-0.00137848
-0.00107994
-0.000813024
-0.000586594
-0.000408672
-0.000286136
-0.000224422
-0.000227274
-0.00029657
-0.000432216
-0.000632134
-0.000892334
-0.00120708
-0.00156925
-0.0019703
-0.00240108
-0.0028519
-0.00331303
-0.00377498
-0.00422889
-0.00466669
-0.00508134
-0.00546689
-0.00581847
-0.00613226
-0.00640535
-0.00663559
-0.00682148
-0.00696204
-0.00705691
-0.00710673
-0.00711417
-0.00708588
-0.00703483
-0.00698007
-1.48151e-05
4.98001e-07
-1.1163e-05
-4.85041e-05
-0.00010839
-0.000188652
-0.000286795
-0.000400316
-0.000527051
-0.000665261
-0.000813605
-0.000971064
-0.00113686
-0.00131036
-0.00149098
-0.00167807
-0.00187093
-0.00206863
-0.00227009
-0.00247394
-0.00267857
-0.00288206
-0.00308223
-0.0032766
-0.00346244
-0.00363678
-0.00379649
-0.0039383
-0.00405888
-0.00415496
-0.0042234
-0.00426131
-0.00426617
-0.00423597
-0.00416936
-0.00406574
-0.00392538
-0.00374955
-0.0035406
-0.00330198
-0.00303825
-0.00275495
-0.00245876
-0.0021572
-0.00185841
-0.00157101
-0.0013038
-0.00106544
-0.000864168
-0.000707457
-0.000601704
-0.000551957
-0.00056168
-0.000632587
-0.00076455
-0.000955592
-0.00120196
-0.00149829
-0.00183784
-0.00221284
-0.00261466
-0.00303439
-0.00346305
-0.00389194
-0.00431293
-0.00471868
-0.00510278
-0.00545987
-0.0057856
-0.0060766
-0.00633043
-0.00654538
-0.00672046
-0.00685529
-0.00695015
-0.00700624
-0.00702641
-0.00701588
-0.00698001
-0.0069252
-3.76943e-06
1.23653e-05
-1.46141e-07
-3.70032e-05
-9.39666e-05
-0.000169146
-0.000260542
-0.000366129
-0.00048414
-0.000613139
-0.000751996
-0.00089984
-0.001056
-0.0012199
-0.00139101
-0.00156877
-0.00175252
-0.00194146
-0.00213457
-0.00233065
-0.00252823
-0.00272555
-0.00292061
-0.00311113
-0.00329455
-0.0034681
-0.00362879
-0.00377352
-0.00389907
-0.00400225
-0.00407998
-0.00412936
-0.00414783
-0.00413329
-0.00408425
-0.00399991
-0.00388033
-0.00372651
-0.00354049
-0.00332539
-0.00308533
-0.00282577
-0.00255286
-0.00227376
-0.0019963
-0.0017288
-0.00147974
-0.00125756
-0.00107026
-0.000925121
-0.000828386
-0.000784989
-0.000798314
-0.000870036
-0.00100002
-0.00118633
-0.00142529
-0.00171165
-0.00203883
-0.00239924
-0.0027846
-0.0031862
-0.00359544
-0.00400399
-0.00440414
-0.00478898
-0.00515255
-0.00548993
-0.00579723
-0.00607154
-0.00631085
-0.0065139
-0.00668012
-0.00680948
-0.00690249
-0.00696024
-0.00698497
-0.0069801
-0.0069443
-0.00687433
3.78084e-05
5.0472e-05
3.51534e-05
-2.98912e-06
-5.93893e-05
-0.000132144
-0.000219492
-0.000319693
-0.000431308
-0.000553192
-0.000684462
-0.000824454
-0.000972668
-0.00112868
-0.0012921
-0.0014625
-0.00163933
-0.00182193
-0.00200945
-0.00220082
-0.00239472
-0.00258958
-0.00278353
-0.00297444
-0.00315989
-0.00333721
-0.00350349
-0.00365566
-0.00379052
-0.00390483
-0.0039954
-0.00405922
-0.00409354
-0.00409604
-0.00406498
-0.00399928
-0.00389871
-0.00376397
-0.0035968
-0.00340004
-0.00317754
-0.00293447
-0.00267685
-0.00241166
-0.00214661
-0.00188992
-0.00165007
-0.00143547
-0.00125417
-0.00111352
-0.00101982
-0.000978082
-0.000991779
-0.00106264
-0.00119059
-0.00137371
-0.00160831
-0.00188916
-0.00220965
-0.00256214
-0.00293835
-0.00332964
-0.00372742
-0.0041235
-0.00451032
-0.0048812
-0.00523048
-0.00555359
-0.00584702
-0.0061083
-0.00633585
-0.00652885
-0.00668709
-0.0068108
-0.00690053
-0.00695703
-0.00698178
-0.00697654
-0.00693501
-0.00684741
0.000108976
0.000112369
9.10264e-05
4.94807e-05
-8.26552e-06
-8.03706e-05
-0.000165272
-0.000261562
-0.000368127
-0.000484137
-0.000608998
-0.000742304
-0.000883778
-0.00103321
-0.00119038
-0.00135506
-0.00152688
-0.00170536
-0.00188982
-0.00207937
-0.00227287
-0.00246889
-0.00266572
-0.00286133
-0.00305339
-0.00323927
-0.00341607
-0.00358067
-0.00372976
-0.00385994
-0.00396782
-0.00405012
-0.00410382
-0.00412628
-0.00411539
-0.00406974
-0.00398875
-0.00387278
-0.00372328
-0.00354281
-0.00333499
-0.00310481
-0.00285818
-0.00260199
-0.00234399
-0.00209243
-0.0018559
-0.00164298
-0.0014619
-0.00132021
-0.00122446
-0.00117988
-0.00119013
-0.00125712
-0.0013809
-0.00155961
-0.00178959
-0.00206556
-0.00238083
-0.00272764
-0.00309757
-0.00348185
-0.0038718
-0.00425916
-0.00463638
-0.00499688
-0.00533516
-0.0056469
-0.00592891
-0.00617912
-0.00639635
-0.0065802
-0.00673081
-0.0068487
-0.00693444
-0.00698852
-0.00701183
-0.00700494
-0.00695833
-0.00685827
0.000207121
0.000196177
0.000165688
0.000118638
5.77492e-05
-1.5331e-05
-9.92874e-05
-0.000193085
-0.000295983
-0.000407501
-0.000527375
-0.000655499
-0.000791868
-0.000936523
-0.0010895
-0.00125077
-0.00142022
-0.00159757
-0.00178235
-0.00197387
-0.00217115
-0.00237294
-0.00257761
-0.00278323
-0.00298748
-0.00318771
-0.00338092
-0.00356384
-0.00373294
-0.00388455
-0.00401496
-0.00412052
-0.00419781
-0.00424378
-0.0042559
-0.00423234
-0.00417213
-0.00407527
-0.0039429
-0.00377738
-0.00358205
-0.0033618
-0.00312245
-0.00287093
-0.00261504
-0.00236321
-0.00212423
-0.00190695
-0.00171992
-0.00157104
-0.00146722
-0.00141405
-0.00141554
-0.0014739
-0.0015894
-0.00176036
-0.00198321
-0.00225264
-0.00256189
-0.00290306
-0.00326751
-0.00364624
-0.00403035
-0.00441139
-0.00478168
-0.00513456
-0.00546459
-0.00576755
-0.00604049
-0.00628165
-0.0064902
-0.00666611
-0.00680988
-0.00692229
-0.00700403
-0.00705548
-0.00707717
-0.00706895
-0.00701967
-0.00691371
0.000328449
0.000298932
0.000256681
0.000202246
0.000136569
6.10574e-05
-2.33322e-05
-0.000116017
-0.000216687
-0.000325261
-0.000441842
-0.000566664
-0.000700035
-0.000842292
-0.000993759
-0.00115468
-0.0013252
-0.00150529
-0.00169471
-0.00189298
-0.00209928
-0.00231249
-0.00253108
-0.00275311
-0.00297622
-0.00319765
-0.00341421
-0.00362234
-0.0038182
-0.00399772
-0.00415676
-0.00429118
-0.00439709
-0.00447092
-0.00450966
-0.00451104
-0.00447362
-0.00439702
-0.0042821
-0.00413118
-0.00394675
-0.00373411
-0.00349894
-0.0032482
-0.00298981
-0.00273241
-0.00248507
-0.00225701
-0.00205719
-0.00189398
-0.00177481
-0.00170578
-0.00169139
-0.00173431
-0.00183521
-0.00199271
-0.00220345
-0.00246223
-0.00276224
-0.00309548
-0.00345306
-0.00382574
-0.0042043
-0.00457997
-0.00494481
-0.00529197
-0.00561586
-0.00591229
-0.00617841
-0.00641258
-0.0066143
-0.00678384
-0.00692203
-0.00702989
-0.00710831
-0.00715773
-0.0071785
-0.00717017
-0.00712116
-0.00701551
0.00046836
0.000416901
0.000360605
0.000297186
0.000225414
0.000146249
6.0204e-05
-3.26807e-05
-0.000132598
-0.000239919
-0.000355153
-0.000478912
-0.000611861
-0.000754671
-0.000907982
-0.00107235
-0.00124822
-0.00143582
-0.00163517
-0.00184597
-0.00206759
-0.00229899
-0.00253865
-0.00278461
-0.00303437
-0.00328494
-0.00353283
-0.00377411
-0.00400448
-0.00421938
-0.00441411
-0.00458399
-0.00472452
-0.00483158
-0.00490161
-0.00493182
-0.0049203
-0.00486625
-0.00477034
-0.00463507
-0.00446043
-0.00425388
-0.00402056
-0.00376732
-0.00350219
-0.00323406
-0.00297232
-0.00272659
-0.00250638
-0.00232063
-0.0021774
-0.00208349
-0.00204408
-0.00206248
-0.00213998
-0.00227569
-0.00246665
-0.0027079
-0.00299275
-0.00331316
-0.00366007
-0.00402395
-0.00439524
-0.00476478
-0.00512424
-0.00546642
-0.0057855
-0.00607708
-0.00633827
-0.0065675
-0.00676439
-0.00692943
-0.00706371
-0.00716851
-0.00724495
-0.0072936
-0.00731485
-0.00730821
-0.00726248
-0.0071625
0.000621775
0.000545583
0.000473428
0.000399802
0.000320876
0.000237039
0.000148234
5.38534e-05
-4.68703e-05
-0.000154816
-0.000270952
-0.0003963
-0.000531916
-0.00067884
-0.000838066
-0.00101049
-0.00119686
-0.0013977
-0.00161328
-0.00184349
-0.00208782
-0.00234529
-0.00261435
-0.00289289
-0.00317819
-0.00346695
-0.00375525
-0.00403867
-0.00431237
-0.00457118
-0.00480974
-0.00502274
-0.00520502
-0.00535182
-0.00545897
-0.0055231
-0.00554181
-0.00551386
-0.00543909
-0.00531834
-0.00515663
-0.00495627
-0.00472331
-0.00446488
-0.00418914
-0.00390519
-0.00362277
-0.00335198
-0.00310289
-0.00288515
-0.00270761
-0.00257792
-0.00250216
-0.00248453
-0.00252716
-0.00262994
-0.00279054
-0.00300447
-0.00326536
-0.00356526
-0.00389507
-0.00424502
-0.00460519
-0.00496598
-0.00531859
-0.00565535
-0.00597
-0.00625781
-0.00651564
-0.00674183
-0.00693595
-0.00709862
-0.00723107
-0.00733479
-0.00741111
-0.00746081
-0.00748441
-0.0074815
-0.00744189
-0.00735186
0.000783055
0.000679855
0.000590453
0.00050571
0.000418827
0.000329463
0.000236865
0.000139666
3.64396e-05
-7.42529e-05
-0.00019388
-0.000323922
-0.00046585
-0.000621105
-0.000791061
-0.000976972
-0.00117991
-0.00140071
-0.00163986
-0.00189742
-0.00217298
-0.00246553
-0.00277342
-0.00309433
-0.0034252
-0.00376229
-0.00410118
-0.00443684
-0.00476378
-0.00507613
-0.00536781
-0.00563277
-0.00586514
-0.00605945
-0.00621086
-0.00631535
-0.00636995
-0.00637287
-0.0063235
-0.00622242
-0.00607328
-0.00587923
-0.00564589
-0.0053802
-0.00509037
-0.00478565
-0.00447613
-0.00417238
-0.0038851
-0.00362475
-0.0034011
-0.00322285
-0.0030972
-0.00302953
-0.00302308
-0.00307884
-0.00319542
-0.00336912
-0.00359414
-0.00386286
-0.0041663
-0.00449458
-0.00483744
-0.00518485
-0.00552743
-0.00585691
-0.00616645
-0.0064508
-0.00670638
-0.00693119
-0.00712464
-0.00728726
-0.00742027
-0.00752529
-0.0076038
-0.00765677
-0.00768487
-0.00768785
-0.00765685
-0.00757998
0.000945997
0.000813954
0.000706285
0.000609794
0.000514359
0.000418733
0.000321327
0.000219908
0.000112311
-3.52963e-06
-0.000129622
-0.000267936
-0.000420395
-0.000588864
-0.000775118
-0.000980786
-0.00120728
-0.00145571
-0.00172678
-0.0020207
-0.00233706
-0.00267479
-0.00303204
-0.00340617
-0.00379369
-0.00419034
-0.00459106
-0.00499015
-0.00538134
-0.00575801
-0.00611327
-0.00644028
-0.00673235
-0.00698327
-0.00718743
-0.0073401
-0.00743762
-0.00747757
-0.00745875
-0.0073813
-0.0072481
-0.00706211
-0.00682863
-0.00655441
-0.00624757
-0.00591749
-0.00557451
-0.00522965
-0.00489431
-0.00457978
-0.00429692
-0.00405564
-0.0038645
-0.00373034
-0.00365789
-0.00364957
-0.00370532
-0.0038226
-0.00399654
-0.00422016
-0.00448486
-0.00478079
-0.00509752
-0.00542457
-0.00575195
-0.00607068
-0.00637317
-0.00665343
-0.00690721
-0.00713198
-0.00732672
-0.00749162
-0.00762779
-0.00773678
-0.00782009
-0.00787884
-0.00791378
-0.00792482
-0.00790454
-0.0078431
0.00110366
0.000941449
0.000814831
0.000706198
0.000601768
0.000499213
0.000395959
0.000288792
0.000174732
5.1034e-05
-8.48974e-05
-0.000235553
-0.000403336
-0.000590559
-0.000799414
-0.00103191
-0.0012898
-0.00157446
-0.00188676
-0.002227
-0.00259475
-0.00298875
-0.00340688
-0.00384607
-0.00430233
-0.00477074
-0.00524555
-0.00572026
-0.00618781
-0.00664068
-0.00707114
-0.00747146
-0.00783412
-0.00815203
-0.00841876
-0.00862879
-0.00877766
-0.00886218
-0.00888049
-0.00883226
-0.00871918
-0.00854413
-0.00831189
-0.00802884
-0.00770294
-0.00734354
-0.00696115
-0.00656722
-0.00617378
-0.00579304
-0.00543698
-0.00511693
-0.00484302
-0.00462385
-0.00446598
-0.00437368
-0.00434867
-0.00439001
-0.0044942
-0.00465534
-0.00486551
-0.00511523
-0.00539403
-0.00569107
-0.00599577
-0.00629834
-0.00659025
-0.00686458
-0.00711617
-0.00734165
-0.0075393
-0.00770876
-0.00785074
-0.00796651
-0.00805746
-0.00812467
-0.0081689
-0.0081901
-0.00818234
-0.00813781
0.00124859
0.00105527
0.000909316
0.000788347
0.000674587
0.000564444
0.000454219
0.000339611
0.000216745
8.21471e-05
-6.74055e-05
-0.000234957
-0.000423414
-0.000635557
-0.000874009
-0.00114116
-0.00143908
-0.00176938
-0.00213308
-0.00253049
-0.00296105
-0.00342328
-0.00391467
-0.00443164
-0.00496958
-0.00552284
-0.00608488
-0.00664835
-0.00720527
-0.0077472
-0.00826549
-0.00875146
-0.00919665
-0.00959305
-0.00993333
-0.010211
-0.0104209
-0.0105587
-0.010622
-0.0106095
-0.0105221
-0.0103622
-0.0101337
-0.00984274
-0.00949683
-0.00910517
-0.00867835
-0.00822809
-0.00776699
-0.00730816
-0.00686477
-0.00644961
-0.00607462
-0.00575041
-0.00548572
-0.0052871
-0.00515852
-0.0051012
-0.00511353
-0.00519121
-0.00532747
-0.00551356
-0.00573929
-0.00599365
-0.00626548
-0.00654416
-0.00682008
-0.00708515
-0.007333
-0.00755914
-0.00776082
-0.00793682
-0.00808714
-0.00821253
-0.008314
-0.00839243
-0.00844842
-0.00848184
-0.0084881
-0.00846136
0.00137263
0.00114774
0.000982342
0.000848995
0.000725631
0.000607207
0.000488764
0.000364816
0.000230529
8.16489e-05
-8.57096e-05
-0.000275172
-0.000490173
-0.000733976
-0.00100964
-0.00131993
-0.0016672
-0.00205328
-0.00247925
-0.00294538
-0.00345091
-0.00399403
-0.00457175
-0.0051799
-0.00581314
-0.00646502
-0.00712813
-0.00779417
-0.00845419
-0.00909878
-0.00971826
-0.010303
-0.0108434
-0.0113305
-0.0117561
-0.0121126
-0.0123938
-0.0125947
-0.0127116
-0.0127425
-0.0126874
-0.0125478
-0.0123269
-0.0120303
-0.0116648
-0.0112394
-0.0107645
-0.010252
-0.00971496
-0.0091672
-0.00862305
-0.00809683
-0.00760236
-0.00715246
-0.00675839
-0.00642937
-0.00617215
-0.00599065
-0.00588579
-0.00585549
-0.00589474
-0.00599607
-0.00614995
-0.00634551
-0.00657119
-0.00681552
-0.00706773
-0.00731832
-0.00755944
-0.00778511
-0.00799117
-0.0081752
-0.0083361
-0.00847379
-0.00858864
-0.00868105
-0.00875124
-0.00879885
-0.00882044
-0.00881195
0.00146715
0.00121066
0.00102598
0.000880328
0.000747098
0.000619622
0.000491558
0.000356148
0.000207544
4.06687e-05
-0.000149057
-0.000365866
-0.00061374
-0.000896435
-0.00121744
-0.00157989
-0.0019864
-0.00243893
-0.00293861
-0.00348554
-0.00407872
-0.00471588
-0.00539348
-0.00610664
-0.00684922
-0.0076139
-0.00839229
-0.00917508
-0.0099523
-0.0107134
-0.0114478
-0.0121445
-0.0127932
-0.0133836
-0.0139064
-0.0143531
-0.0147164
-0.0149902
-0.01517
-0.0152527
-0.0152372
-0.015124
-0.0149159
-0.0146171
-0.0142341
-0.0137753
-0.0132507
-0.0126721
-0.0120529
-0.0114073
-0.0107509
-0.0100991
-0.00946794
-0.00887234
-0.00832633
-0.00784218
-0.00742987
-0.00709663
-0.0068466
-0.00668061
-0.0065962
-0.00658781
-0.00664721
-0.0067641
-0.00692684
-0.00712323
-0.00734127
-0.0075699
-0.00779947
-0.00802212
-0.0082319
-0.0084247
-0.00859796
-0.00875034
-0.00888122
-0.00899025
-0.00907703
-0.0091407
-0.00917885
-0.00918884
0.00152306
0.00123546
0.0010319
0.000874092
0.000730709
0.000593299
0.000454031
0.00030481
0.000138721
-5.01668e-05
-0.000267152
-0.0005171
-0.000804554
-0.00113377
-0.00150866
-0.00193268
-0.00240869
-0.00293874
-0.00352388
-0.00416402
-0.00485777
-0.00560235
-0.00639354
-0.00722569
-0.00809176
-0.00898344
-0.0098913
-0.010805
-0.0117133
-0.0126047
-0.0134672
-0.014289
-0.0150584
-0.0157641
-0.0163957
-0.0169436
-0.0173994
-0.0177559
-0.0180076
-0.0181504
-0.0181822
-0.0181025
-0.0179129
-0.017617
-0.0172203
-0.0167304
-0.0161568
-0.0155111
-0.0148062
-0.0140571
-0.0132797
-0.012491
-0.0117083
-0.0109491
-0.0102301
-0.00956693
-0.00897309
-0.0084597
-0.0080348
-0.00770297
-0.00746512
-0.00731847
-0.00725689
-0.0072713
-0.00735046
-0.00748173
-0.00765198
-0.00784844
-0.0080594
-0.00827474
-0.00848623
-0.00868758
-0.00887428
-0.00904329
-0.00919258
-0.0093207
-0.00942634
-0.00950795
-0.00956369
-0.00959242
0.00153108
0.00121331
0.000991513
0.000821752
0.000667877
0.000519525
0.000367287
0.000201682
1.46977e-05
-0.000200479
-0.000449889
-0.000739045
-0.00107306
-0.00145669
-0.00189424
-0.0023895
-0.00294547
-0.00356423
-0.0042467
-0.00499249
-0.00579974
-0.00666503
-0.00758338
-0.00854825
-0.0095516
-0.0105841
-0.0116351
-0.012693
-0.0137456
-0.0147801
-0.0157832
-0.0167419
-0.0176434
-0.0184752
-0.0192259
-0.0198847
-0.0204422
-0.0208902
-0.0212222
-0.021433
-0.0215195
-0.0214804
-0.0213161
-0.0210291
-0.020624
-0.0201076
-0.0194884
-0.0187774
-0.0179872
-0.0171326
-0.0162298
-0.0152966
-0.0143519
-0.0134149
-0.0125052
-0.0116416
-0.0108415
-0.0101203
-0.00949061
-0.00896149
-0.00853818
-0.00822173
-0.00800906
-0.00789325
-0.00786417
-0.00790924
-0.00801447
-0.00816539
-0.00834802
-0.0085496
-0.00875911
-0.00896754
-0.00916786
-0.00935481
-0.00952448
-0.00967391
-0.00980053
-0.00990184
-0.00997638
-0.0100242
0.00148187
0.00113537
0.000896172
0.000714694
0.000549921
0.000389485
0.000222338
3.75824e-05
-0.000173912
-0.000419854
-0.000707044
-0.00104165
-0.00142936
-0.00187541
-0.00238451
-0.00296068
-0.00360705
-0.00432564
-0.00511716
-0.00598078
-0.00691409
-0.00791293
-0.00897145
-0.0100821
-0.0112357
-0.0124218
-0.0136284
-0.0148429
-0.0160515
-0.0172401
-0.0183944
-0.0195
-0.0205429
-0.0215097
-0.0223876
-0.023165
-0.0238316
-0.0243782
-0.0247973
-0.0250829
-0.0252309
-0.0252391
-0.0251068
-0.0248355
-0.0244289
-0.0238924
-0.0232337
-0.0224626
-0.0215913
-0.0206337
-0.019606
-0.0185263
-0.0174143
-0.0162909
-0.0151778
-0.014097
-0.0130697
-0.0121158
-0.0112529
-0.0104955
-0.00985384
-0.00933408
-0.00893732
-0.00865995
-0.00849397
-0.00842768
-0.00844671
-0.00853512
-0.00867657
-0.00885534
-0.00905714
-0.00926963
-0.00948264
-0.00968805
-0.00987954
-0.0100522
-0.0102018
-0.0103245
-0.0104191
-0.0104866
0.00136626
0.000992951
0.00073739
0.000544445
0.000368298
0.000194508
1.03633e-05
-0.000196464
-0.000436225
-0.000717534
-0.00104795
-0.00143431
-0.00188286
-0.00239932
-0.00298872
-0.00365532
-0.00440226
-0.00523145
-0.00614324
-0.00713631
-0.00820754
-0.00935193
-0.0105626
-0.0118309
-0.0131464
-0.0144973
-0.0158704
-0.0172516
-0.0186257
-0.0199773
-0.0212909
-0.0225507
-0.0237417
-0.0248493
-0.02586
-0.0267611
-0.0275414
-0.0281912
-0.0287021
-0.0290675
-0.0292825
-0.0293436
-0.0292498
-0.0290013
-0.0286006
-0.0280521
-0.0273622
-0.0265396
-0.0255952
-0.0245419
-0.0233953
-0.0221731
-0.0208952
-0.0195833
-0.018261
-0.0169527
-0.0156832
-0.0144767
-0.0133562
-0.0123417
-0.01145
-0.010693
-0.0100774
-0.00960436
-0.00926924
-0.00906238
-0.0089699
-0.00897488
-0.00905876
-0.00920267
-0.00938859
-0.00960025
-0.00982362
-0.010047
-0.0102612
-0.0104585
-0.0106328
-0.0107787
-0.0108948
-0.0109831
0.00117552
0.000777778
0.000507072
0.00030292
0.000114855
-7.36597e-05
-0.000277008
-0.000508929
-0.000780786
-0.00110209
-0.00148118
-0.00192551
-0.00244192
-0.00303653
-0.00371471
-0.00448083
-0.00533801
-0.00628791
-0.00733043
-0.00846364
-0.00968357
-0.0109842
-0.0123576
-0.0137937
-0.0152809
-0.0168058
-0.0183538
-0.0199092
-0.0214556
-0.0229761
-0.0244538
-0.0258719
-0.0272142
-0.0284653
-0.0296107
-0.0306372
-0.031533
-0.0322878
-0.0328926
-0.0333404
-0.0336255
-0.0337441
-0.033694
-0.0334749
-0.0330881
-0.0325366
-0.0318258
-0.0309627
-0.0299567
-0.0288196
-0.0275654
-0.0262109
-0.0247754
-0.0232809
-0.0217515
-0.0202134
-0.0186944
-0.0172228
-0.0158263
-0.0145313
-0.013361
-0.0123345
-0.0114655
-0.010761
-0.0102218
-0.00984158
-0.00960821
-0.00950471
-0.00951073
-0.00960428
-0.00976331
-0.009967
-0.0101967
-0.0104366
-0.0106734
-0.0108965
-0.0110971
-0.0112678
-0.0114071
-0.0115174
0.000901611
0.000482234
0.000197765
-1.73265e-05
-0.000217909
-0.000422593
-0.000647414
-0.000907486
-0.00121526
-0.00158113
-0.00201417
-0.00252251
-0.00311347
-0.0037936
-0.0045685
-0.00544261
-0.00641892
-0.00749871
-0.00868134
-0.00996409
-0.011342
-0.012808
-0.0143527
-0.0159647
-0.0176309
-0.0193363
-0.0210647
-0.0227989
-0.024521
-0.0262127
-0.0278558
-0.0294324
-0.0309255
-0.0323189
-0.0335975
-0.0347476
-0.0357571
-0.0366153
-0.0373132
-0.0378433
-0.0381997
-0.0383781
-0.0383758
-0.0381916
-0.037826
-0.0372809
-0.0365602
-0.0356695
-0.0346164
-0.0334108
-0.0320651
-0.0305944
-0.0290167
-0.0273529
-0.0256271
-0.0238663
-0.0221
-0.0203596
-0.0186775
-0.0170856
-0.0156143
-0.0142903
-0.0131352
-0.0121642
-0.0113845
-0.0107955
-0.0103882
-0.0101471
-0.0100509
-0.0100748
-0.0101927
-0.0103787
-0.0106088
-0.0108621
-0.0111207
-0.0113701
-0.0115984
-0.0117956
-0.0119597
-0.0120941
0.000537413
9.96004e-05
-0.000197103
-0.000422853
-0.000636582
-0.000858915
-0.00110748
-0.00139873
-0.00174613
-0.00216096
-0.002653
-0.00323098
-0.00390274
-0.00467516
-0.00555402
-0.00654371
-0.00764699
-0.00886465
-0.0101954
-0.0116354
-0.0131789
-0.0148171
-0.0165395
-0.0183329
-0.0201826
-0.022072
-0.023983
-0.025897
-0.0277945
-0.0296559
-0.0314618
-0.0331935
-0.0348331
-0.0363637
-0.0377702
-0.0390386
-0.0401566
-0.0411136
-0.0419007
-0.0425103
-0.0429366
-0.0431749
-0.0432223
-0.0430772
-0.0427392
-0.0422093
-0.0414899
-0.0405851
-0.0395007
-0.0382447
-0.0368273
-0.0352612
-0.0335624
-0.03175
-0.029847
-0.0278797
-0.0258782
-0.0238759
-0.0219086
-0.0200133
-0.0182269
-0.0165841
-0.0151155
-0.0138453
-0.0127895
-0.0119548
-0.011338
-0.0109266
-0.0106997
-0.0106308
-0.0106897
-0.0108452
-0.0110676
-0.0113296
-0.0116081
-0.0118837
-0.0121406
-0.012366
-0.012557
-0.0127178
7.69876e-05
-0.000375716
-0.00068299
-0.000919096
-0.0011466
-0.00138804
-0.00166258
-0.00198789
-0.00237846
-0.00284634
-0.00340202
-0.00405482
-0.00481299
-0.00568369
-0.0066728
-0.00778457
-0.00902138
-0.0103834
-0.0118685
-0.0134718
-0.015186
-0.0170012
-0.0189049
-0.0208824
-0.022917
-0.0249904
-0.0270829
-0.0291741
-0.031243
-0.0332688
-0.0352312
-0.0371106
-0.0388885
-0.0405479
-0.0420735
-0.0434515
-0.0446697
-0.045718
-0.0465876
-0.0472715
-0.0477637
-0.0480596
-0.048157
-0.0480533
-0.0477477
-0.0472404
-0.0465326
-0.045627
-0.0445277
-0.0432404
-0.0417729
-0.0401354
-0.0383412
-0.0364067
-0.0343526
-0.0322036
-0.0299889
-0.0277422
-0.0255014
-0.0233072
-0.0212022
-0.0192288
-0.0174266
-0.0158301
-0.0144655
-0.0133492
-0.012486
-0.0118687
-0.0114792
-0.0112902
-0.0112685
-0.0113777
-0.0115814
-0.0118457
-0.0121408
-0.0124418
-0.012728
-0.012983
-0.013203
-0.013393
-0.000484217
-0.00094797
-0.00126403
-0.00151015
-0.00175201
-0.00201397
-0.00231657
-0.00267865
-0.0031156
-0.00364025
-0.00426372
-0.00499583
-0.00584523
-0.00681928
-0.00792382
-0.00916287
-0.0105383
-0.0120495
-0.0136933
-0.0154636
-0.0173515
-0.0193456
-0.0214314
-0.0235926
-0.0258104
-0.0280645
-0.0303337
-0.0325959
-0.0348287
-0.0370101
-0.0391191
-0.0411354
-0.0430404
-0.044817
-0.0464501
-0.0479263
-0.049234
-0.0503635
-0.0513067
-0.0520571
-0.0526092
-0.052958
-0.0531041
-0.0530424
-0.0527721
-0.052293
-0.0516057
-0.0507114
-0.0496124
-0.0483125
-0.046817
-0.0451334
-0.0432718
-0.0412455
-0.0390718
-0.0367727
-0.0343751
-0.0319115
-0.0294199
-0.0269432
-0.0245281
-0.0222236
-0.0200779
-0.0181359
-0.0164356
-0.015005
-0.0138592
-0.0129993
-0.0124122
-0.0120725
-0.0119449
-0.0119882
-0.0121596
-0.0124174
-0.0127244
-0.0130489
-0.0133647
-0.0136507
-0.013902
-0.0141243
-0.00114917
-0.0016199
-0.00194285
-0.00219858
-0.00245533
-0.00273907
-0.00307164
-0.0034729
-0.00395908
-0.00454371
-0.00523847
-0.00605364
-0.00699817
-0.00807952
-0.00930341
-0.0106735
-0.0121909
-0.0138542
-0.0156589
-0.0175976
-0.0196598
-0.021832
-0.024098
-0.0264392
-0.0288351
-0.0312636
-0.0337014
-0.036125
-0.0385109
-0.0408361
-0.0430789
-0.0452187
-0.0472369
-0.0491168
-0.0508437
-0.0524047
-0.0537892
-0.0549883
-0.0559945
-0.0568022
-0.0574071
-0.0578066
-0.0579947
-0.0579726
-0.0577385
-0.0572914
-0.0566312
-0.0557579
-0.0546727
-0.0533773
-0.0518747
-0.0501696
-0.048269
-0.0461824
-0.0439236
-0.0415105
-0.0389667
-0.0363218
-0.0336121
-0.0308804
-0.0281759
-0.025552
-0.0230647
-0.0207688
-0.0187144
-0.0169425
-0.0154811
-0.0143425
-0.0135217
-0.0129976
-0.0127352
-0.0126898
-0.0128119
-0.0130521
-0.0133646
-0.0137099
-0.0140548
-0.0143731
-0.0146579
-0.0149158
-0.00191914
-0.00239258
-0.00272044
-0.0029853
-0.00325733
-0.00356395
-0.00392813
-0.00437064
-0.00490843
-0.00555564
-0.00632447
-0.00722557
-0.00826808
-0.00945946
-0.0108052
-0.0123084
-0.0139694
-0.0157858
-0.0177515
-0.0198577
-0.0220919
-0.0244387
-0.02688
-0.0293949
-0.031961
-0.0345542
-0.0371497
-0.0397225
-0.0422481
-0.0447027
-0.0470642
-0.0493121
-0.051428
-0.0533958
-0.0552013
-0.0568328
-0.0582804
-0.0595364
-0.0605943
-0.0614493
-0.0620979
-0.0625377
-0.0627656
-0.0627809
-0.0625822
-0.0621688
-0.06154
-0.0606954
-0.0596346
-0.058358
-0.0568666
-0.0551625
-0.0532493
-0.0511334
-0.0488241
-0.046335
-0.0436851
-0.0409
-0.0380123
-0.0350631
-0.032101
-0.0291821
-0.0263679
-0.0237218
-0.0213056
-0.0191741
-0.0173699
-0.0159193
-0.014829
-0.0140854
-0.0136565
-0.013496
-0.0135491
-0.0137579
-0.0140675
-0.0144293
-0.0148023
-0.0151536
-0.0154743
-0.0157713
-0.00279357
-0.00326535
-0.00359604
-0.00386946
-0.00415702
-0.00448739
-0.0048845
-0.00536989
-0.00596112
-0.00667286
-0.00751771
-0.00850662
-0.00964882
-0.0109517
-0.0124203
-0.0140571
-0.0158615
-0.0178297
-0.0199543
-0.0222246
-0.0246262
-0.0271417
-0.0297506
-0.0324302
-0.0351558
-0.0379018
-0.0406416
-0.0433492
-0.045999
-0.048567
-0.0510309
-0.0533703
-0.0555675
-0.057607
-0.0594757
-0.0611629
-0.06266
-0.0639601
-0.0650581
-0.0659502
-0.0666337
-0.0671068
-0.0673679
-0.0674162
-0.0672507
-0.0668707
-0.0662755
-0.0654641
-0.0644355
-0.0631888
-0.0617234
-0.0600391
-0.0581368
-0.0560194
-0.0536921
-0.051164
-0.0484489
-0.0455672
-0.0425466
-0.0394239
-0.0362455
-0.0330672
-0.0299532
-0.0269736
-0.0242003
-0.0217016
-0.0195359
-0.0177457
-0.0163526
-0.0153543
-0.0147255
-0.014421
-0.0143818
-0.0145427
-0.0148389
-0.0152118
-0.0156108
-0.0159957
-0.0163543
-0.0166941
-0.00377002
-0.00423574
-0.00456712
-0.0048484
-0.00515155
-0.00550626
-0.00593725
-0.00646665
-0.00711256
-0.00789002
-0.00881198
-0.00988953
-0.0111319
-0.0125463
-0.0141372
-0.0159064
-0.0178521
-0.019969
-0.0222483
-0.0246771
-0.0272392
-0.0299148
-0.0326815
-0.0355144
-0.0383869
-0.0412716
-0.0441407
-0.0469671
-0.0497247
-0.0523892
-0.0549384
-0.0573526
-0.0596146
-0.06171
-0.0636268
-0.0653554
-0.0668886
-0.0682206
-0.0693476
-0.0702668
-0.0709765
-0.0714756
-0.0717635
-0.0718398
-0.071704
-0.0713557
-0.0707941
-0.0700182
-0.0690265
-0.0678173
-0.0663887
-0.0647388
-0.0628664
-0.0607711
-0.0584544
-0.055921
-0.0531794
-0.050244
-0.0471369
-0.0438889
-0.0405417
-0.0371484
-0.0337729
-0.030489
-0.0273764
-0.0245153
-0.0219799
-0.0198305
-0.0181063
-0.0168203
-0.0159578
-0.0154782
-0.0153213
-0.0154151
-0.0156851
-0.0160618
-0.0164839
-0.016902
-0.0173005
-0.0176867
-0.00484423
-0.0052995
-0.00562938
-0.00591768
-0.00623626
-0.00661556
-0.00708095
-0.00765499
-0.00835614
-0.00919974
-0.0101989
-0.0113649
-0.0127068
-0.0142314
-0.0159426
-0.0178412
-0.0199242
-0.0221849
-0.0246125
-0.0271923
-0.0299058
-0.0327312
-0.0356438
-0.0386168
-0.0416219
-0.04463
-0.0476123
-0.0505408
-0.0533892
-0.0561332
-0.0587509
-0.0612234
-0.0635345
-0.0656708
-0.0676215
-0.0693786
-0.0709357
-0.0722886
-0.0734344
-0.0743716
-0.0750993
-0.0756173
-0.0759258
-0.0760248
-0.0759146
-0.0755951
-0.0750656
-0.0743253
-0.0733724
-0.0722049
-0.0708201
-0.0692149
-0.0673863
-0.0653315
-0.0630489
-0.0605388
-0.0578049
-0.0548559
-0.0517069
-0.0483823
-0.0449171
-0.0413589
-0.0377687
-0.0342206
-0.0307988
-0.0275931
-0.024692
-0.0221739
-0.0200977
-0.0184952
-0.0173666
-0.0166803
-0.0163779
-0.016383
-0.0166119
-0.0169834
-0.0174244
-0.017875
-0.0183148
-0.0187509
-0.00601011
-0.00645063
-0.00677678
-0.00707112
-0.0074047
-0.00780852
-0.00830838
-0.0089271
-0.00968337
-0.0105927
-0.0116684
-0.0129215
-0.014361
-0.0159931
-0.0178211
-0.0198446
-0.0220593
-0.0244569
-0.0270247
-0.029746
-0.0326003
-0.0355634
-0.0386088
-0.0417075
-0.0448298
-0.0479453
-0.0510242
-0.0540381
-0.0569605
-0.0597675
-0.0624378
-0.0649533
-0.067299
-0.0694626
-0.0714348
-0.0732086
-0.074779
-0.0761431
-0.0772991
-0.0782463
-0.0789849
-0.0795154
-0.0798386
-0.0799554
-0.0798665
-0.0795721
-0.079072
-0.0783656
-0.0774512
-0.0763267
-0.0749891
-0.0734346
-0.071659
-0.0696576
-0.0674265
-0.0649625
-0.0622648
-0.0593365
-0.0561864
-0.0528311
-0.0492982
-0.0456278
-0.0418753
-0.0381113
-0.0344212
-0.030901
-0.0276509
-0.0247662
-0.0223266
-0.0203855
-0.0189619
-0.0180379
-0.0175613
-0.0174541
-0.0176247
-0.0179802
-0.0184346
-0.0189161
-0.0193983
-0.0198875
-0.0072599
-0.00768152
-0.00800168
-0.00830091
-0.00864881
-0.00907669
-0.0096106
-0.0102735
-0.0110841
-0.012058
-0.0132084
-0.0145463
-0.0160802
-0.017816
-0.0197558
-0.0218982
-0.0242375
-0.0267637
-0.0294621
-0.0323142
-0.035297
-0.0383847
-0.0415484
-0.0447579
-0.0479816
-0.0511882
-0.0543474
-0.0574305
-0.0604111
-0.0632656
-0.0659739
-0.0685187
-0.0708861
-0.0730653
-0.0750481
-0.0768288
-0.0784038
-0.0797711
-0.08093
-0.0818807
-0.0826241
-0.0831616
-0.0834946
-0.0836246
-0.0835525
-0.0832793
-0.0828052
-0.0821298
-0.0812519
-0.0801695
-0.0788794
-0.0773779
-0.0756599
-0.0737199
-0.071552
-0.0691504
-0.0665107
-0.0636311
-0.0605142
-0.0571694
-0.0536158
-0.049885
-0.0460242
-0.042098
-0.0381888
-0.0343947
-0.0308243
-0.0275877
-0.0247843
-0.0224907
-0.0207487
-0.0195587
-0.0188793
-0.0186348
-0.0187281
-0.0190552
-0.0195161
-0.0200259
-0.0205511
-0.0210965
-0.0085843
-0.00898309
-0.009295
-0.00959781
-0.00995905
-0.0104101
-0.0109772
-0.0116831
-0.0125465
-0.0135829
-0.0148055
-0.0162248
-0.0178491
-0.0196832
-0.0217287
-0.0239828
-0.0264383
-0.0290834
-0.0319017
-0.0348724
-0.0379709
-0.0411691
-0.0444365
-0.0477413
-0.0510507
-0.0543328
-0.0575567
-0.0606936
-0.0637177
-0.066606
-0.0693393
-0.0719014
-0.0742797
-0.0764646
-0.0784492
-0.080229
-0.0818016
-0.0831658
-0.0843219
-0.0852709
-0.0860146
-0.0865547
-0.0868932
-0.0870321
-0.086973
-0.0867171
-0.0862652
-0.0856172
-0.0847724
-0.0837292
-0.0824849
-0.0810355
-0.0793762
-0.0775009
-0.0754025
-0.0730736
-0.070507
-0.0676969
-0.0646406
-0.0613406
-0.0578078