/*--------------------------------*- C++ -*----------------------------------*\
  =========                 |
  \\      /  F ield         | OpenFOAM: The Open Source CFD Toolbox
   \\    /   O peration     | Website:  https://openfoam.org
    \\  /    A nd           | Version:  7
     \\/     M anipulation  |
\*---------------------------------------------------------------------------*/
FoamFile
{
    version     2.0;
    format      ascii;
    class       volScalarField;
    location    "2.675";
    object      p;
}
// * * * * * * * * * * * * * * * * * * * * * * * * * * * * * * * * * * * * * //

dimensions      [0 2 -2 0 0 0 0];

internalField   nonuniform List<scalar> 
6400
(
-7.2597e-09
1.40726e-05
3.20071e-06
-3.60089e-05
-0.000101335
-0.000189473
-0.0002968
-0.000420012
-0.000556433
-0.000704038
-0.000861358
-0.00102736
-0.00120129
-0.00138257
-0.00157067
-0.00176498
-0.00196477
-0.00216913
-0.00237687
-0.00258655
-0.00279642
-0.00300443
-0.00320821
-0.0034051
-0.00359219
-0.0037663
-0.00392411
-0.00406216
-0.00417697
-0.00426512
-0.00432334
-0.00434869
-0.00433861
-0.00429111
-0.0042049
-0.00407951
-0.00391539
-0.00371405
-0.0034781
-0.00321135
-0.00291875
-0.00260616
-0.00228088
-0.0019508
-0.00162456
-0.00131126
-0.00102015
-0.00076037
-0.000540562
-0.000368566
-0.000251097
-0.000193453
-0.000199275
-0.000270369
-0.000406612
-0.000605937
-0.000864401
-0.00117635
-0.00153486
-0.0019314
-0.00235707
-0.00280235
-0.00325767
-0.00371372
-0.00416178
-0.00459395
-0.00500328
-0.00538391
-0.00573104
-0.0060409
-0.0063106
-0.00653801
-0.00672162
-0.00686044
-0.0069541
-0.00700324
-0.00701048
-0.00698241
-0.00693187
-0.00687775
-1.50215e-05
-8.82244e-07
-1.3285e-05
-5.07749e-05
-0.000110205
-0.000189428
-0.000285979
-0.000397415
-0.00052163
-0.000656934
-0.000802034
-0.000955936
-0.00111789
-0.00128728
-0.00146353
-0.00164601
-0.00183401
-0.00202664
-0.00222281
-0.00242119
-0.00262018
-0.00281792
-0.00301226
-0.00320079
-0.00338083
-0.00354951
-0.00370376
-0.00384041
-0.00395623
-0.00404802
-0.00411274
-0.0041476
-0.00415016
-0.00411848
-0.00405127
-0.00394797
-0.00380889
-0.0036353
-0.00342952
-0.00319495
-0.00293607
-0.00265836
-0.00236836
-0.00207342
-0.00178154
-0.00150116
-0.00124088
-0.00100917
-0.000814103
-0.000662956
-0.000561974
-0.000516074
-0.000528619
-0.000601257
-0.000733832
-0.000924375
-0.00116918
-0.00146297
-0.00179914
-0.00217002
-0.00256715
-0.00298179
-0.00340511
-0.00382858
-0.00424421
-0.00464478
-0.005024
-0.00537658
-0.00569822
-0.00598562
-0.00623633
-0.00644866
-0.00662162
-0.0067548
-0.00684849
-0.00690385
-0.0069237
-0.00691321
-0.0068777
-0.00682351
-4.49706e-06
1.05807e-05
-2.45773e-06
-3.92923e-05
-9.57283e-05
-0.000169875
-0.000259741
-0.000363361
-0.000479007
-0.000605283
-0.0007411
-0.000885606
-0.00103814
-0.00119815
-0.00136512
-0.00153848
-0.00171759
-0.00190164
-0.00208965
-0.00228042
-0.00247251
-0.0026642
-0.00285354
-0.00303828
-0.00321595
-0.00338383
-0.00353903
-0.00367853
-0.00379919
-0.00389794
-0.00397175
-0.00401784
-0.00403374
-0.00401743
-0.00396746
-0.00388309
-0.00376442
-0.00361245
-0.00342922
-0.00321778
-0.00298222
-0.00272787
-0.00246078
-0.00218797
-0.00191711
-0.00165633
-0.00141396
-0.00119822
-0.00101693
-0.000877206
-0.000785129
-0.000745502
-0.00076161
-0.000835058
-0.000965686
-0.00115156
-0.00138906
-0.00167302
-0.00199697
-0.00235344
-0.00273437
-0.00313111
-0.00353527
-0.00393869
-0.00433378
-0.00471374
-0.00507272
-0.00540587
-0.00570936
-0.00598031
-0.00621671
-0.00641733
-0.00658157
-0.0067094
-0.00680128
-0.0068583
-0.00688269
-0.00687779
-0.00684234
-0.00677314
3.62113e-05
4.78352e-05
3.21121e-05
-5.88694e-06
-6.1677e-05
-0.000133358
-0.000219207
-0.000317508
-0.000426861
-0.000546154
-0.000674535
-0.000811357
-0.000956129
-0.00110844
-0.00126789
-0.00143405
-0.00160639
-0.00178425
-0.00196679
-0.00215294
-0.00234142
-0.00253067
-0.00271889
-0.00290398
-0.00308359
-0.00325511
-0.00341574
-0.00356246
-0.00369219
-0.00380178
-0.00388813
-0.00394832
-0.00397971
-0.00398007
-0.0039477
-0.0038816
-0.00378157
-0.00364833
-0.00348361
-0.0032902
-0.00307191
-0.00283381
-0.0025818
-0.00232272
-0.00206413
-0.00181407
-0.00158083
-0.00137264
-0.00119735
-0.00106212
-0.000973115
-0.000935207
-0.000951753
-0.00102442
-0.0011531
-0.00133587
-0.00156911
-0.00184766
-0.00216503
-0.00251372
-0.00288559
-0.00327219
-0.00366505
-0.00405616
-0.0044381
-0.0048043
-0.00514921
-0.0054683
-0.00575814
-0.00601627
-0.00624111
-0.00643185
-0.00658826
-0.00671054
-0.00679923
-0.00685505
-0.00687946
-0.0068742
-0.00683306
-0.00674639
0.000105999
0.000108438
8.67784e-05
4.55105e-05
-1.15349e-05
-8.25206e-05
-0.000165911
-0.000260334
-0.00036471
-0.000478231
-0.000600324
-0.000730594
-0.000868769
-0.00101463
-0.00116798
-0.00132855
-0.00149599
-0.0016698
-0.00184932
-0.00203367
-0.0022217
-0.00241205
-0.00260301
-0.00279262
-0.00297862
-0.00315844
-0.00332927
-0.00348806
-0.00363162
-0.00375665
-0.00385986
-0.00393809
-0.00398839
-0.00400823
-0.00399559
-0.00394912
-0.00386827
-0.00375343
-0.00360604
-0.00342865
-0.00322481
-0.00299941
-0.00275825
-0.0025081
-0.00225652
-0.00201161
-0.00178175
-0.00157532
-0.00140037
-0.00126427
-0.00117339
-0.00113281
-0.00114611
-0.00121509
-0.00133978
-0.00151832
-0.00174711
-0.00202093
-0.00233322
-0.00267637
-0.00304209
-0.0034218
-0.00380698
-0.00418951
-0.00456201
-0.00491799
-0.00525207
-0.00555998
-0.0058386
-0.00608584
-0.00630055
-0.00648231
-0.00663124
-0.00674782
-0.00683261
-0.00688607
-0.00690907
-0.00690218
-0.006856
-0.00675694
0.000202174
0.000190509
0.000159702
0.00011313
5.30601e-05
-1.88331e-05
-0.000101246
-0.000193182
-0.000293929
-0.000403022
-0.000520213
-0.000645395
-0.000778558
-0.000919736
-0.00106896
-0.00122618
-0.00139127
-0.00156394
-0.00174372
-0.00192993
-0.00212159
-0.00231747
-0.002516
-0.00271528
-0.00291308
-0.0031068
-0.00329355
-0.00347014
-0.00363315
-0.00377903
-0.00390418
-0.00400507
-0.00407838
-0.00412118
-0.00413101
-0.00410614
-0.00404563
-0.00394952
-0.00381894
-0.00365624
-0.00346468
-0.00324908
-0.00301514
-0.00276965
-0.00252025
-0.00227519
-0.00204305
-0.0018325
-0.00165186
-0.00150887
-0.00141024
-0.00136142
-0.0013663
-0.00142699
-0.00154373
-0.00171484
-0.00193677
-0.00220432
-0.00251083
-0.00284853
-0.00320896
-0.00358329
-0.00396278
-0.00433915
-0.00470486
-0.00505338
-0.00537936
-0.00567866
-0.00594838
-0.00618674
-0.00639294
-0.00656692
-0.00670916
-0.00682038
-0.00690126
-0.00695216
-0.00697357
-0.00696536
-0.0069165
-0.00681154
0.000320894
0.000290853
0.000248643
0.000194778
0.000130035
5.57996e-05
-2.6995e-05
-0.000117797
-0.000216318
-0.000322489
-0.00043642
-0.000558336
-0.000688531
-0.000827332
-0.000975035
-0.00113187
-0.00129794
-0.00147322
-0.00165745
-0.00185013
-0.00205049
-0.00225739
-0.00246937
-0.00268454
-0.00290061
-0.0031149
-0.0033243
-0.00352538
-0.0037144
-0.00388744
-0.00404047
-0.00416949
-0.00427073
-0.00434073
-0.00437659
-0.0043761
-0.0043379
-0.00426163
-0.00414817
-0.0039998
-0.00381898
-0.0036109
-0.00338113
-0.00313649
-0.00288474
-0.00263433
-0.00239414
-0.00217316
-0.00198015
-0.0018233
-0.00170982
-0.00164566
-0.00163519
-0.00168097
-0.00178363
-0.00194177
-0.00215207
-0.00240937
-0.00270702
-0.00303712
-0.00339097
-0.0037595
-0.00413365
-0.00450484
-0.00486527
-0.00520823
-0.00552823
-0.00582116
-0.00608419
-0.00631574
-0.00651526
-0.00668302
-0.0068198
-0.00692659
-0.00700424
-0.00705315
-0.00707368
-0.00706536
-0.00701671
-0.00691198
0.00045764
0.000405992
0.000350015
0.000287332
0.000216636
0.000138854
5.44787e-05
-3.64726e-05
-0.000134206
-0.000239097
-0.000351654
-0.000472473
-0.000602196
-0.000741468
-0.000890899
-0.00105101
-0.00122221
-0.0014047
-0.00159849
-0.00180327
-0.00201841
-0.0022429
-0.00247529
-0.00271364
-0.00295554
-0.0031981
-0.00343794
-0.00367124
-0.00389385
-0.00410135
-0.00428917
-0.00445279
-0.00458783
-0.0046903
-0.00475676
-0.00478449
-0.00477166
-0.0047175
-0.00462269
-0.00448972
-0.00431853
-0.00411649
-0.0038886
-0.00364159
-0.00338333
-0.0031225
-0.00286831
-0.00263017
-0.00241734
-0.00223858
-0.00210173
-0.00201342
-0.00197868
-0.00200071
-0.00208071
-0.00221778
-0.00240897
-0.00264938
-0.00293244
-0.00325021
-0.00359383
-0.00395394
-0.00432114
-0.00468646
-0.00504174
-0.00537993
-0.00569529
-0.00598353
-0.00624179
-0.00646853
-0.00666335
-0.00682673
-0.00695971
-0.00706353
-0.00713926
-0.00718745
-0.00720847
-0.0072018
-0.00715637
-0.00705714
0.000607381
0.000531429
0.000459878
0.000387187
0.000309495
0.000227165
0.000140128
4.77627e-05
-5.07e-05
-0.000156133
-0.000269492
-0.00039178
-0.000524018
-0.000667206
-0.000822296
-0.000990139
-0.00117144
-0.0013667
-0.00157614
-0.00179967
-0.00203678
-0.00228651
-0.00254736
-0.00281731
-0.00309372
-0.00337338
-0.00365251
-0.00392684
-0.00419167
-0.00444198
-0.00467259
-0.00487833
-0.00505419
-0.00519556
-0.00529837
-0.00535935
-0.00537617
-0.00534762
-0.00527364
-0.00515522
-0.00499651
-0.00480053
-0.00457306
-0.00432104
-0.00405247
-0.00377623
-0.00350188
-0.00323929
-0.00299831
-0.00278837
-0.0026181
-0.00249496
-0.00242486
-0.00241186
-0.00245801
-0.00256313
-0.0027249
-0.00293888
-0.00319878
-0.00349678
-0.00382394
-0.00417066
-0.00452721
-0.00488418
-0.00523294
-0.00556596
-0.0058771
-0.00616174
-0.00641679
-0.00664061
-0.00683278
-0.00699389
-0.00712512
-0.00722792
-0.00730357
-0.00735283
-0.00737617
-0.00737319
-0.00733376
-0.00724427
0.000764568
0.000662096
0.000573619
0.000490024
0.000404541
0.000316824
0.000226117
0.000131052
3.02169e-05
-7.78116e-05
-0.000194482
-0.000321241
-0.000459515
-0.000610693
-0.000776094
-0.000956923
-0.0011542
-0.00136872
-0.00160094
-0.00185092
-0.00211826
-0.00240198
-0.00270051
-0.00301159
-0.00333228
-0.00365896
-0.00398736
-0.00431261
-0.00462939
-0.00493199
-0.00521454
-0.00547113
-0.00569605
-0.00588399
-0.00603022
-0.00613082
-0.0061829
-0.00618473
-0.00613564
-0.00603596
-0.00589022
-0.00570063
-0.00547287
-0.00521381
-0.00493148
-0.00463496
-0.00433412
-0.00403931
-0.00376101
-0.00350944
-0.00329415
-0.00312362
-0.00300486
-0.00294309
-0.00294145
-0.00300084
-0.00311983
-0.00329475
-0.00351988
-0.0037877
-0.00408937
-0.00441518
-0.00475508
-0.00509921
-0.00543837
-0.00576447
-0.00607078
-0.00635218
-0.00660514
-0.00682771
-0.00701931
-0.00718042
-0.00731226
-0.00741639
-0.00749424
-0.00754675
-0.00757455
-0.00757738
-0.00754642
-0.00746987
0.000923099
0.000792334
0.000685933
0.000590815
0.000496956
0.00040313
0.000307764
0.000208642
0.000103625
-9.32286e-06
-0.000132181
-0.000266868
-0.000415252
-0.000579139
-0.000760239
-0.000960118
-0.00118013
-0.00142135
-0.00168445
-0.00196963
-0.00227652
-0.00260408
-0.00295054
-0.00331336
-0.00368919
-0.0040739
-0.00446261
-0.00484979
-0.00522938
-0.00559493
-0.00593975
-0.00625717
-0.00654069
-0.00678422
-0.0069823
-0.0071303
-0.00722464
-0.00726293
-0.00724401
-0.00716798
-0.00703767
-0.00685601
-0.00662819
-0.00636082
-0.00606186
-0.0057405
-0.00540687
-0.00507179
-0.00474641
-0.0044418
-0.00416855
-0.00393636
-0.00375359
-0.00362688
-0.00356081
-0.00355769
-0.00361741
-0.00373742
-0.00391286
-0.00413689
-0.00440098
-0.00469548
-0.00501013
-0.00533464
-0.00565921
-0.00597503
-0.00627466
-0.00655223
-0.0068036
-0.00702626
-0.00721921
-0.00738267
-0.00751769
-0.00762578
-0.00770841
-0.00776664
-0.0078012
-0.00781199
-0.00779161
-0.00773025
0.0010762
0.00091584
0.000790842
0.000683814
0.000581146
0.00048056
0.000379524
0.000274865
0.000163641
4.31532e-05
-8.91484e-05
-0.000235697
-0.000398827
-0.00058078
-0.000783677
-0.00100946
-0.00125982
-0.00153607
-0.0018391
-0.00216919
-0.00252593
-0.00290816
-0.00331384
-0.00374002
-0.00418286
-0.00463761
-0.00509872
-0.00555989
-0.00601426
-0.00645452
-0.00687315
-0.00726261
-0.00761553
-0.007925
-0.00818471
-0.00838925
-0.00853422
-0.0086165
-0.00863425
-0.00858712
-0.00847673
-0.00830594
-0.00807943
-0.00780345
-0.0074858
-0.00713565
-0.00676333
-0.00638007
-0.00599765
-0.00562805
-0.00528301
-0.0049736
-0.00470973
-0.00449978
-0.00435014
-0.00426492
-0.00424574
-0.00429163
-0.00439908
-0.00456224
-0.0047733
-0.00502291
-0.00530077
-0.00559625
-0.00589893
-0.00619922
-0.00648877
-0.00676077
-0.00701019
-0.00723372
-0.00742968
-0.00759773
-0.00773855
-0.00785338
-0.00794358
-0.00801018
-0.00805393
-0.00807476
-0.00806673
-0.00802206
0.00121656
0.0010257
0.000881717
0.000762581
0.000650777
0.000542792
0.000434999
0.000323163
0.000203468
7.24997e-05
-7.29038e-05
-0.000235716
-0.000418768
-0.000624759
-0.000856231
-0.00111551
-0.00140459
-0.00172506
-0.00207792
-0.00246349
-0.00288129
-0.0033299
-0.00380694
-0.00430899
-0.0048316
-0.00536933
-0.00591585
-0.00646402
-0.0070061
-0.00753388
-0.0080389
-0.00851268
-0.00894695
-0.00933384
-0.00966615
-0.00993754
-0.0101428
-0.0102778
-0.01034
-0.0103283
-0.0102434
-0.0100876
-0.00986496
-0.00958125
-0.00924394
-0.00886206
-0.008446
-0.0080073
-0.00755831
-0.00711189
-0.00668098
-0.00627811
-0.00591498
-0.00560194
-0.00534754
-0.00515813
-0.00503755
-0.00498692
-0.00500459
-0.00508626
-0.00522523
-0.00541286
-0.00563911
-0.00589313
-0.00616398
-0.00644121
-0.0067154
-0.00697861
-0.00722462
-0.00744901
-0.00764911
-0.00782373
-0.00797286
-0.00809724
-0.00819787
-0.00827558
-0.00833096
-0.00836387
-0.0083697
-0.00834259
0.00133623
0.00111439
0.000951327
0.000820036
0.000698826
0.000582771
0.000467014
0.000346164
0.000215469
7.07518e-05
-9.18012e-05
-0.000275734
-0.000484395
-0.000720958
-0.000988398
-0.00128941
-0.00162631
-0.00200086
-0.00241418
-0.00286656
-0.00335733
-0.00388478
-0.00444607
-0.00503721
-0.00565307
-0.00628744
-0.00693311
-0.00758205
-0.00822554
-0.0088544
-0.00945918
-0.0100304
-0.0105587
-0.0110353
-0.011452
-0.0118015
-0.0120774
-0.0122749
-0.0123903
-0.0124217
-0.0123689
-0.0122333
-0.0120183
-0.011729
-0.0113725
-0.0109573
-0.0104938
-0.00999372
-0.00946979
-0.00893568
-0.00840547
-0.0078932
-0.00741246
-0.00697578
-0.0065942
-0.00627672
-0.00602989
-0.0058575
-0.00576036
-0.00573634
-0.00578047
-0.00588532
-0.00604149
-0.00623825
-0.00646424
-0.00670818
-0.00695948
-0.00720883
-0.00744854
-0.00767273
-0.00787736
-0.00806004
-0.00821973
-0.00835633
-0.00847021
-0.00856176
-0.00863119
-0.00867814
-0.00869914
-0.00869008
0.00142675
0.00117393
0.000991922
0.000848544
0.000717671
0.000592798
0.000467721
0.000335807
0.000191312
2.92503e-05
-0.00015487
-0.000365194
-0.000605606
-0.000879769
-0.00119109
-0.00154264
-0.00193699
-0.00237608
-0.00286106
-0.00339212
-0.00396833
-0.0045876
-0.00524654
-0.0059405
-0.00666357
-0.00740869
-0.0081677
-0.0089316
-0.00969062
-0.0104345
-0.0111528
-0.0118348
-0.0124703
-0.0130493
-0.0135624
-0.0140014
-0.0143589
-0.0146289
-0.0148068
-0.0148896
-0.0148762
-0.0147671
-0.0145647
-0.0142735
-0.0138997
-0.0134514
-0.0129388
-0.0123733
-0.011768
-0.0111373
-0.0104961
-0.00985989
-0.0092442
-0.00866385
-0.00813257
-0.00766236
-0.00726298
-0.00694146
-0.00670177
-0.00654466
-0.00646759
-0.00646504
-0.00652883
-0.00664878
-0.00681342
-0.00701072
-0.00722889
-0.00745707
-0.00768579
-0.00790734
-0.0081159
-0.00830743
-0.00847945
-0.00863066
-0.00876044
-0.00886846
-0.00895431
-0.00901718
-0.00905454
-0.0090638
0.00147928
0.00119591
0.000995361
0.000840038
0.000699226
0.000564683
0.000428757
0.000283507
0.000122144
-6.11566e-05
-0.000271595
-0.000513935
-0.00079262
-0.00111181
-0.00147535
-0.00188664
-0.00234849
-0.00286297
-0.00343119
-0.00405314
-0.00472759
-0.00545193
-0.00622215
-0.00703285
-0.00787726
-0.00874734
-0.00963395
-0.010527
-0.0114156
-0.0122883
-0.0131336
-0.0139396
-0.014695
-0.0153885
-0.0160098
-0.0165494
-0.016999
-0.0173514
-0.017601
-0.0177439
-0.0177776
-0.0177019
-0.0175181
-0.0172298
-0.0168424
-0.0163633
-0.0158021
-0.0151699
-0.0144797
-0.0137463
-0.0129852
-0.0122134
-0.0114478
-0.0107058
-0.0100036
-0.00935671
-0.00877834
-0.00827935
-0.00786758
-0.00754741
-0.00731963
-0.00718143
-0.00712665
-0.0071463
-0.00722925
-0.00736303
-0.00753471
-0.00773172
-0.00794256
-0.00815729
-0.00836784
-0.00856806
-0.00875353
-0.00892128
-0.00906935
-0.0091963
-0.00930084
-0.00938146
-0.00943628
-0.00946411
0.00148475
0.00117175
0.000953256
0.000786187
0.000635108
0.000489923
0.00034144
0.00018036
-1.18145e-06
-0.000209874
-0.000451651
-0.000731916
-0.00105568
-0.00142761
-0.00185196
-0.00233245
-0.00287209
-0.003473
-0.00413617
-0.00486135
-0.00564685
-0.0064895
-0.00738454
-0.00832573
-0.00930533
-0.0103143
-0.0113422
-0.012378
-0.0134095
-0.0144241
-0.015409
-0.0163512
-0.017238
-0.0180572
-0.0187972
-0.0194475
-0.0199986
-0.0204424
-0.0207723
-0.0209831
-0.0210716
-0.0210364
-0.0208779
-0.0205986
-0.0202029
-0.0196974
-0.0190907
-0.0183935
-0.0176184
-0.01678
-0.0158944
-0.0149791
-0.0140527
-0.0131345
-0.0122435
-0.0113983
-0.010616
-0.00991187
-0.00929805
-0.00878347
-0.00837314
-0.00806797
-0.0078648
-0.0077567
-0.00773361
-0.00778308
-0.0078913
-0.00804401
-0.00822743
-0.00842904
-0.00863802
-0.00884553
-0.00904468
-0.00923033
-0.00939868
-0.00954675
-0.0096721
-0.00977226
-0.00984573
-0.00989251
0.00143402
0.00109277
0.000857158
0.000678575
0.000516842
0.00035991
0.000196989
1.73933e-05
-0.00018784
-0.000426283
-0.000704618
-0.0010289
-0.00140473
-0.00183725
-0.00233112
-0.00289035
-0.00351808
-0.0042164
-0.00498614
-0.00582667
-0.00673578
-0.00770958
-0.00874251
-0.00982733
-0.0109552
-0.012116
-0.0132981
-0.0144891
-0.0156755
-0.0168434
-0.0179788
-0.0190675
-0.0200954
-0.0210494
-0.0219167
-0.0226857
-0.0233461
-0.0238886
-0.0243057
-0.0245915
-0.0247417
-0.0247539
-0.0246275
-0.0243639
-0.0239665
-0.0234409
-0.0227946
-0.0220375
-0.0211813
-0.0202401
-0.0192299
-0.0181687
-0.0170759
-0.0159723
-0.0148793
-0.0138187
-0.0128113
-0.0118768
-0.0110324
-0.0102923
-0.00966661
-0.00916107
-0.00877669
-0.00850976
-0.00835225
-0.00829254
-0.0083164
-0.00840809
-0.00855149
-0.00873111
-0.00893292
-0.00914481
-0.00935677
-0.00956087
-0.0097509
-0.00992208
-0.0100702
-0.0101917
-0.0102851
-0.0103514
0.00131815
0.000950507
0.000698774
0.000508924
0.000336078
0.000166169
-1.32189e-05
-0.000214174
-0.000446759
-0.000719443
-0.00103967
-0.00141414
-0.00184904
-0.00235
-0.00292204
-0.00356939
-0.00429529
-0.00510173
-0.00598924
-0.00695674
-0.00800136
-0.00911841
-0.0103014
-0.0115419
-0.01283
-0.0141541
-0.0155014
-0.0168581
-0.0182093
-0.0195398
-0.0208342
-0.0220771
-0.0232533
-0.0243484
-0.0253488
-0.0262419
-0.0270166
-0.0276628
-0.0281722
-0.0285382
-0.0287555
-0.028821
-0.0287331
-0.0284923
-0.0281008
-0.0275631
-0.0268854
-0.0260764
-0.0251468
-0.0241098
-0.0229806
-0.0217769
-0.0205185
-0.0192269
-0.0179256
-0.0166386
-0.0153906
-0.0142054
-0.0131057
-0.0121112
-0.0112381
-0.0104983
-0.00989806
-0.00943831
-0.00911437
-0.00891654
-0.00883102
-0.00884103
-0.00892824
-0.00907404
-0.00926068
-0.00947216
-0.00969471
-0.00991689
-0.0101295
-0.0103253
-0.010498
-0.0106424
-0.0107572
-0.0108441
0.00112859
0.000736855
0.000470188
0.000269326
8.48402e-05
-9.93765e-05
-0.000297379
-0.00052264
-0.000786322
-0.00109778
-0.00146522
-0.00189602
-0.0023969
-0.00297395
-0.00363254
-0.00437706
-0.00521076
-0.00613542
-0.00715121
-0.00825643
-0.00944746
-0.0107186
-0.0120624
-0.0134691
-0.0149274
-0.0164244
-0.0179457
-0.0194761
-0.0209993
-0.0224987
-0.0239575
-0.0253591
-0.0266872
-0.0279265
-0.0290625
-0.0300819
-0.0309729
-0.0317249
-0.032329
-0.0327779
-0.033066
-0.0331892
-0.0331454
-0.032934
-0.0325562
-0.0320153
-0.0313162
-0.0304663
-0.0294746
-0.0283531
-0.0271158
-0.0257793
-0.024363
-0.0228887
-0.0213804
-0.0198642
-0.0183676
-0.0169186
-0.0155446
-0.0142717
-0.0131225
-0.0121159
-0.0112651
-0.0105769
-0.0100517
-0.00968316
-0.00945912
-0.00936267
-0.00937366
-0.00947036
-0.009631
-0.00983511
-0.0100644
-0.0103031
-0.0105384
-0.0107598
-0.0109587
-0.0111278
-0.0112655
-0.0113745
0.000857455
0.000444351
0.000164095
-4.75163e-05
-0.000244221
-0.000444153
-0.000662986
-0.000915546
-0.00121407
-0.0015688
-0.00198868
-0.00248172
-0.00305522
-0.00371567
-0.00446872
-0.00531887
-0.00626926
-0.0073214
-0.00847493
-0.00972744
-0.0110744
-0.012509
-0.0140224
-0.0156037
-0.0172399
-0.0189167
-0.0206181
-0.0223273
-0.0240264
-0.0256975
-0.0273224
-0.0288835
-0.0303635
-0.0317463
-0.0330167
-0.0341611
-0.0351669
-0.0360236
-0.0367217
-0.0372539
-0.0376139
-0.0377975
-0.0378017
-0.0376254
-0.0372688
-0.0367339
-0.0360244
-0.0351461
-0.0341065
-0.0329157
-0.0315859
-0.0301323
-0.0285728
-0.0269285
-0.0252233
-0.0234842
-0.0217404
-0.0200232
-0.0183645
-0.0167962
-0.015348
-0.0140461
-0.0129119
-0.0119599
-0.0111971
-0.0106225
-0.0102272
-0.00999537
-0.00990601
-0.00993459
-0.0100552
-0.0102423
-0.0104725
-0.0107249
-0.010982
-0.0112297
-0.0114562
-0.0116516
-0.0118141
-0.0119469
0.000497756
6.63916e-05
-0.000225962
-0.000448043
-0.000657576
-0.000874671
-0.00111657
-0.00139939
-0.00173642
-0.00213875
-0.00261604
-0.00317696
-0.00382927
-0.00457989
-0.00543463
-0.00639805
-0.00747307
-0.00866079
-0.0099602
-0.011368
-0.0128786
-0.014484
-0.0161738
-0.0179355
-0.0197547
-0.0216152
-0.0234994
-0.0253888
-0.0272641
-0.029106
-0.030895
-0.0326125
-0.0342406
-0.0357623
-0.0371623
-0.0384265
-0.0395424
-0.0404993
-0.041288
-0.0419007
-0.0423315
-0.0425757
-0.0426301
-0.042493
-0.0421639
-0.0416438
-0.0409351
-0.040042
-0.0389702
-0.0377278
-0.0363249
-0.0347745
-0.0330926
-0.0312984
-0.0294148
-0.0274682
-0.0254886
-0.0235092
-0.0215656
-0.0196945
-0.0179323
-0.0163135
-0.0148678
-0.0136191
-0.0125829
-0.0117655
-0.0111632
-0.0107635
-0.0105456
-0.0104831
-0.010546
-0.0107037
-0.0109267
-0.0111882
-0.0114653
-0.0117392
-0.0119943
-0.0122177
-0.0124069
-0.012566
4.36367e-05
-0.000402535
-0.00070536
-0.000937612
-0.00116059
-0.00139628
-0.00166342
-0.00197938
-0.0023584
-0.00281239
-0.00335173
-0.00398566
-0.00472241
-0.00556921
-0.00653202
-0.0076153
-0.00882167
-0.0101517
-0.0116035
-0.0131727
-0.0148527
-0.0166337
-0.018504
-0.0204493
-0.0224534
-0.0244982
-0.0265645
-0.0286321
-0.0306802
-0.032688
-0.0346353
-0.0365024
-0.0382708
-0.0399234
-0.0414445
-0.0428202
-0.0440383
-0.045088
-0.0459607
-0.0466489
-0.0471467
-0.0474495
-0.0475542
-0.0474588
-0.047162
-0.0466642
-0.0459666
-0.0450718
-0.043984
-0.042709
-0.0412546
-0.0396312
-0.0378521
-0.0359341
-0.0338976
-0.0317676
-0.0295734
-0.0273486
-0.0251307
-0.0229606
-0.0208803
-0.0189317
-0.017154
-0.0155809
-0.0142383
-0.0131418
-0.0122958
-0.0116928
-0.0113145
-0.0111338
-0.0111178
-0.0112302
-0.0114353
-0.0116995
-0.0119936
-0.0122929
-0.0125772
-0.0128302
-0.0130483
-0.0132364
-0.000509415
-0.000966646
-0.0012782
-0.00152028
-0.00175728
-0.00201295
-0.00230742
-0.00265917
-0.0030834
-0.00359276
-0.00419829
-0.00490976
-0.00573583
-0.00668395
-0.00776012
-0.00896861
-0.0103116
-0.0117889
-0.0133977
-0.0151326
-0.0169851
-0.0189443
-0.0209964
-0.0231254
-0.025313
-0.0275395
-0.0297837
-0.0320237
-0.0342374
-0.036403
-0.038499
-0.0405054
-0.0424033
-0.0441754
-0.0458063
-0.0472824
-0.0485918
-0.0497247
-0.0506725
-0.0514286
-0.0519876
-0.052345
-0.0524982
-0.0524447
-0.0521833
-0.0517136
-0.0510359
-0.0501515
-0.049063
-0.0477741
-0.0462902
-0.0446189
-0.0427705
-0.0407585
-0.0386004
-0.0363182
-0.033939
-0.0314955
-0.0290254
-0.0265716
-0.0241807
-0.021901
-0.0197805
-0.0178633
-0.0161868
-0.0147782
-0.013652
-0.0128089
-0.0122355
-0.0119062
-0.0117859
-0.0118339
-0.0120076
-0.0122659
-0.0125722
-0.0128953
-0.0132091
-0.0134931
-0.0137423
-0.0139625
-0.00116439
-0.00162869
-0.00194711
-0.00219864
-0.00245018
-0.00272709
-0.00305077
-0.00344074
-0.00391302
-0.00448098
-0.00515624
-0.00594906
-0.00686843
-0.00792195
-0.00911556
-0.0104532
-0.0119364
-0.0135642
-0.0153327
-0.0172349
-0.019261
-0.021398
-0.0236304
-0.02594
-0.0283067
-0.0307087
-0.0331232
-0.0355267
-0.0378958
-0.0402075
-0.0424399
-0.0445724
-0.0465861
-0.048464
-0.0501911
-0.0517544
-0.0531427
-0.0543469
-0.0553595
-0.0561744
-0.056787
-0.0571937
-0.0573913
-0.0573783
-0.0571532
-0.0567153
-0.0560642
-0.0552003
-0.0541246
-0.0528389
-0.0513464
-0.0496519
-0.0477624
-0.045688
-0.0434424
-0.0410438
-0.038516
-0.0358887
-0.0331983
-0.0304878
-0.027806
-0.0252062
-0.0227438
-0.0204732
-0.0184437
-0.0166955
-0.0152558
-0.0141363
-0.0133316
-0.0128201
-0.012567
-0.0125277
-0.0126533
-0.0128949
-0.0132071
-0.0135511
-0.0138941
-0.0142103
-0.0144929
-0.0147485
-0.00192259
-0.0023898
-0.00271315
-0.00297365
-0.00324013
-0.00353938
-0.00389392
-0.00432418
-0.00484692
-0.00547614
-0.00622398
-0.0071011
-0.00811675
-0.00927857
-0.0105923
-0.0120615
-0.0136869
-0.0154664
-0.017395
-0.019464
-0.0216619
-0.0239737
-0.0263819
-0.0288662
-0.0314045
-0.0339731
-0.0365474
-0.0391025
-0.0416138
-0.0440577
-0.0464116
-0.048655
-0.0507692
-0.0527376
-0.0545458
-0.0561818
-0.0576354
-0.0588984
-0.0599642
-0.0608278
-0.0614853
-0.0619339
-0.0621712
-0.0621957
-0.0620062
-0.0616018
-0.0609819
-0.0601459
-0.0590937
-0.0578258
-0.0563431
-0.0546479
-0.0527441
-0.0506382
-0.0483397
-0.0458625
-0.043226
-0.0404557
-0.0375848
-0.0346541
-0.0317126
-0.0288162
-0.0260258
-0.0234046
-0.0210136
-0.0189067
-0.0171259
-0.0156964
-0.0146243
-0.0138955
-0.0134779
-0.0133253
-0.0133831
-0.0135942
-0.0139041
-0.0142649
-0.0146361
-0.0149854
-0.0153038
-0.0155983
-0.00278359
-0.00324943
-0.00357567
-0.00384458
-0.00412626
-0.00444872
-0.00483546
-0.00530767
-0.00588275
-0.00657523
-0.0073977
-0.00836114
-0.00947494
-0.0107467
-0.0121818
-0.0137832
-0.0155508
-0.0174814
-0.0195683
-0.0218012
-0.0241667
-0.0266477
-0.0292246
-0.031875
-0.0345748
-0.0372983
-0.0400194
-0.0427119
-0.0453504
-0.0479106
-0.0503698
-0.0527077
-0.0549059
-0.0569486
-0.0588225
-0.0605164
-0.0620214
-0.0633302
-0.0644376
-0.0653395
-0.066033
-0.0665159
-0.0667868
-0.0668446
-0.0666884
-0.0663173
-0.0657306
-0.0649274
-0.0639068
-0.0626678
-0.0612098
-0.059533
-0.0576385
-0.0555291
-0.0532105
-0.0506918
-0.0479874
-0.0451176
-0.0421108
-0.0390039
-0.0358433
-0.032685
-0.029593
-0.026637
-0.0238883
-0.0214145
-0.0192731
-0.0175055
-0.0161325
-0.0151511
-0.0145356
-0.0142407
-0.0142078
-0.014372
-0.0146693
-0.0150415
-0.015439
-0.0158217
-0.016178
-0.0165152
-0.0037451
-0.00420523
-0.00453227
-0.00480891
-0.00510586
-0.00545215
-0.00587206
-0.00638743
-0.00701614
-0.00777318
-0.00867148
-0.00972223
-0.0109349
-0.0123168
-0.0138731
-0.0156058
-0.0175138
-0.0195926
-0.0218339
-0.0242256
-0.0267522
-0.0293945
-0.0321306
-0.0349361
-0.0377849
-0.0406497
-0.0435028
-0.0463171
-0.0490664
-0.051726
-0.0542736
-0.056689
-0.0589548
-0.0610559
-0.0629802
-0.0647176
-0.0662605
-0.0676029
-0.0687406
-0.0696706
-0.0703911
-0.0709008
-0.0711989
-0.0712849
-0.0711585
-0.0708191
-0.0702659
-0.0694978
-0.0685134
-0.0673111
-0.0658891
-0.0642456
-0.0623795
-0.0602905
-0.0579806
-0.0554544
-0.0527209
-0.0497948
-0.0466985
-0.0434632
-0.0401308
-0.0367545
-0.0333985
-0.0301361
-0.0270467
-0.0242099
-0.0216989
-0.019573
-0.0178703
-0.016603
-0.0157557
-0.0152876
-0.0151385
-0.0152368
-0.0155087
-0.0158853
-0.016306
-0.0167221
-0.0171182
-0.0175016
-0.00480304
-0.00525315
-0.00557882
-0.00586239
-0.00617447
-0.00654487
-0.00699854
-0.00755773
-0.00824074
-0.00906286
-0.0100373
-0.0111753
-0.0124863
-0.0139774
-0.015653
-0.0175144
-0.0195593
-0.0217816
-0.0241714
-0.0267147
-0.0293936
-0.0321871
-0.035071
-0.0380189
-0.0410027
-0.0439936
-0.0469628
-0.0498823
-0.0527254
-0.0554675
-0.0580866
-0.0605631
-0.0628804
-0.0650248
-0.0669852
-0.0687528
-0.0703212
-0.0716858
-0.0728435
-0.0737924
-0.0745316
-0.0750608
-0.0753798
-0.0754889
-0.0753882
-0.0750775
-0.0745562
-0.0738234
-0.0728775
-0.0717163
-0.0703373
-0.0687376
-0.0669142
-0.0648644
-0.0625868
-0.0600821
-0.0573542
-0.0544119
-0.051271
-0.047956
-0.0445024
-0.0409581
-0.0373844
-0.0338551
-0.0304543
-0.0272714
-0.0243941
-0.0218996
-0.0198458
-0.0182635
-0.0171518
-0.0164788
-0.0161857
-0.0161966
-0.0164283
-0.0168003
-0.0172403
-0.017689
-0.0181263
-0.0185595
-0.00595155
-0.00638741
-0.00670952
-0.00699905
-0.00732587
-0.00772036
-0.00820789
-0.00881104
-0.00954833
-0.0104353
-0.0114852
-0.0127094
-0.014117
-0.0157148
-0.0175065
-0.0194924
-0.0216689
-0.0240283
-0.0265589
-0.0292447
-0.0320657
-0.0349986
-0.0380173
-0.0410934
-0.0441971
-0.0472983
-0.0503671
-0.053375
-0.0562951
-0.0591032
-0.0617775
-0.0642997
-0.0666539
-0.0688278
-0.0708114
-0.0725974
-0.0741805
-0.0755574
-0.0767261
-0.0776858
-0.0784364
-0.0789784
-0.0793126
-0.0794396
-0.0793602
-0.0790746
-0.0785825
-0.0778834
-0.0769757
-0.0758571
-0.0745248
-0.0729751
-0.0712038
-0.0692065
-0.0669792
-0.064519
-0.0618254
-0.0589018
-0.0557572
-0.0524088
-0.0488845
-0.0452248
-0.0414854
-0.0377372
-0.0340654
-0.0305658
-0.027338
-0.0244764
-0.0220595
-0.0201393
-0.0187341
-0.0178249
-0.0173592
-0.0172592
-0.0174336
-0.0177903
-0.0182441
-0.0187238
-0.0192036
-0.0196898
-0.00718313
-0.00760063
-0.00791696
-0.00821133
-0.00855224
-0.00897041
-0.00949147
-0.0101381
-0.010929
-0.0118797
-0.0130036
-0.0143118
-0.0158132
-0.017514
-0.0194172
-0.0215218
-0.0238231
-0.0263116
-0.0289737
-0.0317914
-0.0347427
-0.0378022
-0.0409416
-0.0441309
-0.0473389
-0.0505341
-0.0536862
-0.0567662
-0.0597474
-0.0626059
-0.0653207
-0.0678744
-0.0702526
-0.0724438
-0.0744396
-0.0762339
-0.0778227
-0.0792037
-0.080376
-0.0813397
-0.0820957
-0.082645
-0.0829891
-0.0831293
-0.0830667
-0.0828023
-0.0823361
-0.0816678
-0.0807963
-0.0797194
-0.0784344
-0.0769371
-0.0752229
-0.0732862
-0.0711211
-0.0687222
-0.0660853
-0.0632086
-0.0600952
-0.0567549
-0.0532071
-0.049484
-0.0456331
-0.0417194
-0.0378254
-0.0340493
-0.0304991
-0.0272841
-0.0245029
-0.0222306
-0.0205079
-0.019334
-0.018667
-0.0184311
-0.0185292
-0.0188582
-0.019319
-0.0198272
-0.0203501
-0.0208923
-0.00848873
-0.00888399
-0.0091923
-0.00949025
-0.00984432
-0.0102854
-0.0108391
-0.0115283
-0.0123714
-0.013384
-0.0145793
-0.0159684
-0.0175596
-0.0193586
-0.0213673
-0.0235838
-0.0260016
-0.0286099
-0.031393
-0.034331
-0.0373997
-0.0405719
-0.0438175
-0.0471047
-0.0504013
-0.0536749
-0.0568945
-0.0600312
-0.0630586
-0.0659534
-0.0686955
-0.0712687
-0.0736595
-0.075858
-0.077857
-0.0796515
-0.0812386
-0.0826173
-0.0837874
-0.0847498
-0.0855062
-0.0860582
-0.0864079
-0.0865571
-0.0865075
-0.0862602
-0.0858161
-0.0851751
-0.0843365
-0.0832987
-0.082059
-0.0806137
-0.0789577
-0.0770851
-0.0749891
-0.0726621