/*--------------------------------*- C++ -*----------------------------------*\
  =========                 |
  \\      /  F ield         | OpenFOAM: The Open Source CFD Toolbox
   \\    /   O peration     | Website:  https://openfoam.org
    \\  /    A nd           | Version:  7
     \\/     M anipulation  |
\*---------------------------------------------------------------------------*/
FoamFile
{
    version     2.0;
    format      ascii;
    class       volScalarField;
    location    "3";
    object      p;
}
// * * * * * * * * * * * * * * * * * * * * * * * * * * * * * * * * * * * * * //

dimensions      [0 2 -2 0 0 0 0];

internalField   nonuniform List<scalar> 
6400
(
8.9588e-07
5.07312e-06
-2.68568e-05
-9.41895e-05
-0.000189304
-0.0003052
-0.000435651
-0.000575433
-0.000720508
-0.000867827
-0.00101519
-0.00116104
-0.00130424
-0.00144398
-0.00157962
-0.0017106
-0.00183633
-0.00195615
-0.00206931
-0.00217489
-0.00227188
-0.0023591
-0.00243528
-0.00249908
-0.00254907
-0.00258383
-0.00260194
-0.00260205
-0.00258294
-0.00254352
-0.00248292
-0.00240055
-0.00229608
-0.00216957
-0.00202142
-0.0018525
-0.0016641
-0.00145798
-0.00123638
-0.00100203
-0.000758067
-0.000508095
-0.000256067
-6.24664e-06
0.00023687
0.000468648
0.000684418
0.000879587
0.00104976
0.00119085
0.00129922
0.00137176
0.00140603
0.00140031
0.00135368
0.00126608
0.00113828
0.000971957
0.000769573
0.00053438
0.00027032
-1.807e-05
-0.000325762
-0.000647352
-0.000977191
-0.00130949
-0.00163843
-0.00195826
-0.00226338
-0.00254841
-0.00280822
-0.00303803
-0.00323347
-0.00339069
-0.00350663
-0.00357946
-0.00360956
-0.00360115
-0.00356427
-0.00351711
-2.19074e-06
1.39355e-06
-2.79642e-05
-8.67237e-05
-0.000168379
-0.000268011
-0.000381179
-0.00050364
-0.000632109
-0.000763913
-0.000896998
-0.00102982
-0.00116119
-0.00129021
-0.00141613
-0.00153829
-0.00165604
-0.00176867
-0.00187541
-0.00197537
-0.00206759
-0.00215098
-0.00222437
-0.00228653
-0.00233618
-0.00237202
-0.00239277
-0.00239723
-0.00238428
-0.00235294
-0.00230244
-0.00223223
-0.00214203
-0.00203187
-0.00190214
-0.00175361
-0.00158747
-0.00140531
-0.00120918
-0.00100153
-0.000785252
-0.000563606
-0.000340194
-0.000118897
9.61934e-05
0.000300861
0.00049086
0.000662015
0.000810339
0.000932135
0.00102411
0.00108347
0.00110803
0.00109627
0.0010474
0.000961413
0.000839098
0.000682015
0.000492481
0.000273512
2.8751e-05
-0.000237622
-0.000520993
-0.000816422
-0.00111875
-0.00142272
-0.00172306
-0.0020146
-0.00229234
-0.00255151
-0.00278769
-0.00299682
-0.00317531
-0.00332019
-0.00342932
-0.00350168
-0.00353819
-0.00354221
-0.00351728
-0.00347003
3.04901e-05
3.05318e-05
4.68075e-07
-5.49698e-05
-0.000129881
-0.000220359
-0.00032283
-0.000433965
-0.000550988
-0.00067163
-0.00079409
-0.000916959
-0.00103913
-0.00115973
-0.00127801
-0.0013933
-0.00150494
-0.00161223
-0.0017144
-0.0018106
-0.00189991
-0.00198131
-0.00205368
-0.00211589
-0.00216671
-0.00220495
-0.0022294
-0.00223892
-0.00223246
-0.00220909
-0.00216805
-0.00210881
-0.00203106
-0.00193481
-0.00182037
-0.00168842
-0.00154002
-0.00137662
-0.0012001
-0.00101273
-0.000817161
-0.000616435
-0.000413903
-0.000213188
-1.81157e-05
0.000167363
0.000339264
0.00049367
0.000626833
0.000735284
0.000815929
0.000866156
0.000883918
0.000867807
0.000817115
0.000731868
0.000612844
0.000461557
0.000280232
7.17535e-05
-0.000160412
-0.000412299
-0.000679546
-0.000957502
-0.00124134
-0.00152613
-0.00180702
-0.00207923
-0.00233821
-0.00257965
-0.00279962
-0.00299457
-0.00316144
-0.00329775
-0.00340171
-0.00347242
-0.00351053
-0.00351798
-0.00349264
-0.00343286
0.000100029
8.97335e-05
5.42942e-05
-2.30812e-06
-7.53901e-05
-0.000161621
-0.000258025
-0.00036192
-0.000471039
-0.000583527
-0.000697892
-0.000812954
-0.000927771
-0.00104158
-0.00115371
-0.00126355
-0.00137047
-0.00147382
-0.00157287
-0.00166681
-0.00175474
-0.00183569
-0.00190861
-0.00197238
-0.00202586
-0.00206786
-0.00209722
-0.00211282
-0.00211362
-0.00209869
-0.00206725
-0.00201872
-0.00195276
-0.00186927
-0.0017685
-0.001651
-0.0015177
-0.00136993
-0.0012094
-0.00103823
-0.000858862
-0.000674207
-0.00048743
-0.000301982
-0.000121521
5.016e-05
0.000209228
0.000351903
0.000474562
0.000573844
0.000646752
0.00069075
0.000703856
0.000684707
0.000632625
0.000547647
0.000430542
0.000282801
0.000106603
-9.52366e-05
-0.000319341
-0.000561862
-0.000818581
-0.00108502
-0.00135654
-0.00162847
-0.00189619
-0.00215524
-0.00240138
-0.00263066
-0.0028395
-0.00302472
-0.00318358
-0.00331387
-0.00341389
-0.00348256
-0.00351996
-0.00352677
-0.00349678
-0.00342338
0.000200182
0.000173138
0.000128082
6.69533e-05
-7.47098e-06
-9.24014e-05
-0.000185405
-0.000284399
-0.000387637
-0.000493695
-0.000601432
-0.000709947
-0.000818521
-0.000926552
-0.0010335
-0.00113886
-0.00124207
-0.00134253
-0.00143957
-0.00153242
-0.00162024
-0.00170208
-0.00177693
-0.0018437
-0.00190126
-0.00194844
-0.00198409
-0.00200707
-0.00201631
-0.00201085
-0.00198986
-0.00195268
-0.00189887
-0.00182825
-0.00174093
-0.00163734
-0.00151828
-0.00138492
-0.00123882
-0.00108193
-0.000916632
-0.000745609
-0.000571913
-0.000398875
-0.000230047
-6.91241e-05
8.01405e-05
0.000214034
0.000328986
0.000421673
0.000489124
0.000528819
0.000538783
0.000517655
0.00046475
0.000380096
0.000264445
0.000119268
-5.3281e-05
-0.000250423
-0.000468828
-0.00070471
-0.000953931
-0.00121211
-0.00147476
-0.00173735
-0.00199545
-0.00224484
-0.00248152
-0.00270183
-0.00290246
-0.00308054
-0.00323356
-0.0033595
-0.00345666
-0.00352378
-0.00356047
-0.00356648
-0.00353321
-0.00345135
0.00032431
0.000276117
0.000217945
0.000149436
7.09839e-05
-1.51579e-05
-0.000107064
-0.000203238
-0.00030246
-0.000403749
-0.000506346
-0.000609667
-0.000713247
-0.000816693
-0.00091963
-0.00102167
-0.00112235
-0.00122117
-0.00131751
-0.00141066
-0.0014998
-0.00158404
-0.00166236
-0.0017337
-0.00179692
-0.00185084
-0.00189428
-0.00192606
-0.00194505
-0.00195021
-0.00194062
-0.00191553
-0.00187436
-0.00181682
-0.00174287
-0.00165279
-0.00154723
-0.00142722
-0.00129416
-0.00114989
-0.000996621
-0.000836953
-0.000673836
-0.00051052
-0.000350497
-0.000197421
-5.50245e-05
7.29829e-05
0.000183018
0.000271732
0.000336117
0.000373612
0.000382193
0.000360456
0.000307672
0.000223831
0.000109656
-3.34075e-05
-0.000203226
-0.000397034
-0.000611518
-0.000842913
-0.00108711
-0.00133979
-0.00159651
-0.00185285
-0.00210451
-0.00234743
-0.00257776
-0.00279207
-0.00298729
-0.00316074
-0.00331012
-0.00343352
-0.00352929
-0.00359599
-0.00363294
-0.00363932
-0.00360543
-0.00352095
0.000466182
0.000393589
0.0003197
0.000241507
0.000156801
6.73245e-05
-2.54761e-05
-0.000120687
-0.000217613
-0.000315737
-0.000414698
-0.000514249
-0.00061421
-0.000714419
-0.000814688
-0.000914775
-0.00101435
-0.00111299
-0.00121016
-0.00130519
-0.00139731
-0.00148564
-0.00156919
-0.00164686
-0.00171751
-0.0017799
-0.0018328
-0.00187496
-0.00190517
-0.00192226
-0.0019252
-0.0019131
-0.00188523
-0.00184115
-0.00178064
-0.00170385
-0.00161124
-0.00150369
-0.00138248
-0.00124929
-0.00110623
-0.00095582
-0.000800935
-0.000644785
-0.000490843
-0.000342772
-0.000204335
-7.92943e-05
2.86949e-05
0.000116198
0.000180114
0.000217781
0.000227076
0.0002065
0.000155241
7.32164e-05
-3.89073e-05
-0.000179723
-0.00034712
-0.000538343
-0.000750076
-0.000978547
-0.00121964
-0.00146904
-0.00172232
-0.00197509
-0.00222312
-0.00246242
-0.00268929
-0.00290042
-0.00309291
-0.00326423
-0.00341223
-0.00353509
-0.0036312
-0.00369908
-0.00373782
-0.00374634
-0.00371478
-0.00363289
0.000619592
0.000520351
0.000428827
0.000339189
0.000246498
0.000152005
5.66901e-05
-3.91189e-05
-0.000135263
-0.000231692
-0.000328457
-0.000425667
-0.00052344
-0.000621858
-0.00072094
-0.000820604
-0.000920656
-0.00102077
-0.00112048
-0.00121919
-0.00131615
-0.00141049
-0.00150121
-0.0015872
-0.00166724
-0.00174006
-0.00180433
-0.00185869
-0.0019018
-0.00193239
-0.00194923
-0.00195128
-0.00193766
-0.0019077
-0.00186103
-0.0017976
-0.00171772
-0.00162209
-0.00151184
-0.00138855
-0.00125421
-0.00111126
-0.000962546
-0.000811257
-0.000660884
-0.000515136
-0.00037785
-0.00025289
-0.000144033
-5.48543e-05
1.13954e-05
5.18992e-05
6.43806e-05
4.71934e-05
-6.07318e-07
-7.92176e-05
-0.000188062
-0.000325799
-0.000490359
-0.000679001
-0.000888406
-0.00111478
-0.00135398
-0.00160165
-0.00185333
-0.00210464
-0.00235134
-0.00258947
-0.00281539
-0.00302587
-0.0032181
-0.00338967
-0.00353853
-0.00366293
-0.00376132
-0.00383221
-0.00387462
-0.00388735
-0.00386101
-0.00378607
0.000778603
0.0006512
0.000540664
0.000438284
0.000336309
0.000235505
0.000136379
3.86635e-05
-5.80255e-05
-0.000154116
-0.000250077
-0.00034638
-0.000443448
-0.000541621
-0.000641126
-0.000742055
-0.000844349
-0.000947785
-0.00105198
-0.00115637
-0.00126026
-0.00136275
-0.00146283
-0.00155934
-0.00165101
-0.00173646
-0.00181425
-0.0018829
-0.00194091
-0.00198682
-0.00201925
-0.00203695
-0.00203881
-0.00202399
-0.00199189
-0.00194227
-0.00187525
-0.00179135
-0.00169156
-0.00157731
-0.00145052
-0.00131355
-0.00116921
-0.0010207
-0.000871557
-0.000725557
-0.000586652
-0.000458848
-0.000346091
-0.000252144
-0.000180464
-0.000134078
-0.000115476
-0.000126507
-0.000168304
-0.00024123
-0.000344848
-0.000477922
-0.000638451
-0.000823735
-0.00103046
-0.00125481
-0.0014926
-0.00173941
-0.00199073
-0.00224213
-0.00248931
-0.00272828
-0.00295542
-0.0031675
-0.00336176
-0.00353584
-0.00368776
-0.00381583
-0.00391854
-0.00399444
-0.00404254
-0.0040616
-0.00404311
-0.00397864
0.000937514
0.000780935
0.000650448
0.000534419
0.000422225
0.00031413
0.000210159
0.000109437
1.10217e-05
-8.59961e-05
-0.00018251
-0.000279355
-0.000377264
-0.000476836
-0.000578512
-0.000682555
-0.000789043
-0.000897858
-0.00100868
-0.00112101
-0.00123414
-0.00134719
-0.00145908
-0.00156861
-0.0016744
-0.00177498
-0.00186875
-0.00195408
-0.00202929
-0.00209271
-0.00214275
-0.00217792
-0.00219691
-0.00219861
-0.00218221
-0.00214724
-0.0020936
-0.00202164
-0.00193217
-0.00182649
-0.0017064
-0.00157422
-0.00143272
-0.00128511
-0.00113498
-0.000986221
-0.000842911
-0.000709236
-0.000589352
-0.000487261
-0.000406678
-0.000350901
-0.000322693
-0.000324175
-0.000356734
-0.000420959
-0.000516613
-0.00064262
-0.000797098
-0.000977417
-0.0011803
-0.00140191
-0.00163804
-0.00188418
-0.00213576
-0.00238822
-0.00263721
-0.00287864
-0.00310883
-0.00332452
-0.00352292
-0.00370167
-0.0038588
-0.00399267
-0.0041018
-0.00418478
-0.0042406
-0.00426807
-0.00425975
-0.00420853
0.00109074
0.000904355
0.000753333
0.00062307
0.000500013
0.000383907
0.000274272
0.000169606
6.84027e-05
-3.07405e-05
-0.000129142
-0.000228002
-0.000328364
-0.000431082
-0.00053681
-0.000645982
-0.000758806
-0.000875263
-0.000995103
-0.00111785
-0.00124281
-0.00136907
-0.00149552
-0.00162085
-0.00174358
-0.0018621
-0.00197465
-0.00207941
-0.00217448
-0.00225797
-0.00232805
-0.00238296
-0.00242112
-0.00244117
-0.00244204
-0.002423
-0.00238372
-0.00232434
-0.00224547
-0.00214827
-0.00203443
-0.00190616
-0.00176622
-0.00161783
-0.00146464
-0.00131065
-0.0011601
-0.00101739
-0.000886915
-0.000772965
-0.000679568
-0.000610357
-0.000568439
-0.000556276
-0.000575587
-0.000627269
-0.000711354
-0.000826999
-0.0009725
-0.00114536
-0.00134236
-0.0015597
-0.00179312
-0.00203807
-0.00228985
-0.00254381
-0.00279543
-0.00304052
-0.00327527
-0.00349632
-0.00370078
-0.00388624
-0.0040507
-0.00419248
-0.00431012
-0.00440225
-0.00446783
-0.00450566
-0.00450954
-0.00447379
0.00123276
0.00101625
0.000844389
0.000699566
0.000565241
0.000440609
0.000324661
0.000215247
0.00011028
7.86153e-06
-9.37564e-05
-0.000196139
-0.000300634
-0.000408352
-0.00052015
-0.000636627
-0.000758117
-0.000884692
-0.00101616
-0.00115207
-0.00129171
-0.00143414
-0.00157818
-0.00172241
-0.00186524
-0.00200487
-0.00213938
-0.0022667
-0.00238472
-0.00249128
-0.00258426
-0.00266163
-0.00272151
-0.00276224
-0.00278245
-0.00278114
-0.00275771
-0.00271204
-0.00264455
-0.0025562
-0.00244852
-0.00232366
-0.00218429
-0.00203366
-0.00187547
-0.00171383
-0.00155317
-0.00139809
-0.0012533
-0.0011234
-0.0010128
-0.00092552
-0.0008651
-0.000834425
-0.000835632
-0.000870018
-0.000937978
-0.00103899
-0.0011716
-0.00133352
-0.00152167
-0.00173229
-0.00196113
-0.00220357
-0.00245483
-0.00271007
-0.00296464
-0.00321415
-0.0034546
-0.00368248
-0.00389473
-0.00408881
-0.00426262
-0.0044144
-0.00454265
-0.00464597
-0.00472327
-0.00477332
-0.0047912
-0.0047727
0.00135806
0.00111137
0.000918612
0.000759111
0.000613303
0.000479793
0.000357012
0.00024214
0.000132497
2.56785e-05
-8.04946e-05
-0.00018795
-0.000298339
-0.000413016
-0.000533039
-0.000659163
-0.000791841
-0.000931223
-0.00107717
-0.00122923
-0.00138669
-0.00154854
-0.00171353
-0.00188011
-0.00204654
-0.00221086
-0.0023709
-0.00252437
-0.00266888
-0.00280198
-0.00292126
-0.00302434
-0.00310902
-0.00317331
-0.00321552
-0.0032343
-0.00322877
-0.00319852
-0.0031437
-0.0030651
-0.00296396
-0.00284238
-0.00270296
-0.0025489
-0.00238394
-0.00221231
-0.00203861
-0.00186771
-0.0017046
-0.00155428
-0.00142157
-0.00131097
-0.00122653
-0.00117164
-0.00114897
-0.00116032
-0.00120656
-0.00128759
-0.00140234
-0.00154878
-0.00172404
-0.00192451
-0.00214596
-0.00238374
-0.00263296
-0.00288862
-0.00314587
-0.00340008
-0.00364701
-0.00388288
-0.00410443
-0.0043089
-0.00449398
-0.00465779
-0.00479869
-0.00491523
-0.00500616
-0.00507022
-0.0051037
-0.00510392
0.00146109
0.00118444
0.00097093
0.000796807
0.000639451
0.000496835
0.000366797
0.000245825
0.000130628
1.82889e-05
-9.38039e-05
-0.00020794
-0.000326064
-0.000449773
-0.000580316
-0.000718594
-0.000865168
-0.00102026
-0.00118376
-0.00135524
-0.00153393
-0.00171877
-0.0019084
-0.00210115
-0.00229509
-0.00248806
-0.00267766
-0.00286133
-0.00303637
-0.00320003
-0.00334954
-0.00348217
-0.00359534
-0.00368671
-0.00375419
-0.00379608
-0.00381114
-0.00379863
-0.00375839
-0.00369086
-0.00359729
-0.0034794
-0.00333968
-0.00318131
-0.00300806
-0.00282423
-0.0026346
-0.00244429
-0.00225863
-0.00208304
-0.00192281
-0.00178301
-0.00166826
-0.00158259
-0.0015293
-0.00151082
-0.00152863
-0.00158318
-0.00167388
-0.00179912
-0.00195633
-0.00214211
-0.00235233
-0.00258235
-0.00282716
-0.00308163
-0.00334064
-0.00359928
-0.00385301
-0.00409773
-0.00432983
-0.00454626
-0.00474444
-0.00492222
-0.00507778
-0.00520952
-0.00531599
-0.0053957
-0.00544631
-0.00546656
0.00153633
0.00123016
0.000996227
0.000807682
0.000638833
0.00048698
0.000349329
0.000221652
0.000100035
-1.89599e-05
-0.000138377
-0.000260865
-0.000388659
-0.000523589
-0.000667085
-0.000820187
-0.000983555
-0.00115747
-0.00134186
-0.00153626
-0.0017399
-0.00195161
-0.00216992
-0.00239302
-0.00261879
-0.00284483
-0.00306848
-0.0032869
-0.00349707
-0.00369586
-0.00388013
-0.00404677
-0.0041928
-0.00431542
-0.00441215
-0.00448087
-0.00451992
-0.00452817
-0.00450511
-0.00445086
-0.0043663
-0.00425298
-0.00411322
-0.00395008
-0.00376731
-0.00356926
-0.00336089
-0.00314755
-0.00293494
-0.00272891
-0.0025353
-0.00235979
-0.0022077
-0.00208378
-0.00199212
-0.00193591
-0.00191739
-0.0019377
-0.00199691
-0.00209394
-0.00222666
-0.00239199
-0.00258598
-0.00280406
-0.00304115
-0.00329194
-0.00355106
-0.00381326
-0.00407362
-0.00432761
-0.00457123
-0.00480098
-0.00501392
-0.00520754
-0.00537971
-0.00552859
-0.00565244
-0.00574949
-0.00581865
-0.00586014
0.00157821
0.00124322
0.000989374
0.000786738
0.00060655
0.000445394
0.000299814
0.000164843
3.5931e-05
-9.08849e-05
-0.000219085
-0.000351671
-0.000491164
-0.000639619
-0.00079864
-0.000969398
-0.00115264
-0.00134871
-0.00155753
-0.00177865
-0.00201123
-0.00225402
-0.00250541
-0.00276342
-0.00302574
-0.00328972
-0.00355242
-0.00381067
-0.0040611
-0.00430021
-0.00452443
-0.00473021
-0.00491413
-0.00507293
-0.00520363
-0.00530364
-0.00537084
-0.00540364
-0.00540108
-0.0053629
-0.00528958
-0.0051824
-0.00504344
-0.00487557
-0.00468246
-0.0044685
-0.00423875
-0.00399883
-0.00375477
-0.00351289
-0.00327964
-0.00306138
-0.0028642
-0.00269373
-0.00255494
-0.00245197
-0.00238797
-0.00236498
-0.00238386
-0.00244427
-0.00254467
-0.00268243
-0.0028539
-0.00305464
-0.00327957
-0.00352323
-0.00377996
-0.00404413
-0.00431035
-0.00457359
-0.00482931
-0.0050735
-0.00530268
-0.00551388
-0.00570455
-0.00587249
-0.00601554
-0.00613159
-0.00622073
-0.00628466
0.00158124
0.00121836
0.000945282
0.000728995
0.0005377
0.000367224
0.000213419
7.05602e-05
-6.65465e-05
-0.000202394
-0.000340897
-0.000485408
-0.000638727
-0.000803128
-0.000980381
-0.00117178
-0.00137816
-0.0015999
-0.00183695
-0.00208883
-0.00235463
-0.00263301
-0.00292222
-0.00322011
-0.00352414
-0.00383138
-0.00413862
-0.00444232
-0.00473874
-0.00502395
-0.00529394
-0.0055447
-0.00577228
-0.00597291
-0.00614308
-0.00627966
-0.00637997
-0.0064419
-0.00646397
-0.00644545
-0.00638637
-0.00628761
-0.00615093
-0.00597897
-0.00577524
-0.0055441
-0.00529067
-0.00502079
-0.00474084
-0.00445762
-0.0041782
-0.0039097
-0.00365907
-0.00343294
-0.00323731
-0.00307744
-0.00295756
-0.00288082
-0.00284911
-0.00286298
-0.00292171
-0.00302327
-0.00316447
-0.00334113
-0.00354822
-0.00378016
-0.004031
-0.00429469
-0.00456531
-0.00483722
-0.00510522
-0.00536462
-0.00561131
-0.00584169
-0.00605266
-0.00624153
-0.00640561
-0.00654232
-0.00665291
-0.00674056
0.00154
0.00115043
0.000858949
0.000629551
0.000427443
0.00024766
8.53348e-05
-6.60235e-05
-0.000212262
-0.000358406
-0.000508801
-0.000667145
-0.000836514
-0.00101939
-0.00121771
-0.00143289
-0.00166583
-0.00191696
-0.00218624
-0.00247316
-0.00277674
-0.00309554
-0.00342766
-0.00377076
-0.00412204
-0.00447834
-0.00483609
-0.00519139
-0.00554008
-0.00587781
-0.00620006
-0.00650231
-0.00678004
-0.00702892
-0.00724483
-0.00742404
-0.00756325
-0.00765973
-0.00771142
-0.00771699
-0.00767595
-0.00758869
-0.00745656
-0.00728185
-0.00706787
-0.00681883
-0.0065399
-0.00623706
-0.005917
-0.00558701
-0.0052548
-0.00492828
-0.0046154
-0.00432383
-0.0040608
-0.00383282
-0.00364547
-0.00350318
-0.0034091
-0.00336496
-0.00337103
-0.00342615
-0.00352774
-0.00367203
-0.00385417
-0.00406849
-0.0043088
-0.00456859
-0.00484132
-0.00512064
-0.00540055
-0.00567557
-0.00594075
-0.00619173
-0.0064247
-0.00663632
-0.00682326
-0.00698233
-0.00711593
-0.00722868
0.00144923
0.00103442
0.000725524
0.000483641
0.000271062
8.2003e-05
-8.91453e-05
-0.000249646
-0.000406
-0.000563763
-0.000727707
-0.000901875
-0.00108961
-0.0012936
-0.00151594
-0.00175816
-0.00202125
-0.00230567
-0.00261138
-0.00293785
-0.00328402
-0.00364835
-0.00402877
-0.00442275
-0.00482725
-0.0052388
-0.00565349
-0.00606704
-0.00647486
-0.00687209
-0.0072537
-0.0076146
-0.00794967
-0.00825394
-0.00852263
-0.00875133
-0.00893603
-0.00907333
-0.00916045
-0.0091954
-0.00917706
-0.00910524
-0.00898075
-0.00880548
-0.00858237
-0.00831546
-0.00800984
-0.00767156
-0.00730761
-0.00692571
-0.00653422
-0.00614189
-0.00575766
-0.00539043
-0.00504874
-0.00474058
-0.00447303
-0.00425208
-0.0040824
-0.00396716
-0.00390792
-0.00390459
-0.0039555
-0.00405745
-0.00420591
-0.00439526
-0.00461907
-0.00487037
-0.00514194
-0.0054266
-0.00571745
-0.006008
-0.00629232
-0.00656509
-0.00682162
-0.00705776
-0.00726938
-0.00745258
-0.00761082
-0.00775024
0.00130388
0.000865525
0.000540368
0.000286707
6.40369e-05
-0.000134261
-0.000314552
-0.000484873
-0.000652375
-0.000823137
-0.00100236
-0.00119441
-0.00140291
-0.00163074
-0.00188017
-0.00215282
-0.00244976
-0.00277152
-0.00311804
-0.00348876
-0.00388256
-0.00429777
-0.00473217
-0.00518302
-0.00564703
-0.00612041
-0.0065989
-0.0070778
-0.00755205
-0.00801629
-0.00846493
-0.00889224
-0.00929247
-0.00965993
-0.00998914
-0.0102749
-0.0105125
-0.0106976
-0.0108268
-0.0108973
-0.0109072
-0.0108556
-0.0107428
-0.01057
-0.0103398
-0.0100559
-0.00972318
-0.00934777
-0.00893681
-0.00849842
-0.00804156
-0.00757583
-0.00711122
-0.00665791
-0.0062259
-0.00582478
-0.00546339
-0.00514952
-0.00488963
-0.00468864
-0.0045497
-0.00447414
-0.00446143
-0.00450922
-0.00461351
-0.00476887
-0.0049687
-0.00520557
-0.00547156
-0.00575856
-0.00605859
-0.00636401
-0.00666769
-0.00696316
-0.00724463
-0.007507
-0.00774513
-0.00795425
-0.00813893
-0.0083068
0.00109922
0.00063926
0.000299125
3.44625e-05
-0.000197884
-0.000405381
-0.000595157
-0.000776013
-0.000955742
-0.00114094
-0.00133722
-0.00154929
-0.00178102
-0.0020355
-0.00231515
-0.00262171
-0.00295634
-0.0033196
-0.00371144
-0.00413128
-0.00457791
-0.00504956
-0.00554385
-0.00605781
-0.0065879
-0.00713
-0.00767947
-0.00823119
-0.0087796
-0.00931879
-0.00984257
-0.0103445
-0.0108183
-0.0112573
-0.0116553
-0.0120064
-0.0123048
-0.0125456
-0.0127242
-0.0128371
-0.0128816
-0.012856
-0.0127597
-0.0125934
-0.0123592
-0.0120601
-0.011701
-0.0112877
-0.0108275
-0.0103289
-0.00980128
-0.00925514
-0.0087015
-0.00815185
-0.00761776
-0.00711058
-0.00664107
-0.00621909
-0.00585319
-0.00555034
-0.00531567
-0.00515227
-0.0050611
-0.00504098
-0.00508869
-0.00519918
-0.00536583
-0.00558083
-0.00583549
-0.0061207
-0.00642726
-0.00674617
-0.00706893
-0.00738764
-0.00769524
-0.00798543
-0.00825188
-0.0084888
-0.00870183
-0.00890018
0.000830858
0.000351481
-2.20694e-06
-0.000277025
-0.000518606
-0.000735264
-0.000934886
-0.00112703
-0.0013201
-0.00152122
-0.00173639
-0.00197065
-0.00222812
-0.00251211
-0.00282519
-0.00316921
-0.00354543
-0.00395443
-0.0043962
-0.00487012
-0.00537492
-0.0059087
-0.00646893
-0.00705243
-0.00765536
-0.00827329
-0.00890117
-0.00953344
-0.010164
-0.0107864
-0.0113937
-0.011979
-0.0125349
-0.0130543
-0.0135299
-0.0139549
-0.0143227
-0.0146274
-0.0148635
-0.0150265
-0.0151126
-0.0151195
-0.0150456
-0.0148908
-0.0146564
-0.0143452
-0.0139614
-0.0135107
-0.0130002
-0.0124387
-0.0118361
-0.0112035
-0.010553
-0.00989731
-0.00924973
-0.00862343
-0.00803129
-0.00748543
-0.00699681
-0.00657481
-0.0062269
-0.00595832
-0.00577196
-0.00566816
-0.00564483
-0.00569759
-0.00581999
-0.00600392
-0.00623998
-0.00651797
-0.00682734
-0.00715755
-0.00749844
-0.00784052
-0.00817515
-0.0084946
-0.00879117
-0.00905782
-0.00930128
-0.00953239
0.000494863
-1.51299e-06
-0.0003672
-0.000651266
-0.000901613
-0.00112739
-0.00133724
-0.00154144
-0.00174901
-0.00196756
-0.00220348
-0.00246214
-0.00274791
-0.00306429
-0.00341402
-0.00379908
-0.00422079
-0.00467982
-0.00517617
-0.00570918
-0.00627752
-0.0068792
-0.00751151
-0.00817103
-0.00885366
-0.00955462
-0.0102685
-0.0109891
-0.01171
-0.0124239
-0.0131235
-0.0138008
-0.0144478
-0.0150564
-0.0156186
-0.0161265
-0.0165726
-0.0169499
-0.0172519
-0.017473
-0.0176086
-0.0176551
-0.0176101
-0.0174727
-0.0172434
-0.0169241
-0.0165186
-0.0160321
-0.0154717
-0.0148462
-0.0141656
-0.0134418
-0.0126878
-0.0119176
-0.011146
-0.0103881
-0.00965907
-0.00897349
-0.00834497
-0.00778567
-0.00730578
-0.00691318
-0.00661308
-0.00640786
-0.00629697
-0.00627703
-0.00634206
-0.00648382
-0.00669228
-0.00695613
-0.00726335
-0.00760166
-0.00795904
-0.00832406
-0.00868627
-0.00903626
-0.00936467
-0.00966303
-0.00993915
-0.0102056
8.78282e-05
-0.000422913
-0.000798922
-0.00109127
-0.00134989
-0.00158475
-0.00180521
-0.00202225
-0.00224549
-0.00248299
-0.00274155
-0.00302681
-0.00334342
-0.00369507
-0.00408466
-0.00451431
-0.00498543
-0.00549873
-0.00605427
-0.00665135
-0.0072886
-0.00796389
-0.00867436
-0.00941637
-0.0101855
-0.0109767
-0.011784
-0.0126008
-0.01342
-0.0142339
-0.0150342
-0.0158122
-0.0165592
-0.0172661
-0.0179239
-0.0185237
-0.0190569
-0.0195156
-0.0198921
-0.0201797
-0.0203728
-0.0204667
-0.0204579
-0.0203446
-0.0201263
-0.0198042
-0.0193812
-0.0188622
-0.0182538
-0.0175646
-0.016805
-0.0159871
-0.0151247
-0.014233
-0.0133282
-0.0124274
-0.0115481
-0.0107075
-0.00992198
-0.00920687
-0.00857549
-0.0080388
-0.00760489
-0.00727867
-0.00706163
-0.00695188
-0.00694426
-0.0070307
-0.00720067
-0.00744179
-0.00774046
-0.00808253
-0.00845383
-0.00884075
-0.00923068
-0.00961224
-0.00997413
-0.0103062
-0.0106174
-0.010922
-0.000393051
-0.000915327
-0.00129987
-0.00159948
-0.00186585
-0.00210973
-0.00234119
-0.00257187
-0.00281195
-0.00306992
-0.00335296
-0.00366702
-0.00401697
-0.00440672
-0.00483932
-0.00531703
-0.00584137
-0.00641312
-0.00703235
-0.00769837
-0.00840974
-0.00916424
-0.00995881
-0.0107896
-0.0116519
-0.0125402
-0.0134482
-0.0143688
-0.0152943
-0.0162161
-0.0171254
-0.0180126
-0.0188681
-0.0196819
-0.0204439
-0.0211443
-0.0217735
-0.0223221
-0.0227817
-0.0231443
-0.0234031
-0.0235523
-0.0235875
-0.0235056
-0.0233051
-0.0229864
-0.0225515
-0.0220046
-0.0213518
-0.0206014
-0.0197635
-0.0188507
-0.0178771
-0.016859
-0.015814
-0.014761
-0.0137195
-0.0127097
-0.0117509
-0.0108617
-0.0100591
-0.00935761
-0.00876863
-0.00830024
-0.00795659
-0.00773783
-0.00764011
-0.00765589
-0.00777442
-0.00798235
-0.0082645
-0.00860466
-0.0089863
-0.0093933
-0.00981057
-0.0102244
-0.0106213
-0.0109891
-0.0113378
-0.0116837
-0.00094991
-0.00148071
-0.0018719
-0.0021777
-0.00245126
-0.00270409
-0.00294692
-0.00319202
-0.00345008
-0.00373002
-0.00403935
-0.00438432
-0.00477004
-0.00520062
-0.00567928
-0.0062084
-0.00678963
-0.00742381
-0.00811105
-0.00885066
-0.00964115
-0.0104802
-0.0113645
-0.0122901
-0.0132518
-0.0142439
-0.0152595
-0.016291
-0.01733
-0.0183673
-0.0193933
-0.0203976
-0.0213696
-0.0222983
-0.0231728
-0.0239819
-0.0247151
-0.025362
-0.0259127
-0.0263584
-0.026691
-0.0269036
-0.0269905
-0.0269476
-0.0267724
-0.0264642
-0.0260241
-0.0254554
-0.0247635
-0.0239561
-0.0230431
-0.0220368
-0.020952
-0.0198053
-0.0186156
-0.0174033
-0.0161902
-0.0149989
-0.0138521
-0.0127718
-0.0117788
-0.0108916
-0.0101257
-0.0094928
-0.0090005
-0.00865159
-0.00844418
-0.00837177
-0.00842376
-0.00858604
-0.00884192
-0.00917301
-0.00956022
-0.00998458
-0.0104282
-0.0108747
-0.0113079
-0.0117134
-0.0121023
-0.0124929
-0.00158415
-0.00212032
-0.00251618
-0.00282705
-0.00310721
-0.00336889
-0.00362344
-0.0038837
-0.00416083
-0.00446415
-0.00480151
-0.00517942
-0.00560321
-0.00607721
-0.00660478
-0.00718848
-0.00783003
-0.00853038
-0.00928968
-0.0101072
-0.0109815
-0.01191
-0.0128893
-0.0139151
-0.0149821
-0.016084
-0.0172134
-0.0183623
-0.0195215
-0.0206812
-0.0218308
-0.0229592
-0.0240548
-0.0251057
-0.0260997
-0.027025
-0.0278695
-0.0286219
-0.0292713
-0.0298075
-0.0302214
-0.0305049
-0.0306513
-0.0306553
-0.0305132
-0.0302232
-0.0297855
-0.0292023
-0.0284782
-0.02762
-0.0266372
-0.0255417
-0.0243482
-0.0230737
-0.021738
-0.0203626
-0.0189714
-0.0175893
-0.0162421
-0.0149555
-0.0137542
-0.0126613
-0.0116966
-0.0108764
-0.0102123
-0.00971049
-0.00937186
-0.00919159
-0.00915974
-0.0092618
-0.00947973
-0.00979296
-0.0101796
-0.0106176
-0.0110859
-0.0115649
-0.0120355
-0.0124806
-0.0129123
-0.0133512
-0.0022964
-0.00283466
-0.00323313
-0.0035479
-0.00383404
-0.00410442
-0.00437099
-0.00464709
-0.00494431
-0.00527235
-0.00563934
-0.00605206
-0.00651606
-0.00703586
-0.00761499
-0.00825614
-0.00896117
-0.0097311
-0.0105661
-0.0114655
-0.0124277
-0.0134501
-0.0145291
-0.0156601
-0.0168374
-0.0180544
-0.0193032
-0.020575
-0.0218602
-0.023148
-0.0244272
-0.0256856
-0.0269108
-0.0280898
-0.0292095
-0.0302569
-0.0312189
-0.0320831
-0.0328374
-0.0334707
-0.0339726
-0.034334
-0.0345471
-0.0346054
-0.0345042
-0.0342405
-0.0338134
-0.0332241
-0.032476
-0.0315752
-0.0305301
-0.0293522
-0.0280557
-0.0266576
-0.0251779
-0.0236394
-0.0220672
-0.0204885
-0.0189319
-0.0174266
-0.0160016
-0.0146845
-0.0135002
-0.0124701
-0.0116104
-0.0109319
-0.0104389
-0.0101292
-0.00999405
-0.0100192
-0.0101855
-0.0104702
-0.0108487
-0.0112955
-0.0117858
-0.0122967
-0.0128054
-0.0132919
-0.0137693
-0.0142602
-0.00308644
-0.00362343
-0.0040224
-0.00433986
-0.00463131
-0.0049102
-0.00518902
-0.00548156
-0.00579979
-0.00615374
-0.00655181
-0.00700103
-0.00750715
-0.00807487
-0.0087079
-0.00940907
-0.0101803
-0.0110228
-0.0119367
-0.0129214
-0.0139751
-0.0150951
-0.0162778
-0.0175181
-0.0188101
-0.0201465
-0.0215191
-0.0229185
-0.0243341
-0.0257548
-0.0271681
-0.0285612
-0.0299206
-0.0312323
-0.0324823
-0.0336563
-0.0347406
-0.0357213
-0.0365856
-0.0373212
-0.0379167
-0.0383619
-0.038648
-0.0387675
-0.0387146
-0.0384852
-0.0380773
-0.0374909
-0.0367283
-0.0357944
-0.0346967
-0.0334456
-0.0320547
-0.0305405
-0.0289229
-0.0272252
-0.0254733
-0.0236964
-0.0219254
-0.0201929
-0.018532
-0.016975
-0.0155523
-0.0142907
-0.0132122
-0.0123327
-0.0116611
-0.0111985
-0.0109388
-0.0108682
-0.0109671
-0.0112109
-0.011572
-0.0120213
-0.0125302
-0.0130715
-0.0136187
-0.0141482
-0.0146739
-0.0152209
-0.00395324
-0.00448553
-0.00488286
-0.00520175
-0.00549779
-0.00578494
-0.00607614
-0.0063856
-0.00672563
-0.00710651
-0.00753692
-0.00802408
-0.00857396
-0.00919142
-0.00988033
-0.0106437
-0.0114835
-0.012401
-0.0133964
-0.0144691
-0.0156172
-0.0168379
-0.0181273
-0.0194802
-0.02089
-0.0223492
-0.023849
-0.0253792
-0.0269287
-0.0284853
-0.030036
-0.0315668
-0.0330634
-0.0345108
-0.0358939
-0.0371977
-0.0384071
-0.0395076
-0.0404852
-0.0413267
-0.0420198
-0.0425535
-0.0429179
-0.0431045
-0.0431067
-0.0429192
-0.0425389
-0.0419646
-0.0411976
-0.0402415
-0.0391024
-0.0377897
-0.0363157
-0.0346961
-0.0329504
-0.0311015
-0.029176
-0.0272039
-0.0252183
-0.0232548
-0.02135
-0.0195412
-0.0178642
-0.0163518
-0.0150324
-0.013928
-0.013053
-0.0124134
-0.012006
-0.0118189
-0.0118326
-0.0120211
-0.0123539
-0.0127981
-0.0133209
-0.0138907
-0.0144762
-0.0150499
-0.0156268
-0.0162339
-0.00489488
-0.00541905
-0.00581256
-0.0061316
-0.00643144
-0.0067265
-0.00703013
-0.00735686
-0.00771928
-0.00812792
-0.00859167
-0.00911795
-0.00971289
-0.0103815
-0.0111279
-0.011955
-0.0128652
-0.0138596
-0.0149385
-0.0161012
-0.0173458
-0.0186694
-0.0200677
-0.0215352
-0.0230651
-0.0246493
-0.0262782
-0.0279411
-0.0296263
-0.0313206
-0.0330101
-0.0346801
-0.0363151
-0.0378993
-0.0394167
-0.0408513
-0.042187
-0.0434086
-0.0445011
-0.0454505
-0.0462437
-0.0468689
-0.0473153
-0.0475738
-0.0476366
-0.0474978
-0.047153
-0.0466002
-0.0458391
-0.0448722
-0.0437042
-0.0423431
-0.0407997
-0.0390886
-0.037228
-0.0352402
-0.0331515
-0.0309925
-0.0287974
-0.0266041
-0.0244528
-0.0223849
-0.0204417
-0.0186626
-0.0170826
-0.0157307
-0.0146282
-0.0137865
-0.0132072
-0.0128813
-0.0127902
-0.0129069
-0.0131987
-0.0136287
-0.0141596
-0.0147548
-0.015378
-0.0159971
-0.0166275
-0.0172989
-0.0059086
-0.00642124
-0.00680876
-0.00712661
-0.00742942
-0.00773195
-0.00804792