/*--------------------------------*- C++ -*----------------------------------*\
  =========                 |
  \\      /  F ield         | OpenFOAM: The Open Source CFD Toolbox
   \\    /   O peration     | Website:  https://openfoam.org
    \\  /    A nd           | Version:  7
     \\/     M anipulation  |
\*---------------------------------------------------------------------------*/
FoamFile
{
    version     2.0;
    format      ascii;
    class       surfaceScalarField;
    location    "3";
    object      phi;
}
// * * * * * * * * * * * * * * * * * * * * * * * * * * * * * * * * * * * * * //

dimensions      [0 3 -1 0 0 0 0];

internalField   nonuniform List<scalar> 
12640
(
3.15313e-10
-3.23682e-10
9.5685e-10
-6.41309e-10
1.56155e-09
-6.04575e-10
1.92127e-09
-3.59757e-10
1.93969e-09
-1.83802e-11
1.58302e-09
3.56736e-10
8.53045e-10
7.3e-10
-2.28883e-10
1.08193e-09
-1.63313e-09
1.40425e-09
-3.32749e-09
1.69436e-09
-5.28059e-09
1.95312e-09
-7.46395e-09
2.18337e-09
-9.85278e-09
2.38883e-09
-1.24262e-08
2.57336e-09
-1.51667e-08
2.74054e-09
-1.806e-08
2.89331e-09
-2.10939e-08
3.03387e-09
-2.42575e-08
3.16357e-09
-2.75404e-08
3.28291e-09
-3.0932e-08
3.39163e-09
-3.44207e-08
3.48872e-09
-3.79933e-08
3.57259e-09
-4.16344e-08
3.64112e-09
-4.53262e-08
3.69181e-09
-4.90481e-08
3.7219e-09
-5.27765e-08
3.72845e-09
-5.6485e-08
3.70847e-09
-6.0144e-08
3.65903e-09
-6.37214e-08
3.57734e-09
-6.71822e-08
3.46085e-09
-7.04896e-08
3.30737e-09
-7.36047e-08
3.11512e-09
-7.64876e-08
2.88284e-09
-7.90975e-08
2.6099e-09
-8.13938e-08
2.29632e-09
-8.33367e-08
1.94291e-09
-8.4888e-08
1.55128e-09
-8.60119e-08
1.1239e-09
-8.66761e-08
6.64151e-10
-8.68524e-08
1.76347e-10
-8.6518e-08
-3.34423e-10
-8.5656e-08
-8.62009e-10
-8.42564e-08
-1.3996e-09
-8.23167e-08
-1.93966e-09
-7.98426e-08
-2.47406e-09
-7.68484e-08
-2.99424e-09
-7.3357e-08
-3.49142e-09
-6.94002e-08
-3.95674e-09
-6.50187e-08
-4.38153e-09
-6.02612e-08
-4.75753e-09
-5.51841e-08
-5.07712e-09
-4.98505e-08
-5.33355e-09
-4.43294e-08
-5.52116e-09
-3.86938e-08
-5.63557e-09
-3.30199e-08
-5.67385e-09
-2.73853e-08
-5.63463e-09
-2.18671e-08
-5.51818e-09
-1.65407e-08
-5.32642e-09
-1.14778e-08
-5.06289e-09
-6.74515e-09
-4.73266e-09
-2.40293e-09
-4.34221e-09
1.4963e-09
-3.89923e-09
4.90871e-09
-3.4124e-09
7.79987e-09
-2.89116e-09
1.01454e-08
-2.34555e-09
1.19314e-08
-1.78595e-09
1.31543e-08
-1.22294e-09
1.38216e-08
-6.67246e-10
1.39513e-08
-1.29732e-10
1.35729e-08
3.78421e-10
1.27275e-08
8.45366e-10
1.14695e-08
1.258e-09
9.86841e-09
1.6011e-09
8.01242e-09
1.85599e-09
6.01352e-09
1.99891e-09
4.01421e-09
1.99931e-09
2.19456e-09
1.81965e-09
7.78369e-10
1.4162e-09
2.08777e-11
7.57503e-10
2.08885e-11
6.45024e-10
-9.68475e-10
1.6146e-09
-1.6109e-09
2.32969e-09
-1.31975e-09
2.42775e-09
-4.57964e-10
1.70088e-09
7.08451e-10
5.52827e-11
2.00238e-09
-2.52568e-09
3.31099e-09
-6.01325e-09
4.56951e-09
-1.03512e-08
5.74222e-09
-1.54713e-08
6.81441e-09
-2.13023e-08
7.78415e-09
-2.7776e-08
8.65703e-09
-3.48298e-08
9.44256e-09
-4.2408e-08
1.01516e-08
-5.04619e-08
1.07945e-08
-5.89488e-08
1.13801e-08
-6.783e-08
1.19151e-08
-7.70697e-08
1.24033e-08
-8.66326e-08
1.28459e-08
-9.64824e-08
1.32414e-08
-1.0658e-07
1.35862e-08
-1.16881e-07
1.38742e-08
-1.27338e-07
1.40979e-08
-1.37895e-07
1.42484e-08
-1.48489e-07
1.43159e-08
-1.59051e-07
1.42902e-08
-1.69503e-07
1.41609e-08
-1.79762e-07
1.3918e-08
-1.89737e-07
1.35521e-08
-1.99331e-07
1.30548e-08
-2.08442e-07
1.24191e-08
-2.16967e-07
1.16396e-08
-2.24797e-07
1.07129e-08
-2.31825e-07
9.63805e-09
-2.37945e-07
8.41633e-09
-2.43054e-07
7.05194e-09
-2.47055e-07
5.55201e-09
-2.49858e-07
3.92668e-09
-2.51383e-07
2.18929e-09
-2.51563e-07
3.56332e-10
-2.50344e-07
-1.55296e-09
-2.4769e-07
-3.51599e-09
-2.43582e-07
-5.50781e-09
-2.38021e-07
-7.50117e-09
-2.31028e-07
-9.467e-09
-2.22647e-07
-1.13749e-08
-2.12944e-07
-1.3194e-08
-2.02008e-07
-1.48931e-08
-1.89947e-07
-1.64421e-08
-1.76893e-07
-1.78122e-08
-1.62993e-07
-1.89771e-08
-1.48413e-07
-1.99134e-08
-1.33333e-07
-2.06017e-08
-1.17941e-07
-2.10268e-08
-1.02437e-07
-2.11786e-08
-8.70189e-08
-2.10523e-08
-7.18883e-08
-2.06487e-08
-5.72403e-08
-1.99744e-08
-4.32617e-08
-1.90414e-08
-3.01272e-08
-1.78672e-08
-1.79953e-08
-1.64741e-08
-7.00556e-09
-1.48889e-08
2.72411e-09
-1.31421e-08
1.11e-08
-1.1267e-08
1.80539e-08
-9.29951e-09
2.35451e-08
-7.27712e-09
2.75607e-08
-5.23849e-09
3.01167e-08
-3.22329e-09
3.12591e-08
-1.27214e-09
3.10647e-08
5.72824e-10
2.96428e-08
2.26727e-09
2.7138e-08
3.76282e-09
2.37339e-08
5.00525e-09
1.96581e-08
5.93179e-09
1.51885e-08
6.4685e-09
1.06584e-08
6.52944e-09
6.45661e-09
6.02144e-09
3.01395e-09
4.85886e-09
7.54419e-10
3.01703e-09
7.75311e-10
6.18371e-10
-1.58672e-09
1.32971e-09
-2.32234e-09
1.4683e-09
-1.45827e-09
6.17664e-10
3.92707e-10
-1.47099e-09
2.79712e-09
-4.91831e-09
5.44972e-09
-9.7533e-09
8.14598e-09
-1.59427e-08
1.07589e-08
-2.34164e-08
1.3216e-08
-3.20848e-08
1.54829e-08
-4.18509e-08
1.75502e-08
-5.26181e-08
1.94243e-08
-6.42955e-08
2.11199e-08
-7.67993e-08
2.26554e-08
-9.00538e-08
2.40489e-08
-1.0399e-07
2.5316e-08
-1.18542e-07
2.64679e-08
-1.3365e-07
2.75113e-08
-1.49252e-07
2.84472e-08
-1.65282e-07
2.92718e-08
-1.81672e-07
2.99765e-08
-1.98347e-07
3.05488e-08
-2.15222e-07
3.09726e-08
-2.32203e-07
3.12296e-08
-2.49187e-07
3.12998e-08
-2.66059e-07
3.11623e-08
-2.82694e-07
3.07962e-08
-2.98958e-07
3.01816e-08
-3.14706e-07
2.93002e-08
-3.29787e-07
2.81357e-08
-3.44043e-07
2.66753e-08
-3.57313e-07
2.49094e-08
-3.69433e-07
2.28331e-08
-3.80241e-07
2.0446e-08
-3.89578e-07
1.77533e-08
-3.97292e-07
1.47657e-08
-4.0324e-07
1.15002e-08
-4.07293e-07
7.97971e-09
-4.09337e-07
4.23381e-09
-4.09279e-07
2.98425e-10
-4.07047e-07
-3.78563e-09
-4.02592e-07
-7.97021e-09
-3.95897e-07
-1.22032e-08
-3.8697e-07
-1.6428e-08
-3.75853e-07
-2.05845e-08
-3.62617e-07
-2.46105e-08
-3.47369e-07
-2.84426e-08
-3.30244e-07
-3.20178e-08
-3.11411e-07
-3.52748e-08
-2.91068e-07
-3.81558e-08
-2.69437e-07
-4.06073e-08
-2.46768e-07
-4.25825e-08
-2.23328e-07
-4.40421e-08
-1.99399e-07
-4.49555e-08
-1.75275e-07
-4.53023e-08
-1.51255e-07
-4.50724e-08
-1.27637e-07
-4.42671e-08
-1.04712e-07
-4.28993e-08
-8.27608e-08
-4.09928e-08
-6.20454e-08
-3.85826e-08
-4.28061e-08
-3.57134e-08
-2.52557e-08
-3.24394e-08
-9.57543e-09
-2.88223e-08
4.0884e-09
-2.49308e-08
1.56276e-08
-2.08387e-08
2.49742e-08
-1.66237e-08
3.21027e-08
-1.2367e-08
3.70316e-08
-8.15218e-09
3.98247e-08
-4.06529e-09
4.05933e-08
-1.95757e-10
3.94976e-08
3.363e-09
3.67502e-08
6.51027e-09
3.26191e-08
9.13633e-09
2.74321e-08
1.11188e-08
2.158e-08
1.23206e-08
1.55179e-08
1.25916e-08
9.76049e-09
1.17788e-08
4.86706e-09
9.75231e-09
1.41385e-09
6.47024e-09
2.18916e-09
3.66091e-10
-1.95284e-09
4.09608e-10
-2.36601e-09
-5.21933e-10
-5.26658e-10
-2.83871e-09
2.70955e-09
-6.78531e-09
6.74375e-09
-1.24787e-08
1.11431e-08
-1.99424e-08
1.56096e-08
-2.91348e-08
1.99514e-08
-3.99735e-08
2.40547e-08
-5.23525e-08
2.78618e-08
-6.61558e-08
3.13535e-08
-8.12663e-08
3.45347e-08
-9.75708e-08
3.74244e-08
-1.14963e-07
4.00477e-08
-1.33344e-07
4.24299e-08
-1.52621e-07
4.45926e-08
-1.72704e-07
4.65515e-08
-1.93507e-07
4.83144e-08
-2.14942e-07
4.98813e-08
-2.36914e-07
5.1244e-08
-2.59324e-07
5.23872e-08
-2.82065e-07
5.32891e-08
-3.05015e-07
5.39232e-08
-3.28044e-07
5.42588e-08
-3.51008e-07
5.42631e-08
-3.73748e-07
5.39023e-08
-3.96095e-07
5.31431e-08
-4.17867e-07
5.19537e-08
-4.38872e-07
5.03054e-08
-4.5891e-07
4.81739e-08
-4.77775e-07
4.554e-08
-4.95256e-07
4.23909e-08
-5.11145e-07
3.87212e-08
-5.25232e-07
3.45336e-08
-5.37319e-07
2.98397e-08
-5.47213e-07
2.46605e-08
-5.5474e-07
1.90271e-08
-5.59741e-07
1.29804e-08
-5.62079e-07
6.5717e-09
-5.61643e-07
-1.37055e-10
-5.58352e-07
-7.07754e-09
-5.52154e-07
-1.41682e-08
-5.43034e-07
-2.13227e-08
-5.31014e-07
-2.84476e-08
-5.16155e-07
-3.54441e-08
-4.98555e-07
-4.22106e-08
-4.78353e-07
-4.86438e-08
-4.5573e-07
-5.46415e-08
-4.309e-07
-6.01046e-08
-4.04116e-07
-6.49394e-08
-3.75664e-07
-6.906e-08
-3.45856e-07
-7.23905e-08
-3.1503e-07
-7.48674e-08
-2.83545e-07
-7.64411e-08
-2.51769e-07
-7.7078e-08
-2.2008e-07
-7.67615e-08
-1.88854e-07
-7.54929e-08
-1.58462e-07
-7.32916e-08
-1.29259e-07
-7.01954e-08
-1.01582e-07
-6.62597e-08
-7.57392e-08
-6.15564e-08
-5.2006e-08
-5.61725e-08
-3.06199e-08
-5.02084e-08
-1.17749e-08
-4.37759e-08
4.38256e-09
-3.69961e-08
1.77566e-08
-2.99978e-08
2.83051e-08
-2.29155e-08
3.6042e-08
-1.58891e-08
4.10395e-08
-9.06278e-09
4.34298e-08
-2.586e-09
4.34075e-08
3.38528e-09
4.12318e-08
8.68601e-09
3.72288e-08
1.31393e-08
3.17941e-08
1.65535e-08
2.53937e-08
1.8721e-08
1.85635e-08
1.94217e-08
1.19064e-08
1.8436e-08
6.08623e-09
1.55725e-08
1.83028e-09
1.07262e-08
4.01945e-09
-1.65144e-11
-1.93628e-09
-9.27336e-10
-1.45525e-09
-3.29905e-09
1.84509e-09
-7.48639e-09
6.89693e-09
-1.36937e-08
1.29511e-08
-2.20095e-08
1.9459e-08
-3.24358e-08
2.60359e-08
-4.49135e-08
3.24291e-08
-5.93441e-08
3.84852e-08
-7.56059e-08
4.41237e-08
-9.35669e-08
4.93145e-08
-1.13093e-07
5.40607e-08
-1.34053e-07
5.83846e-08
-1.56322e-07
6.23169e-08
-1.79782e-07
6.58891e-08
-2.04317e-07
6.91278e-08
-2.29816e-07
7.20511e-08
-2.56169e-07
7.46668e-08
-2.83259e-07
7.69717e-08
-3.10966e-07
7.89513e-08
-3.39161e-07
8.05813e-08
-3.677e-07
8.18288e-08
-3.96431e-07
8.2654e-08
-4.25184e-07
8.30122e-08
-4.53777e-07
8.28557e-08
-4.82011e-07
8.21363e-08
-5.09674e-07
8.08066e-08
-5.36543e-07
7.88225e-08
-5.62382e-07
7.61446e-08
-5.86949e-07
7.27404e-08
-6.09994e-07
6.85854e-08
-6.31268e-07
6.36648e-08
-6.50522e-07
5.79748e-08
-6.67512e-07
5.15237e-08
-6.82005e-07
4.43328e-08
-6.93782e-07
3.64371e-08
-7.0264e-07
2.78859e-08
-7.08403e-07
1.87427e-08
-7.10917e-07
9.0857e-09
-7.10061e-07
-9.93175e-10
-7.05748e-07
-1.13898e-08
-6.9793e-07
-2.19865e-08
-6.86597e-07
-3.26558e-08
-6.71783e-07
-4.32617e-08
-6.53566e-07
-5.36614e-08
-6.32068e-07
-6.37079e-08
-6.07459e-07
-7.32529e-08
-5.79951e-07
-8.21498e-08
-5.49799e-07
-9.02565e-08
-5.17299e-07
-9.74389e-08
-4.82786e-07
-1.03574e-07
-4.46623e-07
-1.08553e-07
-4.09206e-07
-1.12285e-07
-3.7095e-07
-1.14697e-07
-3.32286e-07
-1.15742e-07
-2.93655e-07
-1.15392e-07
-2.55498e-07
-1.1365e-07
-2.1825e-07
-1.1054e-07
-1.8233e-07
-1.06115e-07
-1.48136e-07
-1.00453e-07
-1.16038e-07
-9.36547e-08
-8.63662e-08
-8.58443e-08
-5.94092e-08
-7.71654e-08
-3.5406e-08
-6.77791e-08
-1.45411e-08
-5.7861e-08
3.0599e-09
-4.75988e-08
1.73341e-08
-3.71898e-08
2.82841e-08
-2.6839e-08
3.59809e-08
-1.67596e-08
4.05661e-08
-7.1712e-09
4.22536e-08
1.6978e-09
4.13313e-08
9.60828e-09
3.81628e-08
1.63078e-08
3.3188e-08
2.15283e-08
2.69236e-08
2.49854e-08
1.99628e-08
2.63825e-08
1.29763e-08
2.54225e-08
6.71693e-09
2.18318e-08
2.04158e-09
1.54015e-08
6.06104e-09
-4.72941e-10
-1.46326e-09
-2.53802e-09
6.09836e-10
-6.62401e-09
5.93109e-09
-1.29941e-08
1.3267e-08
-2.17852e-08
2.17422e-08
-3.30361e-08
3.07099e-08
-4.6712e-08
3.97118e-08
-6.27263e-08
4.84433e-08
-8.09585e-08
5.67175e-08
-1.01269e-07
6.44343e-08
-1.2351e-07
7.15552e-08
-1.47531e-07
7.80821e-08
-1.73187e-07
8.40403e-08
-2.00336e-07
8.94656e-08
-2.28841e-07
9.43944e-08
-2.5857e-07
9.88566e-08
-2.8939e-07
1.02871e-07
-3.21167e-07
1.06444e-07
-3.53761e-07
1.09566e-07
-3.87023e-07
1.12214e-07
-4.20795e-07
1.14353e-07
-4.54903e-07
1.15937e-07
-4.8916e-07
1.16911e-07
-5.23362e-07
1.17214e-07
-5.57288e-07
1.16782e-07
-5.90703e-07
1.15552e-07
-6.23358e-07
1.13461e-07
-6.54989e-07
1.10454e-07
-6.85324e-07
1.0648e-07
-7.14083e-07
1.01499e-07
-7.4098e-07
9.5483e-08
-7.65733e-07
8.84174e-08
-7.8806e-07
8.03022e-08
-8.0769e-07
7.11539e-08
-8.24365e-07
6.10068e-08
-8.37841e-07
4.99133e-08
-8.479e-07
3.79447e-08
-8.54348e-07
2.51912e-08
-8.57024e-07
1.17616e-08
-8.558e-07
-2.21735e-09
-8.50587e-07
-1.66025e-08
-8.41339e-07
-3.12347e-08
-8.28053e-07
-4.59419e-08
-8.10773e-07
-6.05413e-08
-7.89593e-07
-7.48417e-08
-7.64653e-07
-8.86472e-08
-7.36146e-07
-1.0176e-07
-7.04309e-07
-1.13986e-07
-6.69429e-07
-1.25137e-07
-6.31836e-07
-1.35032e-07
-5.91899e-07
-1.4351e-07
-5.50026e-07
-1.50426e-07
-5.06655e-07
-1.55656e-07
-4.62248e-07
-1.59104e-07
-4.17287e-07
-1.60703e-07
-3.72264e-07
-1.60416e-07
-3.27673e-07
-1.58241e-07
-2.84005e-07
-1.54209e-07
-2.41735e-07
-1.48386e-07
-2.01315e-07
-1.40872e-07
-1.6317e-07
-1.318e-07
-1.27681e-07
-1.21333e-07
-9.51849e-08
-1.09661e-07
-6.59658e-08
-9.69982e-08
-4.02466e-08
-8.35801e-08
-1.81857e-08
-6.96597e-08
1.28342e-10
-5.55038e-08
1.4681e-08
-4.13917e-08
2.55332e-08
-2.76118e-08
3.28253e-08
-1.44633e-08
3.67783e-08
-2.25519e-09
3.76949e-08
8.69176e-09
3.59602e-08
1.80425e-08
3.20423e-08
2.54462e-08
2.64924e-08
3.05353e-08
1.99459e-08
3.2929e-08
1.31267e-08
3.22418e-08
6.85908e-09
2.80995e-08
2.0959e-09
2.01647e-08
8.15694e-09
-9.77811e-10
-4.8539e-10
-4.33175e-09
3.96379e-09
-1.03317e-08
1.1931e-08
-1.91225e-08
2.20579e-08
-3.0752e-08
3.33717e-08
-4.51915e-08
4.51494e-08
-6.23557e-08
5.68761e-08
-8.21207e-08
6.82083e-08
-1.04338e-07
7.89345e-08
-1.28845e-07
8.89419e-08
-1.55478e-07
9.81877e-08
-1.8407e-07
1.06675e-07
-2.14462e-07
1.14432e-07
-2.46497e-07
1.21501e-07
-2.80024e-07
1.27921e-07
-3.14892e-07
1.33724e-07
-3.50949e-07
1.38929e-07
-3.88042e-07
1.43536e-07
-4.26005e-07
1.47529e-07
-4.64665e-07
1.50874e-07
-5.03835e-07
1.53523e-07
-5.43313e-07
1.55414e-07
-5.82878e-07
1.56476e-07
-6.22294e-07
1.5663e-07
-6.61307e-07
1.55795e-07
-6.99648e-07
1.53893e-07
-7.37032e-07
1.50845e-07
-7.73162e-07
1.46584e-07
-8.07733e-07
1.4105e-07
-8.40432e-07
1.34198e-07
-8.70946e-07
1.25997e-07
-8.98961e-07
1.16433e-07
-9.24174e-07
1.05515e-07
-9.46288e-07
9.32682e-08
-9.65026e-07
7.97442e-08
-9.80128e-07
6.50154e-08
-9.91361e-07
4.91784e-08
-9.98523e-07
3.23531e-08
-1.00144e-06
1.46821e-08
-9.99991e-07
-3.66976e-09
-9.94076e-07
-2.25177e-08
-9.83653e-07
-4.1658e-08
-9.68724e-07
-6.08711e-08
-9.4934e-07
-7.99245e-08
-9.25606e-07
-9.85762e-08
-8.97675e-07
-1.16578e-07
-8.65754e-07
-1.33682e-07
-8.301e-07
-1.4964e-07
-7.91022e-07
-1.64215e-07
-7.48873e-07
-1.77181e-07
-7.04052e-07
-1.88331e-07
-6.56997e-07
-1.97481e-07
-6.08181e-07
-2.04472e-07
-5.58104e-07
-2.09181e-07
-5.07288e-07
-2.11518e-07
-4.5627e-07
-2.11434e-07
-4.05591e-07
-2.0892e-07
-3.55789e-07
-2.04011e-07
-3.0739e-07
-1.96785e-07
-2.60899e-07
-1.87364e-07
-2.16788e-07
-1.75911e-07
-1.75492e-07
-1.6263e-07
-1.37394e-07
-1.47758e-07
-1.02824e-07
-1.31568e-07
-7.20462e-08
-1.14358e-07
-4.52546e-08
-9.64512e-08
-2.25685e-08
-7.81899e-08
-4.02727e-09
-5.99329e-08
1.04136e-08
-4.20527e-08
2.08841e-08
-2.49339e-08
2.76021e-08
-8.97318e-09
3.08739e-08
5.41993e-09
3.1095e-08
1.78215e-08
2.87499e-08
2.77913e-08
2.44127e-08
3.48725e-08
1.87495e-08
3.85922e-08
1.25246e-08
3.84666e-08
6.61427e-09
3.40099e-08
2.03364e-09
2.47454e-08
1.01906e-08
-1.51261e-09
1.02723e-09
-6.24985e-09
8.70103e-09
-1.43085e-08
1.99897e-08
-2.56988e-08
3.34482e-08
-4.03628e-08
4.80357e-08
-5.81902e-08
6.29769e-08
-7.90342e-08
7.77201e-08
-1.02724e-07
9.18982e-08
-1.29077e-07
1.05287e-07
-1.57905e-07
1.1777e-07
-1.89023e-07
1.29306e-07
-2.2225e-07
1.39901e-07
-2.57411e-07
1.49593e-07
-2.94336e-07
1.58426e-07
-3.32859e-07
1.66444e-07
-3.72815e-07
1.7368e-07
-4.14034e-07
1.80148e-07
-4.56343e-07
1.85844e-07
-4.99555e-07
1.90741e-07
-5.43473e-07
1.94793e-07
-5.87884e-07
1.97935e-07
-6.32558e-07
2.00088e-07
-6.77246e-07
2.01163e-07
-7.21681e-07
2.01065e-07
-7.65579e-07
1.99693e-07
-8.0864e-07
1.96953e-07
-8.50548e-07
1.92754e-07
-8.90978e-07
1.87014e-07
-9.29597e-07
1.79668e-07
-9.66064e-07
1.70665e-07
-1.00004e-06
1.59974e-07
-1.03119e-06
1.47586e-07
-1.0592e-06
1.33517e-07
-1.08373e-06
1.17807e-07
-1.10452e-06
1.00526e-07
-1.12127e-06
8.17684e-08
-1.13375e-06
6.16589e-08
-1.14175e-06
4.03491e-08
-1.14508e-06
1.80178e-08
-1.14362e-06
-5.1303e-09
-1.13727e-06
-2.8867e-08
-1.12599e-06
-5.2942e-08
-1.10977e-06
-7.70867e-08
-1.08868e-06
-1.01017e-07
-1.06282e-06
-1.24439e-07
-1.03234e-06
-1.4705e-07
-9.97478e-07
-1.68548e-07
-9.58486e-07
-1.88632e-07
-9.1569e-07
-2.07011e-07
-8.69459e-07
-2.23412e-07
-8.20213e-07
-2.37578e-07
-7.68412e-07
-2.49282e-07
-7.14555e-07
-2.58329e-07
-6.59174e-07
-2.64562e-07
-6.02826e-07
-2.67867e-07
-5.46085e-07
-2.68175e-07
-4.89534e-07
-2.6547e-07
-4.33758e-07
-2.59787e-07
-3.79329e-07
-2.51213e-07
-3.26801e-07
-2.39891e-07
-2.76699e-07
-2.26013e-07
-2.29507e-07
-2.09822e-07
-1.85658e-07
-1.91607e-07
-1.4553e-07
-1.71696e-07
-1.09432e-07
-1.50457e-07
-7.75988e-08
-1.28284e-07
-5.01856e-08
-1.05603e-07
-2.72621e-08
-8.28564e-08
-8.8082e-09
-6.05066e-08
5.2883e-09
-3.90304e-08
1.52338e-08
-1.89187e-08
2.13297e-08
-6.75931e-10
2.39727e-08
1.51784e-08
2.36552e-08
2.81089e-08
2.09653e-08
3.75624e-08
1.65902e-08
4.29673e-08
1.13223e-08
4.37346e-08
6.07145e-09
3.92607e-08
1.88679e-09
2.893e-08
1.20774e-08
-2.06766e-09
3.09489e-09
-8.25343e-09
1.48868e-08
-1.84745e-08
3.02108e-08
-3.2595e-08
4.75687e-08
-5.04396e-08
6.58802e-08
-7.18058e-08
8.43431e-08
-9.64756e-08
1.0239e-07
-1.24224e-07
1.19647e-07
-1.54829e-07
1.35892e-07
-1.88072e-07
1.51013e-07
-2.23746e-07
1.64979e-07
-2.61652e-07
1.77807e-07
-3.01601e-07
1.89542e-07
-3.4341e-07
2.00235e-07
-3.869e-07
2.09934e-07
-4.3189e-07
2.18671e-07
-4.78198e-07
2.26456e-07
-5.25629e-07
2.33275e-07
-5.73979e-07
2.39091e-07
-6.23029e-07
2.43842e-07
-6.72541e-07
2.47447e-07
-7.22261e-07
2.49808e-07
-7.71914e-07
2.50816e-07
-8.21205e-07
2.50356e-07
-8.69825e-07
2.48313e-07
-9.17446e-07
2.44574e-07
-9.63726e-07
2.39034e-07
-1.00832e-06
2.31604e-07
-1.05086e-06
2.22209e-07
-1.09099e-06
2.10797e-07
-1.12835e-06
1.97338e-07
-1.1626e-06
1.81829e-07
-1.19338e-06
1.64297e-07
-1.22037e-06
1.44798e-07
-1.24326e-06
1.2342e-07
-1.26178e-06
1.00284e-07
-1.27566e-06
7.55434e-08
-1.2847e-06
4.9382e-08
-1.28869e-06
2.20163e-08
-1.28752e-06
-6.30826e-09
-1.28106e-06
-3.53194e-08
-1.26929e-06
-6.47194e-08
-1.25218e-06
-9.41901e-08
-1.2298e-06
-1.23396e-07
-1.20226e-06
-1.51987e-07
-1.1697e-06
-1.79608e-07
-1.13235e-06
-2.05899e-07
-1.09047e-06
-2.30505e-07
-1.0444e-06
-2.53082e-07
-9.94517e-07
-2.73299e-07
-9.41243e-07
-2.90851e-07
-8.8506e-07
-3.05465e-07
-8.26486e-07
-3.16903e-07
-7.66079e-07
-3.24969e-07
-7.04425e-07
-3.29521e-07
-6.42132e-07
-3.30467e-07
-5.79825e-07
-3.27778e-07
-5.1813e-07
-3.21482e-07
-4.57667e-07
-3.11676e-07
-3.99041e-07
-2.98517e-07
-3.42828e-07
-2.82226e-07
-2.89565e-07
-2.63085e-07
-2.3974e-07
-2.41432e-07
-1.9378e-07
-2.17655e-07
-1.52046e-07
-1.92191e-07
-1.14819e-07
-1.65512e-07
-8.22955e-08
-1.38127e-07
-5.45818e-08
-1.1057e-07
-3.16892e-08
-8.33992e-08
-1.35303e-08
-5.71893e-08
8.26516e-11
-3.25317e-08
9.43926e-09
-1.00325e-08
1.49304e-08
9.68734e-09
1.70488e-08
2.59905e-08
1.63897e-08
3.82215e-08
1.36528e-08
4.57042e-08
9.6475e-09
4.77398e-08
5.30239e-09
4.36058e-08
1.67928e-09
3.25531e-08
1.37567e-08
-2.63648e-09
5.73138e-09
-1.03152e-08
2.25656e-08
-2.27703e-08
4.26658e-08
-3.97123e-08
6.45108e-08
-6.08407e-08
8.70086e-08
-8.58526e-08
1.09355e-07
-1.14452e-07
1.30989e-07
-1.46353e-07
1.51549e-07
-1.8129e-07
1.70828e-07
-2.1901e-07
1.88734e-07
-2.59283e-07
2.05252e-07
-3.0189e-07
2.20415e-07
-3.46628e-07
2.3428e-07
-3.93301e-07
2.46908e-07
-4.41718e-07
2.58351e-07
-4.91685e-07
2.68638e-07
-5.43004e-07
2.77775e-07
-5.95466e-07
2.85737e-07
-6.48849e-07
2.92474e-07
-7.02913e-07
2.97907e-07
-7.57401e-07
3.01935e-07
-8.12035e-07
3.04442e-07
-8.66518e-07
3.05299e-07
-9.20533e-07
3.04371e-07
-9.73746e-07
3.01526e-07
-1.02581e-06
2.96634e-07
-1.07635e-06
2.8958e-07
-1.12501e-06
2.80264e-07
-1.17141e-06
2.68606e-07
-1.21516e-06
2.54552e-07
-1.2559e-06
2.38078e-07
-1.29326e-06
2.19186e-07
-1.32688e-06
1.97916e-07
-1.35642e-06
1.74341e-07
-1.38157e-06
1.48571e-07
-1.40204e-06
1.2075e-07
-1.41756e-06
9.10616e-08
-1.4279e-06
5.9724e-08
-1.43287e-06
2.69903e-08
-1.43233e-06
-6.85345e-09
-1.42616e-06
-4.1491e-08
-1.4143e-06
-7.65779e-08
-1.39674e-06
-1.11746e-07
-1.37353e-06
-1.46607e-07
-1.34476e-06
-1.80759e-07
-1.31058e-06
-2.13788e-07
-1.2712e-06
-2.45279e-07
-1.22689e-06
-2.74818e-07
-1.17796e-06
-3.02004e-07
-1.12481e-06
-3.2645e-07
-1.06787e-06
-3.47796e-07
-1.00761e-06
-3.65718e-07
-9.4459e-07
-3.79928e-07
-8.79368e-07
-3.9019e-07
-8.12564e-07
-3.96325e-07
-7.44818e-07
-3.98213e-07
-6.76791e-07
-3.95805e-07
-6.09152e-07
-3.89121e-07
-5.42572e-07
-3.78256e-07
-4.77706e-07
-3.63383e-07
-4.15186e-07
-3.44747e-07
-3.55606e-07
-3.22665e-07
-2.99512e-07
-2.97526e-07
-2.4739e-07
-2.69777e-07
-1.99655e-07
-2.39926e-07
-1.56641e-07
-2.08526e-07
-1.18594e-07
-1.76174e-07
-8.56625e-08
-1.43501e-07
-5.78968e-08
-1.11165e-07
-3.52407e-08
-7.98454e-08
-1.75314e-08
-5.0241e-08
-4.49798e-09
-2.30659e-08
4.23888e-09
9.50496e-10
9.1666e-09
2.10628e-08
1.08809e-08
3.65072e-08
1.00868e-08
4.64983e-08
7.60211e-09
5.02245e-08
4.36234e-09
4.68456e-08
1.42846e-09
3.5487e-08
1.51851e-08
-3.2142e-09
8.94559e-09
-1.24143e-08
3.17656e-08
-2.71487e-08
5.74003e-08
-4.69705e-08
8.43326e-08
-7.1448e-08
1.11486e-07
-1.00173e-07
1.3808e-07
-1.32764e-07
1.6358e-07
-1.68874e-07
1.87659e-07
-2.08187e-07
2.1014e-07
-2.50415e-07
2.30962e-07
-2.953e-07
2.50137e-07
-3.42606e-07
2.67721e-07
-3.92113e-07
2.83787e-07
-4.43614e-07
2.98409e-07
-4.96904e-07
3.11641e-07
-5.51778e-07
3.23513e-07
-6.08026e-07
3.34023e-07
-6.65425e-07
3.43136e-07
-7.23736e-07
3.50785e-07
-7.82704e-07
3.56874e-07
-8.42052e-07
3.61283e-07
-9.01483e-07
3.63873e-07
-9.60681e-07
3.64497e-07
-1.01931e-06
3.63e-07
-1.07701e-06
3.59231e-07
-1.13343e-06
3.53047e-07
-1.18817e-06
3.44322e-07
-1.24085e-06
3.32946e-07
-1.29108e-06
3.18837e-07
-1.33847e-06
3.01942e-07
-1.38263e-06
2.82237e-07
-1.42318e-06
2.59738e-07
-1.45976e-06
2.34495e-07
-1.49202e-06
2.066e-07
-1.51963e-06
1.76181e-07
-1.54229e-06
1.43411e-07
-1.55973e-06
1.08501e-07
-1.57171e-06
7.17026e-08
-1.57802e-06
3.3304e-08
-1.57851e-06
-6.36863e-09
-1.57304e-06
-4.69565e-08
-1.56155e-06
-8.80691e-08
-1.54401e-06
-1.29289e-07
-1.52044e-06
-1.70178e-07
-1.49092e-06
-2.10277e-07
-1.45559e-06
-2.49118e-07
-1.41464e-06
-2.86227e-07
-1.36833e-06
-3.21131e-07
-1.31697e-06
-3.53367e-07
-1.26093e-06
-3.8249e-07
-1.20064e-06
-4.08081e-07
-1.1366e-06
-4.29755e-07
-1.06936e-06
-4.47175e-07
-9.99494e-07
-4.60054e-07
-9.2765e-07
-4.68169e-07
-8.54497e-07
-4.71367e-07
-7.80732e-07
-4.69569e-07
-7.07071e-07
-4.62782e-07
-6.34231e-07
-4.51096e-07
-5.62925e-07
-4.34689e-07
-4.93844e-07
-4.13828e-07
-4.27645e-07
-3.88865e-07
-3.64937e-07
-3.60233e-07
-3.06272e-07
-3.28442e-07
-2.52127e-07
-2.94071e-07
-2.02895e-07
-2.57757e-07
-1.5888e-07
-2.20189e-07
-1.20282e-07
-1.82099e-07
-8.7195e-08
-1.44252e-07
-5.96014e-08
-1.07439e-07
-3.73702e-08
-7.24722e-08
-2.02547e-08
-4.01814e-08
-7.8929e-09
-1.14113e-08
1.9203e-10
1.29779e-08
4.59095e-09
3.21083e-08
6.00853e-09
4.50807e-08
5.264e-09
5.09691e-08
3.29252e-09
4.88171e-08
1.14674e-09
3.76328e-08
1.63319e-08
-3.79673e-09
1.27423e-08
-1.45328e-08
4.25017e-08
-3.15699e-08
7.44373e-08
-5.43004e-08
1.07063e-07
-8.21585e-08
1.39344e-07
-1.14626e-07
1.70547e-07
-1.51236e-07
2.00191e-07
-1.91574e-07
2.27996e-07
-2.35271e-07
2.53837e-07
-2.82003e-07
2.77695e-07
-3.31486e-07
2.99619e-07
-3.83461e-07
3.19696e-07
-4.37694e-07
3.3802e-07
-4.93965e-07
3.54679e-07
-5.52059e-07
3.69734e-07
-6.1176e-07
3.83214e-07
-6.72846e-07
3.95109e-07
-7.35082e-07
4.05372e-07
-7.98216e-07
4.13919e-07
-8.61977e-07
4.20636e-07
-9.26074e-07
4.2538e-07
-9.90195e-07
4.27994e-07
-1.05401e-06
4.28308e-07
-1.11716e-06
4.26149e-07
-1.17928e-06
4.2135e-07
-1.23998e-06
4.13753e-07
-1.29888e-06
4.03221e-07
-1.35557e-06
3.89639e-07
-1.40966e-06
3.72921e-07
-1.46073e-06
3.53015e-07
-1.5084e-06
3.29904e-07
-1.55227e-06
3.03611e-07
-1.59197e-06
2.742e-07
-1.62715e-06
2.4178e-07
-1.65747e-06
2.06501e-07
-1.68262e-06
1.68559e-07
-1.70231e-06
1.28193e-07
-1.7163e-06
8.5685e-08
-1.72435e-06
4.13584e-08
-1.7263e-06
-4.42298e-09
-1.72199e-06
-5.12605e-08
-1.71134e-06
-9.87184e-08
-1.6943e-06
-1.46333e-07
-1.67086e-06
-1.93613e-07
-1.64109e-06
-2.40049e-07
-1.60509e-06
-2.85115e-07
-1.56304e-06
-3.28277e-07
-1.51517e-06
-3.69001e-07
-1.46178e-06
-4.06761e-07
-1.40322e-06
-4.41048e-07
-1.33993e-06
-4.71377e-07
-1.27238e-06
-4.97303e-07
-1.20113e-06
-5.18426e-07
-1.12678e-06
-5.34404e-07
-1.04998e-06
-5.44963e-07
-9.71445e-07
-5.49904e-07
-8.91899e-07
-5.49116e-07
-8.12102e-07
-5.42579e-07
-7.32827e-07
-5.30371e-07
-6.54844e-07
-5.12672e-07
-5.78909e-07
-4.89763e-07
-5.05748e-07
-4.62026e-07
-4.36042e-07
-4.29939e-07
-3.70413e-07
-3.94071e-07
-3.09412e-07
-3.55073e-07
-2.535e-07
-3.13669e-07
-2.03045e-07
-2.70644e-07
-1.58307e-07
-2.26838e-07
-1.19433e-07
-1.83126e-07
-8.6451e-08
-1.40421e-07
-5.92687e-08
-9.96545e-08
-3.76694e-08
-6.17808e-08
-2.13136e-08
-2.77671e-08
-9.74026e-09
1.40449e-09
-2.36781e-09
2.47358e-08
1.50351e-09
4.12094e-08
2.69009e-09
4.97825e-08
2.12248e-09
4.93847e-08
8.42759e-10
3.89125e-08
1.71746e-08
-4.38011e-09
1.71224e-08
-1.66544e-08
5.4776e-08
-3.59971e-08
9.378e-08
-6.16388e-08
1.32705e-07
-9.28778e-08
1.70583e-07
-1.29085e-07
2.06754e-07
-1.69704e-07
2.4081e-07
-2.14252e-07
2.72544e-07
-2.62308e-07
3.01893e-07
-3.1351e-07
3.28897e-07
-3.67544e-07
3.53652e-07
-4.24131e-07
3.76283e-07
-4.83023e-07
3.96912e-07
-5.43986e-07
4.15643e-07
-6.06796e-07
4.32544e-07
-6.71227e-07
4.47645e-07
-7.37048e-07
4.6093e-07
-8.04012e-07
4.72336e-07
-8.71858e-07
4.81764e-07
-9.40301e-07
4.89079e-07
-1.00904e-06
4.94118e-07
-1.07775e-06
4.96702e-07
-1.14608e-06
4.96639e-07
-1.21367e-06
4.9374e-07
-1.28014e-06
4.8782e-07
-1.3451e-06
4.7871e-07
-1.40814e-06
4.66261e-07
-1.46885e-06
4.50354e-07
-1.52683e-06
4.30901e-07
-1.58167e-06
4.07851e-07
-1.63296e-06
3.81193e-07
-1.6803e-06
3.50959e-07
-1.72333e-06
3.17226e-07
-1.76167e-06
2.80119e-07
-1.79498e-06
2.39808e-07
-1.82293e-06
1.96511e-07
-1.84523e-06
1.50492e-07
-1.8616e-06
1.02061e-07
-1.87182e-06
5.15754e-08
-1.87568e-06
-5.66505e-10
-1.87301e-06
-5.39304e-08
-1.86369e-06
-1.08036e-07
-1.84765e-06
-1.62375e-07
-1.82485e-06
-2.16408e-07
-1.79533e-06
-2.69571e-07
-1.75916e-06
-3.21283e-07
-1.71649e-06
-3.7095e-07
-1.66752e-06
-4.17974e-07
-1.61252e-06
-4.61763e-07
-1.55183e-06
-5.01738e-07
-1.48586e-06
-5.37348e-07
-1.41508e-06
-5.68076e-07
-1.34005e-06
-5.93456e-07
-1.26138e-06
-6.13079e-07
-1.17973e-06
-6.26611e-07
-1.09583e-06
-6.338e-07
-1.01046e-06
-6.34491e-07
-9.24409e-07
-6.28628e-07
-8.38512e-07
-6.16268e-07
-7.536e-07
-5.97584e-07
-6.70499e-07
-5.72864e-07
-5.90012e-07
-5.42514e-07
-5.12897e-07
-5.07053e-07
-4.39859e-07
-4.67109e-07
-3.71528e-07
-4.23404e-07
-3.08445e-07
-3.76751e-07
-2.51052e-07
-3.28037e-07
-1.99679e-07
-2.78211e-07
-1.54534e-07
-2.28271e-07
-1.15699e-07
-1.79255e-07
-8.31278e-08
-1.32226e-07
-5.664e-08
-8.82686e-08
-3.59245e-08
-4.84826e-08
-2.05402e-08
-1.39798e-08
-9.91915e-09
1.41148e-08
-3.3698e-09
3.466e-08
-8.13208e-11
4.6494e-08
8.7212e-10
4.84313e-08
5.22215e-10
3.92624e-08
1.76968e-08
-4.96029e-09
2.20827e-08
-1.87631e-08
6.85787e-08
-4.03951e-08
1.15412e-07
-6.89256e-08
1.61235e-07
-1.03516e-07
2.05174e-07
-1.43427e-07
2.46665e-07
-1.88013e-07
2.85396e-07
-2.3672e-07
3.21251e-07
-2.89077e-07
3.5425e-07
-3.44681e-07
3.84501e-07
-4.03189e-07
4.12161e-07
-4.64304e-07
4.37398e-07
-5.27761e-07
4.60369e-07
-5.93315e-07
4.81197e-07
-6.60734e-07
4.99963e-07
-7.29782e-07
5.16694e-07
-8.0022e-07
5.31367e-07
-8.71793e-07
5.43909e-07
-9.44229e-07
5.54201e-07
-1.01724e-06
5.62087e-07
-1.0905e-06
5.67385e-07
-1.16369e-06
5.69892e-07
-1.23645e-06
5.694e-07
-1.30841e-06
5.65697e-07
-1.37918e-06
5.58586e-07
-1.44835e-06
5.47884e-07
-1.51553e-06
5.33436e-07
-1.58029e-06
5.15116e-07
-1.64222e-06
4.92834e-07
-1.70091e-06
4.66542e-07
-1.75595e-06
4.36234e-07
-1.80695e-06
4.01951e-07
-1.8535e-06
3.63783e-07
-1.89525e-06
3.21867e-07
-1.93183e-06
2.7639e-07
-1.96291e-06
2.27592e-07
-1.98818e-06
1.75759e-07
-2.00735e-06
1.21228e-07
-2.02016e-06
6.43824e-08
-2.02638e-06
5.65252e-09
-2.02582e-06
-5.44894e-08
-2.01832e-06
-1.15527e-07
-2.00379e-06
-1.76909e-07
-1.98215e-06
-2.38048e-07
-1.95339e-06
-2.98329e-07
-1.91756e-06
-3.57115e-07
-1.87476e-06
-4.13751e-07
-1.82516e-06
-4.67574e-07
-1.769e-06
-5.17924e-07
-1.70659e-06
-5.64151e-07
-1.63831e-06
-6.05626e-07
-1.56463e-06
-6.41759e-07
-1.48608e-06
-6.72005e-07
-1.40327e-06
-6.95883e-07
-1.3169e-06
-7.12988e-07
-1.22769e-06
-7.23003e-07
-1.13647e-06
-7.25716e-07
-1.04407e-06
-7.21026e-07
-9.5138e-07
-7.08958e-07
-8.59297e-07
-6.89666e-07
-7.68723e-07
-6.63438e-07
-6.80542e-07
-6.30696e-07
-5.956e-07
-5.91995e-07
-5.14694e-07
-5.48015e-07
-4.38543e-07
-4.99555e-07
-3.67779e-07
-4.47515e-07
-3.02931e-07
-3.92886e-07
-2.44406e-07
-3.36736e-07
-1.92487e-07
-2.80191e-07
-1.47318e-07
-2.24423e-07
-1.08908e-07
-1.70637e-07
-7.71184e-08
-1.20058e-07
-5.16738e-08
-7.39272e-08
-3.21577e-08
-3.34959e-08
-1.80188e-08
-2.40273e-11
-8.57641e-09
2.52176e-08
-3.02568e-09
4.09433e-08
-4.46353e-10
4.58519e-08
1.88503e-10
3.86276e-08
1.78853e-08
-5.533e-09
2.76157e-08
-2.08424e-08
8.38882e-08
-4.4729e-08
1.39298e-07
-7.61015e-08
1.92608e-07
-1.13987e-07
2.4306e-07
-1.57535e-07
2.90213e-07
-2.06012e-07
3.33873e-07
-2.58796e-07
3.74035e-07
-3.15361e-07
4.10815e-07
-3.75268e-07
4.44408e-07
-4.38146e-07
4.75038e-07
-5.03676e-07
5.02928e-07
-5.71579e-07
5.28272e-07
-6.416e-07
5.51219e-07
-7.13497e-07
5.7186e-07
-7.8703e-07
5.90226e-07
-8.6195e-07
6.06287e-07
-9.37996e-07
6.19956e-07
-1.01489e-06
6.31096e-07
-1.09234e-06
6.39533e-07
-1.17001e-06
6.4506e-07
-1.24758e-06
6.47457e-07
-1.32467e-06
6.46493e-07
-1.40092e-06
6.41942e-07
-1.47592e-06
6.3359e-07
-1.54928e-06
6.21244e-07
-1.62058e-06
6.04741e-07
-1.68942e-06
5.83948e-07
-1.75536e-06
5.58777e-07
-1.818e-06
5.2918e-07
-1.87692e-06
4.95157e-07
-1.93173e-06
4.56755e-07
-1.98202e-06
4.14074e-07
-2.02741e-06
3.67264e-07
-2.06755e-06
3.16527e-07
-2.10208e-06
2.62119e-07
-2.13066e-06
2.04347e-07
-2.15301e-06
1.43569e-07
-2.16882e-06
8.01932e-08
-2.17784e-06
1.46781e-08
-2.17986e-06
-5.24717e-08
-2.17468e-06
-1.20705e-07
-2.16216e-06
-1.89431e-07
-2.14219e-06
-2.58018e-07
-2.11472e-06
-3.25802e-07
-2.07974e-06
-3.92089e-07
-2.03733e-06
-4.56165e-07
-1.9876e-06
-5.17303e-07
-1.93075e-06
-5.74769e-07
-1.86707e-06
-6.27837e-07
-1.79689e-06
-6.75801e-07
-1.72067e-06
-7.17986e-07
-1.63891e-06
-7.53763e-07
-1.55222e-06
-7.82567e-07
-1.4613e-06
-8.03912e-07
-1.3669e-06
-8.17403e-07
-1.26985e-06
-8.2276e-07
-1.17106e-06