/*--------------------------------*- C++ -*----------------------------------*\
  =========                 |
  \\      /  F ield         | OpenFOAM: The Open Source CFD Toolbox
   \\    /   O peration     | Website:  https://openfoam.org
    \\  /    A nd           | Version:  7
     \\/     M anipulation  |
\*---------------------------------------------------------------------------*/
FoamFile
{
    version     2.0;
    format      ascii;
    class       volVectorField;
    location    "3";
    object      U;
}
// * * * * * * * * * * * * * * * * * * * * * * * * * * * * * * * * * * * * * //

dimensions      [0 1 -1 0 0 0 0];

internalField   nonuniform List<vector> 
6400
(
(1.1335e-05 -1.16343e-05 0)
(4.98332e-05 -2.42397e-05 0)
(0.000103063 -2.4649e-05 0)
(0.000144427 -1.81118e-05 0)
(0.000160792 -8.65379e-06 0)
(0.000147618 1.55445e-06 0)
(0.000104041 1.14641e-05 0)
(3.11928e-05 2.05442e-05 0)
(-6.87524e-05 2.86309e-05 0)
(-0.000193235 3.57224e-05 0)
(-0.000339654 4.18995e-05 0)
(-0.000505589 4.7287e-05 0)
(-0.000688897 5.20224e-05 0)
(-0.000887748 5.62384e-05 0)
(-0.00110062 6.00516e-05 0)
(-0.00132624 6.35569e-05 0)
(-0.00156357 6.68244e-05 0)
(-0.00181169 6.98982e-05 0)
(-0.00206978 7.27984e-05 0)
(-0.002337 7.55222e-05 0)
(-0.00261248 7.80468e-05 0)
(-0.00289523 8.03323e-05 0)
(-0.00318412 8.23245e-05 0)
(-0.00347783 8.39586e-05 0)
(-0.00377481 8.51618e-05 0)
(-0.00407332 8.58561e-05 0)
(-0.00437135 8.5961e-05 0)
(-0.00466664 8.53962e-05 0)
(-0.00495674 8.40837e-05 0)
(-0.00523895 8.19506e-05 0)
(-0.0055104 7.89311e-05 0)
(-0.00576804 7.49693e-05 0)
(-0.00600871 7.00212e-05 0)
(-0.00622917 6.40573e-05 0)
(-0.00642616 5.70649e-05 0)
(-0.00659644 4.90503e-05 0)
(-0.00673688 4.00406e-05 0)
(-0.0068445 3.00853e-05 0)
(-0.00691656 1.92585e-05 0)
(-0.00695062 7.65887e-06 0)
(-0.00694464 -4.59201e-06 0)
(-0.006897 -1.73461e-05 0)
(-0.00680662 -3.0433e-05 0)
(-0.00667299 -4.36618e-05 0)
(-0.00649623 -5.68242e-05 0)
(-0.00627713 -6.96982e-05 0)
(-0.00601718 -8.20529e-05 0)
(-0.00571856 -9.36542e-05 0)
(-0.0053842 -0.000104271 0)
(-0.00501766 -0.000113682 0)
(-0.00462316 -0.000121682 0)
(-0.00420552 -0.000128088 0)
(-0.00377003 -0.000132746 0)
(-0.00332239 -0.000135538 0)
(-0.0028686 -0.000136385 0)
(-0.00241484 -0.000135249 0)
(-0.00196733 -0.000132138 0)
(-0.00153219 -0.000127106 0)
(-0.00111534 -0.000120248 0)
(-0.000722343 -0.000111703 0)
(-0.000358298 -0.000101644 0)
(-2.77376e-05 -9.02766e-05 0)
(0.000265465 -7.78311e-05 0)
(0.000518166 -6.45524e-05 0)
(0.000728006 -5.06998e-05 0)
(0.000893444 -3.65359e-05 0)
(0.00101378 -2.23234e-05 0)
(0.00108916 -8.3231e-06 0)
(0.00112061 5.20478e-06 0)
(0.00111 1.79951e-05 0)
(0.00106016 2.97674e-05 0)
(0.000974872 4.02002e-05 0)
(0.000859049 4.88995e-05 0)
(0.000718939 5.53423e-05 0)
(0.000562479 5.87941e-05 0)
(0.000399802 5.82134e-05 0)
(0.000243789 5.21791e-05 0)
(0.000110459 3.8848e-05 0)
(1.9614e-05 1.69242e-05 0)
(-6.22313e-06 -6.19063e-06 0)
(2.44888e-05 -5.0604e-05 0)
(9.11215e-05 -9.0757e-05 0)
(0.000165838 -8.26404e-05 0)
(0.000204387 -4.55985e-05 0)
(0.000182136 5.98688e-06 0)
(8.82789e-05 6.30807e-05 0)
(-8.09009e-05 0.000120346 0)
(-0.000324486 0.000174817 0)
(-0.000638679 0.000225036 0)
(-0.00101832 0.000270492 0)
(-0.00145769 0.000311232 0)
(-0.00195114 0.000347626 0)
(-0.00249338 0.000380192 0)
(-0.00307967 0.000409487 0)
(-0.00370586 0.000436033 0)
(-0.0043683 0.000460267 0)
(-0.00506377 0.000482512 0)
(-0.00578933 0.000502971 0)
(-0.00654216 0.000521715 0)
(-0.00731944 0.0005387 0)
(-0.00811817 0.000553769 0)
(-0.00893506 0.000566674 0)
(-0.00976645 0.000577089 0)
(-0.0106082 0.000584628 0)
(-0.0114555 0.000588864 0)
(-0.0123032 0.000589344 0)
(-0.0131454 0.000585611 0)
(-0.0139755 0.000577214 0)
(-0.0147867 0.000563726 0)
(-0.0155714 0.000544761 0)
(-0.0163217 0.000519988 0)
(-0.0170292 0.000489142 0)
(-0.0176855 0.000452041 0)
(-0.0182819 0.0004086 0)
(-0.0188098 0.000358839 0)
(-0.0192609 0.000302896 0)
(-0.0196271 0.000241037 0)
(-0.0199009 0.000173662 0)
(-0.0200754 0.00010131 0)
(-0.0201447 2.46609e-05 0)
(-0.020104 -5.54776e-05 0)
(-0.0199496 -0.000138151 0)
(-0.0196793 -0.000222293 0)
(-0.0192922 -0.00030673 0)
(-0.0187894 -0.000390202 0)
(-0.0181734 -0.000471385 0)
(-0.0174485 -0.000548921 0)
(-0.016621 -0.000621446 0)
(-0.0156988 -0.000687626 0)
(-0.0146915 -0.000746189 0)
(-0.0136103 -0.000795966 0)
(-0.0124677 -0.00083592 0)
(-0.0112778 -0.000865184 0)
(-0.0100551 -0.000883087 0)
(-0.00881546 -0.000889179 0)
(-0.00757469 -0.000883249 0)
(-0.00634894 -0.000865337 0)
(-0.00515409 -0.000835738 0)
(-0.00400553 -0.000794992 0)
(-0.00291777 -0.000743878 0)
(-0.00190421 -0.000683389 0)
(-0.000976833 -0.000614706 0)
(-0.000145983 -0.00053917 0)
(0.000579832 -0.00045824 0)
(0.00119411 -0.000373471 0)
(0.00169247 -0.000286478 0)
(0.00207273 -0.000198916 0)
(0.00233502 -0.000112465 0)
(0.00248179 -2.88399e-05 0)
(0.00251793 5.01903e-05 0)
(0.00245084 0.000122752 0)
(0.00229062 0.000186777 0)
(0.00205031 0.000239889 0)
(0.00174627 0.000279234 0)
(0.00139864 0.00030128 0)
(0.00103188 0.000301681 0)
(0.000674777 0.00027539 0)
(0.000359663 0.000217254 0)
(0.000125147 0.000125387 0)
(1.67287e-05 1.95012e-05 0)
(2.54967e-05 -0.000104672 0)
(8.39107e-05 -0.000165912 0)
(0.000126997 -0.000126919 0)
(0.000105645 -2.63801e-05 0)
(-8.325e-06 0.000107978 0)
(-0.000228422 0.000257057 0)
(-0.000559806 0.000408407 0)
(-0.00100181 0.000554553 0)
(-0.0015499 0.000691337 0)
(-0.00219742 0.000816909 0)
(-0.0029367 0.000930889 0)
(-0.00375987 0.00103379 0)
(-0.00465937 0.0011266 0)
(-0.00562819 0.00121049 0)
(-0.00665996 0.00128658 0)
(-0.0077489 0.00135584 0)
(-0.0088897 0.00141901 0)
(-0.0100774 0.00147648 0)
(-0.011307 0.00152839 0)
(-0.0125736 0.00157456 0)
(-0.0138719 0.00161452 0)
(-0.0151961 0.00164759 0)
(-0.0165399 0.00167288 0)
(-0.0178961 0.00168936 0)
(-0.0192569 0.00169591 0)
(-0.0206135 0.00169133 0)
(-0.0219564 0.00167444 0)
(-0.0232751 0.00164409 0)
(-0.0245585 0.0015992 0)
(-0.0257947 0.00153883 0)
(-0.0269714 0.00146219 0)
(-0.0280756 0.00136868 0)
(-0.0290944 0.00125796 0)
(-0.0300147 0.00112993 0)
(-0.0308236 0.000984802 0)
(-0.0315085 0.000823106 0)
(-0.0320576 0.000645709 0)
(-0.03246 0.000453834 0)
(-0.0327059 0.000249067 0)
(-0.032787 3.33516e-05 0)
(-0.0326965 -0.000191028 0)
(-0.0324297 -0.000421441 0)
(-0.0319837 -0.000654972 0)
(-0.0313583 -0.000888449 0)
(-0.0305554 -0.0011185 0)
(-0.0295795 -0.0013416 0)
(-0.0284377 -0.00155417 0)
(-0.0271398 -0.00175263 0)
(-0.0256979 -0.00193349 0)
(-0.0241267 -0.00209346 0)
(-0.0224431 -0.00222949 0)
(-0.0206661 -0.0023389 0)
(-0.0188163 -0.00241946 0)
(-0.0169159 -0.00246942 0)
(-0.014988 -0.00248763 0)
(-0.0130564 -0.00247351 0)
(-0.0111451 -0.00242717 0)
(-0.00927773 -0.00234935 0)
(-0.00747735 -0.00224142 0)
(-0.00576573 -0.00210539 0)
(-0.00416308 -0.00194383 0)
(-0.0026876 -0.00175982 0)
(-0.00135513 -0.00155687 0)
(-0.000178828 -0.00133886 0)
(0.000831059 -0.00110993 0)
(0.00166745 -0.00087446 0)
(0.00232656 -0.000636955 0)
(0.00280809 -0.000402062 0)
(0.00311529 -0.000174554 0)
(0.00325513 4.0626e-05 0)
(0.00323842 0.000238259 0)
(0.00308001 0.000412712 0)
(0.00279905 0.000557722 0)
(0.00241931 0.000666159 0)
(0.00196949 0.000729825 0)
(0.00148356 0.000739475 0)
(0.00100007 0.000685465 0)
(0.000560769 0.0005595 0)
(0.000217322 0.000359845 0)
(3.85484e-05 0.000109959 0)
(1.91362e-05 -0.000147252 0)
(4.50699e-05 -0.000203383 0)
(1.89325e-05 -0.000104296 0)
(-0.00010424 9.0863e-05 0)
(-0.000351249 0.000340561 0)
(-0.000735562 0.000615133 0)
(-0.00126208 0.000894419 0)
(-0.00192959 0.00116566 0)
(-0.00273272 0.00142141 0)
(-0.00366363 0.00165804 0)
(-0.00471323 0.00187442 0)
(-0.00587206 0.00207102 0)
(-0.00713084 0.00224923 0)
(-0.00848075 0.00241079 0)
(-0.00991359 0.00255746 0)
(-0.0114217 0.00269074 0)
(-0.0129979 0.00281174 0)
(-0.0146351 0.00292105 0)
(-0.0163264 0.00301876 0)
(-0.0180646 0.00310442 0)
(-0.019842 0.00317711 0)
(-0.0216503 0.00323551 0)
(-0.0234805 0.00327797 0)
(-0.0253224 0.00330257 0)
(-0.0271651 0.00330724 0)
(-0.0289965 0.00328983 0)
(-0.0308035 0.00324822 0)
(-0.032572 0.00318035 0)
(-0.034287 0.00308436 0)
(-0.0359328 0.00295864 0)
(-0.0374931 0.00280189 0)
(-0.0389511 0.0026132 0)
(-0.04029 0.00239212 0)
(-0.0414931 0.0021387 0)
(-0.0425439 0.00185354 0)
(-0.0434267 0.00153785 0)
(-0.0441269 0.00119344 0)
(-0.0446309 0.000822795 0)
(-0.0449269 0.000429026 0)
(-0.0450048 1.58878e-05 0)
(-0.044857 -0.000412228 0)
(-0.044478 -0.000850406 0)
(-0.0438652 -0.0012932 0)
(-0.0430188 -0.00173472 0)
(-0.041942 -0.00216877 0)
(-0.0406412 -0.00258891 0)
(-0.039126 -0.0029886 0)
(-0.0374091 -0.00336137 0)
(-0.0355063 -0.00370091 0)
(-0.0334365 -0.00400127 0)
(-0.0312211 -0.00425697 0)
(-0.0288843 -0.00446321 0)
(-0.0264521 -0.00461594 0)
(-0.0239525 -0.00471203 0)
(-0.0214147 -0.00474935 0)
(-0.0188687 -0.00472689 0)
(-0.0163447 -0.00464474 0)
(-0.0138728 -0.00450421 0)
(-0.0114822 -0.00430773 0)
(-0.00920062 -0.00405886 0)
(-0.00705403 -0.0037622 0)
(-0.00506589 -0.0034233 0)
(-0.00325682 -0.00304852 0)
(-0.00164417 -0.00264494 0)
(-0.000241631 -0.0022202 0)
(0.00094104 -0.00178236 0)
(0.00189827 -0.00133986 0)
(0.00262889 -0.000901419 0)
(0.0031363 -0.000476021 0)
(0.00342862 -7.29827e-05 0)
(0.0035189 0.000297929 0)
(0.00342523 0.000626317 0)
(0.00317098 0.000900908 0)
(0.00278496 0.00110931 0)
(0.00230167 0.00123787 0)
(0.00176135 0.00127193 0)
(0.00120908 0.0011968 0)
(0.000693526 0.00100006 0)
(0.000277685 0.000676755 0)
(5.20775e-05 0.000243334 0)
(9.02376e-06 -0.000163141 0)
(-1.31835e-05 -0.00017338 0)
(-0.000135948 2.15295e-05 0)
(-0.000392983 0.000343983 0)
(-0.000805927 0.000739569 0)
(-0.00138602 0.00116873 0)
(-0.00213632 0.00160394 0)
(-0.00305409 0.00202728 0)
(-0.00413263 0.00242799 0)
(-0.00536287 0.00280048 0)
(-0.00673444 0.00314278 0)
(-0.00823655 0.0034552 0)
(-0.00985855 0.0037394 0)
(-0.0115902 0.00399763 0)
(-0.0134216 0.00423219 0)
(-0.0153437 0.00444502 0)
(-0.0173473 0.00463753 0)
(-0.0194236 0.00481036 0)
(-0.0215637 0.00496343 0)
(-0.0237581 0.00509588 0)
(-0.0259969 0.00520616 0)
(-0.0282692 0.00529214 0)
(-0.0305633 0.00535119 0)
(-0.0328661 0.00538035 0)
(-0.0351638 0.00537643 0)
(-0.037441 0.00533616 0)
(-0.0396812 0.00525634 0)
(-0.0418671 0.00513395 0)
(-0.0439802 0.00496627 0)
(-0.0460013 0.00475099 0)
(-0.0479108 0.00448636 0)
(-0.0496885 0.00417124 0)
(-0.0513145 0.00380521 0)
(-0.052769 0.00338866 0)
(-0.0540328 0.00292284 0)
(-0.0550877 0.00240992 0)
(-0.0559169 0.00185303 0)
(-0.056505 0.00125627 0)
(-0.0568387 0.00062471 0)
(-0.056907 -3.56209e-05 0)
(-0.0567016 -0.00071778 0)
(-0.0562169 -0.00141404 0)
(-0.0554506 -0.00211591 0)
(-0.0544035 -0.00281429 0)
(-0.0530803 -0.00349963 0)
(-0.0514888 -0.00416208 0)
(-0.0496407 -0.00479166 0)
(-0.0475514 -0.00537851 0)
(-0.0452395 -0.00591306 0)
(-0.0427272 -0.00638629 0)
(-0.0400397 -0.00678992 0)
(-0.0372052 -0.00711663 0)
(-0.034254 -0.0073603 0)
(-0.0312187 -0.00751613 0)
(-0.0281333 -0.00758086 0)
(-0.0250328 -0.00755286 0)
(-0.0219526 -0.0074322 0)
(-0.0189279 -0.00722073 0)
(-0.0159931 -0.00692204 0)
(-0.0131809 -0.00654143 0)
(-0.0105223 -0.00608579 0)
(-0.00804535 -0.0055635 0)
(-0.00577494 -0.00498423 0)
(-0.00373229 -0.00435881 0)
(-0.00193444 -0.00369898 0)
(-0.000393869 -0.00301725 0)
(0.000881802 -0.00232674 0)
(0.0018901 -0.00164107 0)
(0.00263392 -0.000974366 0)
(0.00312173 -0.000341197 0)
(0.00336771 0.000243236 0)
(0.0033919 0.000762937 0)
(0.00322032 0.00120088 0)
(0.00288508 0.00153882 0)
(0.0024245 0.0017572 0)
(0.00188313 0.00183551 0)
(0.00131083 0.00175331 0)
(0.00076201 0.00149239 0)
(0.000309076 0.00104081 0)
(5.87997e-05 0.000401088 0)
(-3.08347e-06 -0.000144726 0)
(-8.35131e-05 -5.74881e-05 0)
(-0.000322431 0.000275313 0)
(-0.000737566 0.000760945 0)
(-0.00134237 0.00133385 0)
(-0.00214402 0.00194579 0)
(-0.00314235 0.00256277 0)
(-0.00433206 0.00316225 0)
(-0.00570453 0.00373047 0)
(-0.00724913 0.0042601 0)
(-0.00895416 0.00474834 0)
(-0.0108076 0.00519535 0)
(-0.0127976 0.00560302 0)
(-0.0149125 0.00597402 0)
(-0.0171414 0.00631109 0)
(-0.0194734 0.00661652 0)
(-0.021898 0.00689182 0)
(-0.0244046 0.0071376 0)
(-0.0269823 0.00735339 0)
(-0.0296197 0.00753776 0)
(-0.0323044 0.00768836 0)
(-0.0350232 0.00780206 0)
(-0.0377617 0.00787512 0)
(-0.0405043 0.00790334 0)
(-0.043234 0.00788231 0)
(-0.0459325 0.00780754 0)
(-0.0485805 0.00767467 0)
(-0.0511573 0.00747966 0)
(-0.0536414 0.00721896 0)
(-0.0560108 0.00688962 0)
(-0.0582427 0.00648952 0)
(-0.0603143 0.00601741 0)
(-0.062203 0.0054731 0)
(-0.0638866 0.00485754 0)
(-0.0653437 0.00417288 0)
(-0.0665543 0.00342256 0)
(-0.0674998 0.00261132 0)
(-0.0681636 0.00174525 0)
(-0.0685314 0.00083175 0)
(-0.0685916 -0.000120522 0)
(-0.0683354 -0.00110171 0)
(-0.0677574 -0.00210084 0)
(-0.0668555 -0.003106 0)
(-0.0656315 -0.00410451 0)
(-0.0640908 -0.00508307 0)
(-0.0622426 -0.00602804 0)
(-0.0601005 -0.00692566 0)
(-0.0576815 -0.00776232 0)
(-0.0550067 -0.00852487 0)
(-0.0521008 -0.00920088 0)
(-0.0489919 -0.00977894 0)
(-0.0457112 -0.010249 0)
(-0.0422925 -0.0106025 0)
(-0.038772 -0.0108328 0)
(-0.0351877 -0.0109354 0)
(-0.0315786 -0.0109077 0)
(-0.0279842 -0.0107498 0)
(-0.0244443 -0.0104639 0)
(-0.0209976 -0.0100549 0)
(-0.0176813 -0.00952978 0)
(-0.0145307 -0.00889792 0)
(-0.0115781 -0.00817077 0)
(-0.0088525 -0.00736163 0)
(-0.00637882 -0.00648545 0)
(-0.00417743 -0.00555858 0)
(-0.00226371 -0.00459852 0)
(-0.000647588 -0.00362372 0)
(0.000666692 -0.0026534 0)
(0.00168093 -0.00170749 0)
(0.00240318 -0.000806575 0)
(0.00284783 2.79929e-05 0)
(0.00303581 0.00077396 0)
(0.00299462 0.00140796 0)
(0.00275836 0.00190537 0)
(0.00236785 0.00224025 0)
(0.00187066 0.00238565 0)
(0.00132037 0.00231448 0)
(0.000776116 0.00200111 0)
(0.000317321 0.00142396 0)
(6.06903e-05 0.000568896 0)
(-1.62118e-05 -8.74638e-05 0)
(-0.000161464 0.000157064 0)
(-0.000530444 0.000675423 0)
(-0.00112176 0.00136333 0)
(-0.00193853 0.00214627 0)
(-0.00298236 0.00296898 0)
(-0.00424863 0.00379216 0)
(-0.00572856 0.00458961 0)
(-0.00741095 0.00534517 0)
(-0.00928322 0.00605017 0)
(-0.0113321 0.00670126 0)
(-0.0135444 0.00729856 0)
(-0.0159069 0.00784422 0)
(-0.0184071 0.00834131 0)
(-0.0210326 0.0087929 0)
(-0.0237714 0.00920148 0)
(-0.0266115 0.00956857 0)
(-0.0295406 0.00989449 0)
(-0.0325462 0.0101783 0)
(-0.0356148 0.0104177 0)
(-0.038732 0.0106095 0)
(-0.0418821 0.0107493 0)
(-0.0450484 0.0108321 0)
(-0.0482125 0.0108524 0)
(-0.0513549 0.0108045 0)
(-0.0544547 0.0106825 0)
(-0.0574895 0.010481 0)
(-0.0604361 0.0101948 0)
(-0.0632703 0.00981977 0)
(-0.0659674 0.00935228 0)
(-0.0685021 0.00878997 0)
(-0.0708495 0.00813169 0)
(-0.0729846 0.00737766 0)
(-0.0748833 0.00652961 0)
(-0.0765227 0.00559085 0)
(-0.0778812 0.00456633 0)
(-0.0789389 0.00346272 0)
(-0.0796784 0.00228836 0)
(-0.0800847 0.00105325 0)
(-0.0801455 -0.000230989 0)
(-0.0798521 -0.00155128 0)
(-0.0791989 -0.00289318 0)
(-0.0781843 -0.00424106 0)
(-0.0768102 -0.00557835 0)
(-0.0750829 -0.00688777 0)
(-0.0730126 -0.00815163 0)
(-0.0706139 -0.00935209 0)
(-0.0679053 -0.0104716 0)
(-0.0649094 -0.011493 0)
(-0.0616528 -0.0124004 0)
(-0.0581658 -0.0131789 0)
(-0.0544817 -0.0138155 0)
(-0.0506373 -0.0142989 0)
(-0.0466714 -0.0146204 0)
(-0.0426252 -0.0147739 0)
(-0.0385412 -0.0147559 0)
(-0.0344626 -0.014566 0)
(-0.0304328 -0.014207 0)
(-0.0264945 -0.0136847 0)
(-0.0226892 -0.013008 0)
(-0.0190561 -0.0121886 0)
(-0.0156316 -0.0112413 0)
(-0.0124487 -0.0101832 0)
(-0.00953607 -0.00903356 0)
(-0.00691751 -0.00781379 0)
(-0.00461153 -0.0065468 0)
(-0.00263077 -0.00525687 0)
(-0.00098164 -0.00396939 0)
(0.000335986 -0.00271068 0)
(0.00132905 -0.00150795 0)
(0.00201143 -0.000389298 0)
(0.00240407 0.000616201 0)
(0.00253504 0.00147831 0)
(0.00243952 0.00216552 0)
(0.00215988 0.00264497 0)
(0.0017458 0.00288268 0)
(0.00125369 0.00284401 0)
(0.000746402 0.00249473 0)
(0.000307891 0.0018023 0)
(5.92624e-05 0.000735872 0)
(-2.9913e-05 1.16313e-05 0)
(-0.0002444 0.000479171 0)
(-0.000753303 0.00123536 0)
(-0.00153414 0.00216757 0)
(-0.00257817 0.00319467 0)
(-0.00388026 0.00425624 0)
(-0.00543031 0.00530921 0)
(-0.00721523 0.00632481 0)
(-0.00922065 0.00728538 0)
(-0.0114316 0.00818152 0)
(-0.0138332 0.00900973 0)
(-0.0164105 0.00977034 0)
(-0.0191495 0.0104659 0)
(-0.0220363 0.0110998 0)
(-0.0250575 0.0116755 0)
(-0.0282 0.0121955 0)
(-0.0314505 0.0126613 0)
(-0.0347952 0.0130725 0)
(-0.0382199 0.0134277 0)
(-0.0417092 0.0137236 0)
(-0.0452469 0.0139558 0)
(-0.0488151 0.0141187 0)
(-0.0523947 0.0142057 0)
(-0.0559651 0.0142102 0)
(-0.0595043 0.0141247 0)
(-0.0629888 0.0139423 0)
(-0.066394 0.0136564 0)
(-0.0696942 0.0132608 0)
(-0.0728629 0.0127506 0)
(-0.075873 0.0121218 0)
(-0.0786975 0.011372 0)
(-0.0813093 0.0105003 0)
(-0.0836819 0.00950747 0)
(-0.0857896 0.00839624 0)
(-0.087608 0.00717129 0)
(-0.0891145 0.00583934 0)
(-0.0902883 0.00440918 0)
(-0.0911112 0.00289162 0)
(-0.0915675 0.00129951 0)
(-0.0916447 -0.000352424 0)
(-0.0913337 -0.00204766 0)
(-0.0906287 -0.00376809 0)
(-0.0895281 -0.0054942 0)
(-0.0880341 -0.00720537 0)
(-0.0861531 -0.00888015 0)
(-0.083896 -0.0104966 0)
(-0.0812776 -0.0120327 0)
(-0.0783174 -0.0134665 0)
(-0.075039 -0.0147771 0)
(-0.0714701 -0.0159444 0)
(-0.0676423 -0.01695 0)
(-0.0635909 -0.0177775 0)
(-0.0593544 -0.0184129 0)
(-0.0549741 -0.018845 0)
(-0.0504937 -0.0190658 0)
(-0.0459587 -0.0190705 0)
(-0.0414154 -0.0188584 0)
(-0.0369109 -0.0184322 0)
(-0.0324914 -0.0177987 0)
(-0.0282025 -0.0169684 0)
(-0.0240872 -0.0159556 0)
(-0.0201863 -0.0147782 0)
(-0.0165365 -0.0134572 0)
(-0.0131706 -0.0120167 0)
(-0.010116 -0.0104831 0)
(-0.00739477 -0.00888516 0)
(-0.00502259 -0.00725346 0)
(-0.00300853 -0.00561999 0)
(-0.00135467 -0.004018 0)
(-5.57476e-05 -0.00248183 0)
(0.000900935 -0.00104685 0)
(0.00153568 0.000250512 0)
(0.00187639 0.00137263 0)
(0.00195863 0.00228062 0)
(0.00182562 0.00293419 0)
(0.00152845 0.0032917 0)
(0.00112552 0.00331033 0)
(0.000682385 0.00294655 0)
(0.000285338 0.00215656 0)
(5.56181e-05 0.000894042 0)
(-4.39816e-05 0.000154494 0)
(-0.000330703 0.000915022 0)
(-0.000986451 0.00196485 0)
(-0.00196645 0.00318585 0)
(-0.00324905 0.0044926 0)
(-0.00482148 0.0058215 0)
(-0.00666735 0.00712735 0)
(-0.0087686 0.00838016 0)
(-0.0111071 0.00956178 0)
(-0.0136653 0.0106629 0)
(-0.016426 0.0116803 0)
(-0.0193731 0.0126151 0)
(-0.022491 0.0134701 0)
(-0.025765 0.0142495 0)
(-0.0291805 0.0149568 0)
(-0.0327234 0.0155946 0)
(-0.0363791 0.0161639 0)
(-0.0401327 0.016664 0)
(-0.0439682 0.0170925 0)
(-0.0478688 0.0174449 0)
(-0.0518162 0.0177155 0)
(-0.0557908 0.0178973 0)
(-0.0597714 0.0179824 0)
(-0.0637353 0.0179623 0)
(-0.0676581 0.0178284 0)
(-0.0715145 0.0175725 0)
(-0.0752774 0.0171866 0)
(-0.0789194 0.016664 0)
(-0.0824118 0.015999 0)
(-0.0857259 0.0151874 0)
(-0.0888329 0.0142267 0)
(-0.0917041 0.0131165 0)
(-0.0943117 0.0118584 0)
(-0.0966288 0.0104563 0)
(-0.0986301 0.00891636 0)
(-0.100292 0.00724727 0)
(-0.101592 0.00546007 0)
(-0.102513 0.0035682 0)
(-0.103038 0.00158746 0)
(-0.103153 -0.000464182 0)
(-0.102849 -0.00256667 0)
(-0.10212 -0.00469813 0)
(-0.100964 -0.00683507 0)
(-0.0993835 -0.00895274 0)
(-0.0973837 -0.0110254 0)
(-0.0949758 -0.0130267 0)
(-0.0921745 -0.0149302 0)
(-0.0889996 -0.0167098 0)
(-0.0854748 -0.0183401 0)
(-0.0816285 -0.019797 0)
(-0.0774931 -0.021058 0)
(-0.0731049 -0.0221034 0)
(-0.0685039 -0.0229157 0)
(-0.0637334 -0.0234812 0)
(-0.0588391 -0.0237894 0)
(-0.053869 -0.0238343 0)
(-0.0488727 -0.023614 0)
(-0.0439002 -0.0231312 0)
(-0.0390017 -0.0223933 0)
(-0.0342264 -0.0214123 0)
(-0.0296217 -0.0202049 0)
(-0.0252324 -0.0187921 0)
(-0.0210997 -0.0171989 0)
(-0.0172604 -0.015454 0)
(-0.0137462 -0.0135895 0)
(-0.0105829 -0.0116401 0)
(-0.00778973 -0.00964295 0)
(-0.00537897 -0.00763712 0)
(-0.00335538 -0.00566326 0)
(-0.00171598 -0.00376334 0)
(-0.000449787 -0.00198052 0)
(0.000462261 -0.000359083 0)
(0.00104737 0.00105548 0)
(0.00134089 0.00221637 0)
(0.00138635 0.00307537 0)
(0.00123561 0.00358268 0)
(0.000948358 0.00368683 0)
(0.000591919 0.00333476 0)
(0.000253181 0.00247172 0)
(5.0522e-05 0.00103769 0)
(-5.82984e-05 0.000342428 0)
(-0.000419285 0.00146889 0)
(-0.00122662 0.00287077 0)
(-0.00241248 0.00442691 0)
(-0.0039416 0.00604989 0)
(-0.00579292 0.00767496 0)
(-0.00794315 0.0092565 0)
(-0.0103687 0.0107648 0)
(-0.0130474 0.0121822 0)
(-0.0159585 0.0135006 0)
(-0.0190828 0.0147177 0)
(-0.0224022 0.0158355 0)
(-0.0259 0.0168579 0)
(-0.0295603 0.0177895 0)
(-0.0333678 0.0186341 0)
(-0.0373071 0.0193942 0)
(-0.0413626 0.0200706 0)
(-0.0455182 0.0206617 0)
(-0.0497566 0.0211639 0)
(-0.0540595 0.0215718 0)
(-0.0584069 0.021878 0)
(-0.0627776 0.022074 0)
(-0.0671485 0.0221504 0)
(-0.071495 0.022097 0)
(-0.0757909 0.0219041 0)
(-0.080009 0.0215619 0)
(-0.0841206 0.0210615 0)
(-0.0880963 0.0203954 0)
(-0.0919061 0.0195575 0)
(-0.0955197 0.0185433 0)
(-0.0989069 0.0173506 0)
(-0.102038 0.0159796 0)
(-0.104884 0.0144327 0)
(-0.107417 0.0127151 0)
(-0.109611 0.0108348 0)
(-0.111441 0.00880234 0)
(-0.112885 0.00663115 0)
(-0.113924 0.00433737 0)
(-0.11454 0.00193976 0)
(-0.114719 -0.000540391 0)
(-0.114452 -0.00307952 0)
(-0.113732 -0.00565195 0)
(-0.112555 -0.00823021 0)
(-0.110923 -0.0107853 0)
(-0.108841 -0.0132873 0)
(-0.106319 -0.0157053 0)
(-0.103372 -0.0180083 0)
(-0.100018 -0.0201658 0)
(-0.0962819 -0.0221478 0)
(-0.0921908 -0.0239258 0)
(-0.0877778 -0.0254734 0)
(-0.0830798 -0.0267665 0)
(-0.0781377 -0.0277843 0)
(-0.0729961 -0.0285098 0)
(-0.0677026 -0.0289301 0)
(-0.0623077 -0.029037 0)
(-0.0568636 -0.0288273 0)
(-0.0514237 -0.0283032 0)
(-0.0460417 -0.0274725 0)
(-0.0407711 -0.0263484 0)
(-0.0356634 -0.0249496 0)
(-0.030768 -0.0233002 0)
(-0.0261307 -0.0214291 0)
(-0.021793 -0.01937 0)
(-0.0177912 -0.0171604 0)
(-0.0141553 -0.0148415 0)
(-0.0109088 -0.0124572 0)
(-0.00806759 -0.0100541 0)
(-0.00563968 -0.00768075 0)
(-0.0036249 -0.00538718 0)
(-0.00201453 -0.00322487 0)
(-0.000791256 -0.00124648 0)
(7.09354e-05 0.000494115 0)
(0.000606707 0.00194172 0)
(0.000859403 0.00303968 0)
(0.00088114 0.00372962 0)
(0.000732281 0.00395116 0)
(0.000481162 0.00364174 0)
(0.000214039 0.00273623 0)
(4.44934e-05 0.00116276 0)
(-7.27809e-05 0.000576318 0)
(-0.00050933 0.00214363 0)
(-0.00147126 0.00395769 0)
(-0.00286725 0.00589664 0)
(-0.00464794 0.00787321 0)
(-0.00678356 0.0098235 0)
(-0.00924347 0.0117033 0)
(-0.0119982 0.0134846 0)
(-0.0150211 0.0151517 0)
(-0.0182882 0.0166983 0)
(-0.0217777 0.0181241 0)
(-0.0254699 0.0194324 0)
(-0.0293467 0.0206284 0)
(-0.0333911 0.0217174 0)
(-0.0375869 0.0227036 0)
(-0.0419176 0.0235895 0)
(-0.0463669 0.0243751 0)
(-0.0509174 0.0250581 0)
(-0.0555508 0.0256339 0)
(-0.0602473 0.0260953 0)
(-0.0649857 0.0264338 0)
(-0.069743 0.026639 0)
(-0.0744948 0.0266998 0)
(-0.0792148 0.0266049 0)
(-0.0838753 0.0263426 0)
(-0.0884476 0.0259023 0)
(-0.0929015 0.0252742 0)
(-0.0972063 0.0244498 0)
(-0.101331 0.0234227 0)
(-0.105243 0.0221885 0)
(-0.108913 0.0207454 0)
(-0.112309 0.019094 0)
(-0.115401 0.0172379 0)
(-0.118161 0.0151836 0)
(-0.120562 0.0129408 0)
(-0.122579 0.0105222 0)
(-0.124188 0.00794343 0)
(-0.125369 0.0052234 0)
(-0.126104 0.00238379 0)
(-0.126379 -0.000550897 0)
(-0.126182 -0.00355361 0)
(-0.125504 -0.00659494 0)
(-0.124343 -0.00964345 0)
(-0.122697 -0.012666 0)
(-0.120572 -0.0156283 0)
(-0.117974 -0.0184949 0)
(-0.114919 -0.0212304 0)
(-0.111422 -0.0237993 0)
(-0.107509 -0.0261671 0)
(-0.103204 -0.0283006 0)
(-0.0985423 -0.0301687 0)
(-0.0935592 -0.0317433 0)
(-0.0882965 -0.0329993 0)
(-0.0828 -0.0339161 0)
(-0.0771187 -0.0344777 0)
(-0.0713053 -0.0346733 0)
(-0.0654146 -0.034498 0)
(-0.0595033 -0.033953 0)
(-0.053629 -0.0330458 0)
(-0.0478492 -0.0317906 0)
(-0.0422203 -0.0302079 0)
(-0.0367964 -0.0283247 0)
(-0.0316285 -0.0261737 0)
(-0.0267633 -0.0237934 0)
(-0.0222421 -0.021227 0)
(-0.0181 -0.0185222 0)
(-0.014365 -0.0157304 0)
(-0.0110574 -0.012906 0)
(-0.00818908 -0.0101057 0)
(-0.00576324 -0.00738823 0)
(-0.00377394 -0.00481392 0)
(-0.00220608 -0.00244436 0)
(-0.00103533 -0.000342351 0)
(-0.000228111 0.001428 0)
(0.000258306 0.00280114 0)
(0.000475842 0.00370976 0)
(0.000485057 0.00408441 0)
(0.000354767 0.00385315 0)
(0.000169817 0.00294119 0)
(3.78835e-05 0.00126633 0)
(-8.73569e-05 0.000856701 0)
(-0.000600152 0.00294092 0)
(-0.00171823 0.00522831 0)
(-0.0033265 0.00759845 0)
(-0.00536125 0.00996636 0)
(-0.00778371 0.012271 0)
(-0.0105556 0.0144713 0)
(-0.0136414 0.0165425 0)
(-0.0170097 0.0184723 0)
(-0.020633 0.0202572 0)
(-0.024487 0.0218995 0)
(-0.0285502 0.0234046 0)
(-0.0328031 0.0247792 0)
(-0.0372276 0.0260297 0)
(-0.0418065 0.0271606 0)
(-0.0465227 0.0281744 0)
(-0.0513588 0.0290705 0)
(-0.0562966 0.0298456 0)
(-0.0613167 0.0304939 0)
(-0.0663981 0.0310067 0)
(-0.0715186 0.0313738 0)
(-0.0766538 0.0315832 0)
(-0.081778 0.0316222 0)
(-0.0868637 0.0314777 0)
(-0.091882 0.0311371 0)
(-0.0968028 0.0305882 0)
(-0.101595 0.0298204 0)
(-0.106227 0.0288249 0)
(-0.110666 0.0275948 0)
(-0.11488 0.0261258 0)
(-0.118838 0.0244164 0)
(-0.122507 0.0224682 0)
(-0.125857 0.0202857 0)
(-0.128859 0.0178768 0)
(-0.131486 0.0152529 0)
(-0.13371 0.0124286 0)
(-0.135509 0.00942197 0)
(-0.136861 0.0062544 0)
(-0.137746 0.00295044 0)
(-0.138149 -0.000462316 0)
(-0.138057 -0.00395347 0)
(-0.137461 -0.00748998 0)
(-0.136353 -0.0110366 0)
(-0.134733 -0.014556 0)
(-0.132603 -0.0180096 0)
(-0.12997 -0.0213575 0)
(-0.126844 -0.0245595 0)
(-0.123242 -0.0275753 0)
(-0.119184 -0.0303654 0)
(-0.114699 -0.0328917 0)
(-0.109815 -0.0351182 0)
(-0.104571 -0.0370119 0)
(-0.099008 -0.0385432 0)
(-0.0931714 -0.0396874 0)
(-0.0871123 -0.0404246 0)
(-0.0808848 -0.040741 0)
(-0.0745466 -0.0406292 0)
(-0.0681577 -0.0400887 0)
(-0.0617795 -0.0391264 0)
(-0.055474 -0.037757 0)
(-0.0493025 -0.0360023 0)
(-0.0433246 -0.0338918 0)
(-0.0375968 -0.0314621 0)
(-0.0321717 -0.0287562 0)
(-0.0270963 -0.0258235 0)
(-0.0224114 -0.0227183 0)
(-0.0181503 -0.0194995 0)
(-0.0143384 -0.0162297 0)
(-0.010992 -0.0129746 0)
(-0.00811836 -0.00980204 0)
(-0.0057148 -0.00678176 0)
(-0.00376902 -0.00398487 0)
(-0.00225877 -0.00148369 0)
(-0.00115201 0.000648205 0)
(-0.000406973 0.00233592 0)
(2.76918e-05 0.00350287 0)
(0.000212394 0.00407034 0)
(0.000216102 0.00395725 0)
(0.000121855 0.00307965 0)
(3.09266e-05 0.00134635 0)
(-0.00010195 0.0011838 0)
(-0.000691102 0.00386141 0)
(-0.00196555 0.00668364 0)
(-0.00378635 0.00953356 0)
(-0.00607532 0.0123306 0)
(-0.00878452 0.0150184 0)
(-0.0118679 0.017561 0)
(-0.0152837 0.0199386 0)
(-0.0189957 0.0221433 0)
(-0.0229728 0.0241757 0)
(-0.0271881 0.0260413 0)
(-0.0316182 0.0277485 0)
(-0.0362422 0.0293059 0)
(-0.041041 0.0307209 0)
(-0.0459964 0.0319988 0)
(-0.0510907 0.0331418 0)
(-0.0563056 0.034149 0)
(-0.0616221 0.035016 0)
(-0.06702 0.0357354 0)
(-0.0724775 0.0362973 0)
(-0.0779711 0.0366895 0)
(-0.0834757 0.0368984 0)
(-0.0889644 0.0369098 0)
(-0.0944088 0.0367089 0)
(-0.099779 0.0362818 0)
(-0.105044 0.0356154 0)
(-0.110172 0.0346983 0)
(-0.115131 0.0335209 0)
(-0.119887 0.0320763 0)
(-0.124407 0.0303605 0)
(-0.12866 0.0283722 0)
(-0.132614 0.0261138 0)
(-0.136236 0.0235909 0)
(-0.139498 0.0208128 0)
(-0.14237 0.0177924 0)
(-0.144827 0.0145462 0)
(-0.146842 0.0110945 0)
(-0.148394 0.007461 0)
(-0.149462 0.00367294 0)
(-0.150029 -0.000239196 0)
(-0.150079 -0.00424174 0)
(-0.149601 -0.0082983 0)
(-0.148588 -0.0123698 0)
(-0.147034 -0.0164152 0)
(-0.144941 -0.0203913 0)
(-0.142311 -0.0242538 0)
(-0.139153 -0.0279578 0)
(-0.135483 -0.0314579 0)
(-0.131318 -0.0347095 0)
(-0.126683 -0.0376691 0)
(-0.121608 -0.0402955 0)
(-0.116128 -0.0425503 0)
(-0.110284 -0.0443989 0)
(-0.104123 -0.0458115 0)
(-0.0976965 -0.046764 0)
(-0.0910599 -0.0472387 0)
(-0.0842734 -0.0472249 0)
(-0.0774003 -0.0467199 0)
(-0.0705059 -0.0457294 0)
(-0.0636571 -0.0442675 0)
(-0.0569204 -0.0423572 0)
(-0.0503612 -0.0400301 0)
(-0.0440425 -0.0373263 0)
(-0.038023 -0.0342936 0)
(-0.0323564 -0.030987 0)
(-0.0270899 -0.0274679 0)
(-0.0222631 -0.0238031 0)
(-0.0179069 -0.0200639 0)
(-0.0140431 -0.0163254 0)
(-0.0106835 -0.0126652 0)
(-0.00782944 -0.00916298 0)
(-0.0054719 -0.00590015 0)
(-0.00359124 -0.00295917 0)
(-0.00215731 -0.000423651 0)
(-0.00112969 0.00162163 0)
(-0.000457861 0.00309044 0)
(-8.18038e-05 0.00389466 0)
(6.74531e-05 0.00394406 0)
(7.10446e-05 0.00314607 0)
(2.37719e-05 0.0014013 0)
(-0.000116475 0.00155752 0)
(-0.000781528 0.00490481 0)
(-0.00221131 0.00832315 0)
(-0.00424309 0.0117012 0)
(-0.00678421 0.0149646 0)
(-0.00977757 0.0180641 0)
(-0.0131694 0.0209705 0)
(-0.0169114 0.0236702 0)
(-0.0209627 0.0261614 0)
(-0.0252886 0.0284496 0)
(-0.0298595 0.0305449 0)
(-0.03465 0.0324586 0)
(-0.039638 0.034202 0)
(-0.0448033 0.0357839 0)
(-0.0501269 0.0372103 0)
(-0.0555903 0.0384835 0)
(-0.0611747 0.0396019 0)
(-0.0668605 0.04056 0)
(-0.0726265 0.0413492 0)
(-0.0784504 0.0419578 0)
(-0.084308 0.042372 0)
(-0.0901732 0.0425765 0)
(-0.0960186 0.0425553 0)
(-0.101815 0.0422924 0)
(-0.107532 0.0417724 0)
(-0.113138 0.0409814 0)
(-0.1186 0.039907 0)
(-0.123886 0.0385395 0)
(-0.128962 0.0368717 0)
(-0.133795 0.0348997 0)
(-0.138352 0.0326229 0)
(-0.142601 0.0300441 0)
(-0.146511 0.0271701 0)
(-0.15005 0.0240114 0)
(-0.15319 0.0205823 0)
(-0.155903 0.0169011 0)
(-0.158163 0.0129901 0)
(-0.159946 0.008875 0)
(-0.16123 0.00458558 0)
(-0.161995 0.000154982 0)
(-0.162225 -0.00438019 0)
(-0.161905 -0.00898029 0)
(-0.161026 -0.0136028 0)
(-0.159579 -0.0182026 0)
(-0.157563 -0.0227325 0)
(-0.154978 -0.0271438 0)
(-0.15183 -0.0313865 0)
(-0.14813 -0.0354102 0)
(-0.143894 -0.0391649 0)
(-0.139144 -0.0426014 0)
(-0.133908 -0.0456728 0)
(-0.12822 -0.0483349 0)
(-0.122119 -0.0505473 0)
(-0.115652 -0.0522746 0)
(-0.108871 -0.0534876 0)
(-0.101832 -0.0541638 0)
(-0.0945986 -0.0542885 0)
(-0.0872365 -0.0538559 0)
(-0.0798153 -0.0528694 0)
(-0.0724065 -0.0513423 0)
(-0.0650824 -0.0492979 0)
(-0.0579149 -0.0467694 0)
(-0.0509736 -0.0438 0)
(-0.0443244 -0.040442 0)
(-0.0380285 -0.0367562 0)
(-0.0321403 -0.0328112 0)
(-0.0267063 -0.0286821 0)
(-0.0217644 -0.0244493 0)
(-0.0173422 -0.0201976 0)
(-0.0134571 -0.0160154 0)
(-0.0101151 -0.011993 0)
(-0.00731113 -0.0082228 0)
(-0.00502866 -0.00479806 0)
(-0.00323987 -0.00181317 0)