/*--------------------------------*- C++ -*----------------------------------*\
  =========                 |
  \\      /  F ield         | OpenFOAM: The Open Source CFD Toolbox
   \\    /   O peration     | Website:  https://openfoam.org
    \\  /    A nd           | Version:  7
     \\/     M anipulation  |
\*---------------------------------------------------------------------------*/
FoamFile
{
    version     2.0;
    format      ascii;
    class       volScalarField;
    location    "1.975";
    object      p;
}
// * * * * * * * * * * * * * * * * * * * * * * * * * * * * * * * * * * * * * //

dimensions      [0 2 -2 0 0 0 0];

internalField   nonuniform List<scalar> 
6400
(
2.28147e-06
5.64629e-07
-6.33626e-05
-0.000185796
-0.000351596
-0.000547388
-0.000761506
-0.000984069
-0.00120699
-0.00142382
-0.0016295
-0.0018201
-0.00199258
-0.00214469
-0.00227474
-0.00238149
-0.00246406
-0.00252185
-0.00255444
-0.00256152
-0.00254293
-0.00249855
-0.00242832
-0.00233222
-0.00221028
-0.00206257
-0.00188924
-0.00169049
-0.00146664
-0.00121813
-0.000945508
-0.000649515
-0.000331061
8.74125e-06
0.000368554
0.000746808
0.00114168
0.00155111
0.00197277
0.00240407
0.00284221
0.00328413
0.00372658
0.00416612
0.00459919
0.00502211
0.00543115
0.00582256
0.00619265
0.00653784
0.00685472
0.00714009
0.00739107
0.00760511
0.00778008
0.0079143
0.00800659
0.00805633
0.00806348
0.0080286
0.00795284
0.00783801
0.00768653
0.00750142
0.00728631
0.00704536
0.00678331
0.00650539
0.00621732
0.00592526
0.0056358
0.00535592
0.00509297
0.00485459
0.00464862
0.00448279
0.004364
0.0042974
0.00428493
0.0043138
6.83934e-06
3.89316e-06
-5.27096e-05
-0.000156502
-0.000295333
-0.000459731
-0.000640755
-0.000830502
-0.00102211
-0.00120988
-0.00138918
-0.00155627
-0.0017082
-0.00184267
-0.00195791
-0.00205256
-0.00212561
-0.00217632
-0.00220413
-0.00220864
-0.00218958
-0.00214675
-0.00208002
-0.00198933
-0.00187466
-0.00173609
-0.00157373
-0.00138778
-0.00117857
-0.000946513
-0.000692162
-0.000416227
-0.000119591
0.000196679
0.00053131
0.000882815
0.00124948
0.00162938
0.00202032
0.00241991
0.00282555
0.0032344
0.00364347
0.0040496
0.00444952
0.00483985
0.00521718
0.0055781
0.00591925
0.00623738
0.0065294
0.00679245
0.00702391
0.00722153
0.0073834
0.00750806
0.00759452
0.00764227
0.00765134
0.00762232
0.00755637
0.00745519
0.00732108
0.00715686
0.00696591
0.00675209
0.00651977
0.00627374
0.0060192
0.00576173
0.00550722
0.00526183
0.00503192
0.00482395
0.00464431
0.00449899
0.00439293
0.0043296
0.00431356
0.00434261
7.15443e-05
6.05016e-05
3.40843e-06
-9.25871e-05
-0.000217465
-0.000363719
-0.000524294
-0.000692636
-0.000862952
-0.0010303
-0.00119053
-0.00134025
-0.00147669
-0.00159765
-0.0017014
-0.00178656
-0.0018521
-0.00189722
-0.0019213
-0.0019239
-0.00190466
-0.00186335
-0.00179979
-0.00171387
-0.00160557
-0.0014749
-0.00132198
-0.00114698
-0.000950193
-0.000732019
-0.000492983
-0.000233758
4.48206e-05
0.000341741
0.000655802
0.000985597
0.00132952
0.00168573
0.0020522
0.00242668
0.00280671
0.00318966
0.00357272
0.00395293
0.00432725
0.00469252
0.00504557
0.00538322
0.00570236
0.00599996
0.00627316
0.00651932
0.00673603
0.00692121
0.00707314
0.00719048
0.00727235
0.00731833
0.00732851
0.00730348
0.00724435
0.0071528
0.00703099
0.00688161
0.00670782
0.00651327
0.006302
0.00607848
0.0058475
0.00561415
0.00538378
0.00516193
0.0049542
0.00476623
0.00460348
0.00447104
0.00437298
0.00431259
0.00429711
0.00433066
0.000195355
0.000164766
9.84011e-05
1.42158e-06
-0.000119061
-0.000256804
-0.000405962
-0.00056111
-0.000717389
-0.000870579
-0.00101709
-0.0011539
-0.00127855
-0.00138903
-0.00148372
-0.00156135
-0.00162089
-0.00166157
-0.00168278
-0.00168403
-0.00166497
-0.00162531
-0.00156486
-0.00148349
-0.00138111
-0.00125773
-0.00111342
-0.000948326
-0.000762704
-0.000556909
-0.000331423
-8.68676e-05
0.000175981
0.000456177
0.000752595
0.00106392
0.00138863
0.001725
0.00207112
0.00242486
0.00278391
0.00314577
0.00350779
0.00386719
0.00422106
0.00456644
0.00490031
0.00521968
0.00552159
0.00580318
0.00606176
0.00629482
0.00650009
0.00667561
0.00681977
0.00693133
0.00700946
0.00705379
0.00706444
0.007042
0.00698756
0.00690271
0.00678955
0.00665062
0.00648895
0.00630796
0.00611149
0.0059037
0.00568906
0.00547227
0.00525824
0.005052
0.00485861
0.00468311
0.00453036
0.00440495
0.00431063
0.00425079
0.00423378
0.00426583
0.000364706
0.000305341
0.000222839
0.000118978
-2.91763e-06
-0.000137738
-0.000280643
-0.000427256
-0.000573611
-0.000716202
-0.000852004
-0.000978456
-0.00109342
-0.00119514
-0.00128218
-0.0013534
-0.00140787
-0.00144486
-0.00146378
-0.00146417
-0.00144567
-0.00140797
-0.00135086
-0.00127418
-0.00117782
-0.00106175
-0.000925988
-0.000770653
-0.000595942
-0.000402162
-0.000189737
4.07769e-05
0.000288672
0.00055308
0.000832958
0.00112708
0.00143403
0.0017522
0.00207977
0.00241473
0.00275492
0.00309795
0.00344131
0.00378235
0.00411831
0.00444637
0.00476363
0.00506725
0.00535438
0.00562231
0.00586844
0.00609038
0.00628595
0.00645328
0.00659083
0.0066974
0.00677224
0.00681498
0.00682574
0.00680511
0.00675414
0.00667438
0.00656781
0.00643689
0.00628449
0.00611388
0.00592866
0.00573275
0.00553033
0.00532578
0.00512361
0.00492843
0.00474483
0.00457734
0.00443036
0.00430804
0.00421389
0.00415129
0.00412807
0.00415027
0.000567172
0.000473278
0.000369576
0.000254143
0.000126118
-1.03911e-05
-0.000151407
-0.000293515
-0.000433586
-0.000568807
-0.000696723
-0.000815235
-0.000922576
-0.00101728
-0.00109814
-0.00116417
-0.00121458
-0.00124871
-0.00126603
-0.00126613
-0.00124863
-0.00121326
-0.00115977
-0.00108797
-0.000997739
-0.000888993
-0.000761717
-0.00061597
-0.000451895
-0.000269734
-6.98442e-05
0.000147291
0.000381045
0.000630635
0.000895108
0.00117334
0.001464
0.00176559
0.00207642
0.00239457
0.00271799
0.00304443
0.00337147
0.00369659
0.00401714
0.00433039
0.00463357
0.00492391
0.00519869
0.00545525
0.00569108
0.00590386
0.00609147
0.00625209
0.00638421
0.00648668
0.00655873
0.00660002
0.00661066
0.0065912
0.00654267
0.00646653
0.00636472
0.00623958
0.00609386
0.00593067
0.00575343
0.00556586
0.00537188
0.00517558
0.00498116
0.00479283
0.00461483
0.00445125
0.00430608
0.00418309
0.00408556
0.00401671
0.00398288
0.00398863
0.000791734
0.000659968
0.000531654
0.000401052
0.000263113
0.000121104
-2.17282e-05
-0.000162836
-0.000299865
-0.000430655
-0.00055331
-0.000666197
-0.000767936
-0.000857371
-0.000933544
-0.000995668
-0.00104309
-0.00107528
-0.00109178
-0.00109221
-0.00107625
-0.00104362
-0.000994057
-0.000927372
-0.000843395
-0.000742007
-0.000623143
-0.000486803
-0.000333066
-0.000162101
2.58112e-05
0.000230269
0.000450734
0.000686514
0.000936755
0.00120042
0.00147631
0.001763
0.0020589
0.00236223
0.00267101
0.00298309
0.00329616
0.00360779
0.00391541
0.00421638
0.004508
0.00478756
0.0050524
0.00529991
0.00552762
0.00573324
0.00591468
0.00607013
0.00619809
0.0062974
0.0063673
0.00640741
0.00641782
0.00639905
0.00635208
0.00627831
0.0061796
0.00605821
0.00591678
0.00575828
0.00558601
0.00540347
0.00521439
0.00502263
0.00483209
0.00464671
0.00447039
0.00430688
0.00415981
0.00403259
0.00392834
0.00385
0.0038019
0.00378655
0.00102869
0.000857399
0.00070226
0.000553906
0.000403215
0.000252756
0.000105163
-3.78002e-05
-0.000174488
-0.000303356
-0.00042304
-0.000532369
-0.000630348
-0.000716144
-0.000789064
-0.000848532
-0.000894063
-0.000925247
-0.000941728
-0.000943189
-0.000929339
-0.000899913
-0.000854665
-0.000793372
-0.000715837
-0.000621897
-0.000511431
-0.000384376
-0.000240739
-8.06119e-05
9.58109e-05
0.000288217
0.000496163
0.000719053
0.000956133
0.00120647
0.00146896
0.00174229
0.00202497
0.0023153
0.00261141
0.00291122
0.00321252
0.00351294
0.00380996
0.00410102
0.00438345
0.00465459
0.00491178
0.00515246
0.00537415
0.00557456
0.00575159
0.00590342
0.00602852
0.0061257
0.00619416
0.0062335
0.00624375
0.00622539
0.00617933
0.00610693
0.00600997
0.00589062
0.00575144
0.00559529
0.00542532
0.00524492
0.00505763
0.00486709
0.00467703
0.00449111
0.00431297
0.00414609
0.00399379
0.00385918
0.00374517
0.00365455
0.0035893
0.00354973
0.00126961
0.0010582
0.000874955
0.000707093
0.0005416
0.000380472
0.000225829
7.87283e-05
-5.98347e-05
-0.000188887
-0.000307572
-0.000415162
-0.000511044
-0.000594706
-0.000665726
-0.000723746
-0.000768459
-0.00079959
-0.000816885
-0.000820097
-0.000808983
-0.000783298
-0.000742796
-0.000687237
-0.000616391
-0.000530048
-0.00042803
-0.000310204
-0.000176499
-2.69225e-05
0.000138423
0.000319322
0.000515429
0.000726254
0.000951145
0.00118928
0.00143964
0.00170103
0.00197204
0.00225108
0.00253633
0.00282583
0.0031174
0.00340872
0.00369735
0.00398073
0.00425624
0.0045212
0.00477297
0.00500896
0.00522669
0.00542381
0.00559819
0.00574797
0.00587157
0.00596774
0.00603562
0.00607475
0.0060851
0.00606708
0.00602154
0.00594978
0.00585349
0.0057348
0.00559616
0.00544035
0.00527041
0.00508961
0.00490136
0.00470916
0.00451654
0.00432699
0.00414392
0.00397061
0.00381013
0.00366531
0.00353895
0.00343365
0.00334905
0.00328325
0.00150717
0.00125571
0.00104374
0.000855255
0.000673535
0.00050011
0.000336666
0.000183626
4.13878e-05
-8.96069e-05
-0.00020898
-0.000316426
-0.000411701
-0.000494613
-0.000565004
-0.000622738
-0.000667687
-0.000699716
-0.000718677
-0.000724401
-0.000716689
-0.000695322
-0.000660054
-0.000610628
-0.000546778
-0.000468245
-0.000374787
-0.0002662
-0.000142328
-3.08819e-06
0.000151515
0.000321369
0.000506234
0.000705726
0.000919301
0.00114624
0.00138564
0.00163639
0.00189718
0.0021665
0.00244261
0.00272361
0.00300738
0.00329163
0.00357396
0.00385181
0.00412256
0.00438353
0.00463204
0.00486546
0.00508125
0.00527702
0.00545057
0.00559995
0.0057235
0.00581989
0.00588819
0.00592785
0.00593875
0.00592124
0.00587608
0.00580449
0.00570811
0.00558897
0.00544947
0.00529231
0.00512046
0.00493707
0.00474547
0.00454903
0.00435116
0.00415522
0.00396446
0.00378199
0.00361068
0.00345318
0.0033122
0.00319022
0.00308462
0.00299135
0.0017349
0.0014439
0.00120304
0.0009933
0.000794423
0.00060755
0.000434004
0.000273629
0.000126273
-8.11403e-06
-0.000129603
-0.000238293
-0.000334292
-0.000417714
-0.000488662
-0.000547218
-0.00059343
-0.000627303
-0.000648797
-0.000657816
-0.000654212
-0.000637785
-0.000608292
-0.000565454
-0.000508969
-0.000438523
-0.00035381
-0.000254544
-0.000140482
-1.14432e-05
0.00013267
0.000291853
0.000465977
0.000654771
0.000857802
0.00107446
0.00130395
0.00154525
0.00179715
0.00205821
0.00232677
0.00260098
0.00287876
0.00315787
0.00343589
0.00371028
0.00397839
0.0042375
0.00448488
0.00471784
0.00493377
0.00513017
0.00530475
0.00545546
0.00558054
0.00567854
0.00574843
0.00578955
0.00580168
0.00578507
0.00574039
0.00566878
0.00557181
0.00545144
0.00530999
0.0051501
0.00497469
0.00478684
0.00458979
0.00438687
0.00418138
0.00397659
0.00377566
0.00358158
0.0033971
0.00322472
0.00306714
0.00292684
0.00279896
0.00267744
0.00194702
0.00161722
0.00134766
0.00111639
0.000899816
0.000698731
0.000514148
0.000345382
0.000191775
5.28132e-05
-7.19939e-05
-0.000183124
-0.000281026
-0.000366103
-0.000438712
-0.000499141
-0.000547612
-0.000584267
-0.000609166
-0.000622288
-0.000623528
-0.000612709
-0.000589583
-0.000553848
-0.000505161
-0.000443151
-0.000367439
-0.000277655
-0.000173464
-5.4581e-05
7.92002e-05
0.000227988
0.000391771
0.000570395
0.000763543
0.000970716
0.00119122
0.00142415
0.00166836
0.00192251
0.00218501
0.00245403
0.00272755
0.00300334
0.00327898
0.00355191
0.00381943
0.00407879
0.00432717
0.00456181
0.00477996
0.00497904
0.00515662
0.00531052
0.00543885
0.00554002
0.00561286
0.00565658
0.00567085
0.00565578
0.00561195
0.00554042
0.00544265
0.00532053
0.00517634
0.00501265
0.00483233
0.00463843
0.00443416
0.00422278
0.00400757
0.00379175
0.00357844
0.00337056
0.0031708
0.00298157
0.00280567
0.00264561
0.00249444
0.00234416
0.00213828
0.00177059
0.00147273
0.00121995
0.000985422
0.000769666
0.00057341
0.00039548
0.000234743
9.0255e-05
-3.88719e-05
-0.000153475
-0.000254321
-0.000342094
-0.000417385
-0.000480687
-0.000532382
-0.000572742
-0.000601924
-0.000619976
-0.000626833
-0.000622331
-0.000606218
-0.000578163
-0.000537776
-0.000484623
-0.00041825
-0.000338197
-0.000244028
-0.000135353
-1.18473e-05
0.000126715
0.000280446
0.000449311
0.000633116
0.000831478
0.00104381
0.00126931
0.00150693
0.0017554
0.00201319
0.00227853
0.00254941
0.00282362
0.00309873
0.00337214
0.00364112
0.00390282
0.00415435
0.00439281
0.00461536
0.00481925
0.00500192
0.00516101
0.00529446
0.00540055
0.00547791
0.00552561
0.00554317
0.00553056
0.00548825
0.00541715
0.00531866
0.0051946
0.00504716
0.00487889
0.00469262
0.00449137
0.00427835
0.00405681
0.00383003
0.00360124
0.00337355
0.00314989
0.00293294
0.00272511
0.00252933
0.00234823
0.00217288
0.00199344
0.00230381
0.00189927
0.00157368
0.0012996
0.0010471
0.000816455
0.00060813
0.000420493
0.000251962
0.000101189
-3.30905e-05
-0.000152053
-0.000256766
-0.000348177
-0.000427103
-0.000494226
-0.00055008
-0.000595059
-0.00062941
-0.000653239
-0.000666517
-0.000669089
-0.000660689
-0.000640953
-0.00060944
-0.000565649
-0.00050904
-0.000439061
-0.000355169
-0.000256858
-0.000143685
-1.5297e-05
0.000128545
0.000287938
0.000462812
0.000652905
0.000857747
0.00107664
0.00130863
0.00155252
0.00180684
0.00206988
0.00233966
0.00261396
0.00289033
0.00316614
0.00343857
0.00370471
0.00396155
0.00420606
0.00443524
0.00464619
0.00483615
0.00500259
0.00514325
0.00525621
0.00533991
0.00539323
0.0054155
0.00540655
0.00536668
0.0052967
0.00519789
0.00507197
0.00492109
0.00474774
0.00455474
0.00434513
0.00412209
0.00388894
0.00364898
0.00340549
0.00316162
0.00292039
0.00268451
0.00245645
0.00223934
0.00203602
0.00183564
0.00162659
0.00243911
0.00199881
0.00164618
0.00135117
0.00108086
0.000835296
0.000614696
0.000416993
0.00024018
8.2523e-05
-5.75982e-05
-0.000181682
-0.000291082
-0.000386993
-0.000470445
-0.000542293
-0.000603218
-0.000653722
-0.000694134
-0.00072461
-0.000745149
-0.000755597
-0.00075567
-0.000744963
-0.000722977
-0.000689137
-0.000642815
-0.000583355
-0.000510105
-0.000422435
-0.000319777
-0.000201642
-6.76567e-05
8.24098e-05
0.000248621
0.000430845
0.00062873
0.000841685
0.00106886
0.00130915
0.00156114
0.00182316
0.00209327
0.00236923
0.00264859
0.00292865
0.00320654
0.00347923
0.00374358
0.00399641
0.00423456
0.00445494
0.00465457
0.00483071
0.00498086
0.00510288
0.00519499
0.00525583
0.00528455
0.00528076
0.00524459
0.00517671
0.00507827
0.0049509
0.00479669
0.00461808
0.00441787
0.00419913
0.00396508
0.00371908
0.00346454
0.0032048
0.00294314
0.00268268
0.00242625
0.00217643
0.00193661
0.00170992
0.00148364
0.00124443
0.00253991
0.00206501
0.00168612
0.00137067
0.00108286
0.000822485
0.000589556
0.000381577
0.000196137
3.11277e-05
-0.000115407
-0.000245273
-0.000360094
-0.000461298
-0.000550112
-0.000627558
-0.000694446
-0.000751379
-0.000798755
-0.000836775
-0.000865454
-0.000884634
-0.000894001
-0.000893107
-0.000881387
-0.000858183
-0.000822773
-0.000774394
-0.000712272
-0.00063565
-0.000543823
-0.000436163
-0.000312154
-0.000171421
-1.37586e-05
0.000160836
0.000352142
0.000559685
0.000782724
0.00102023
0.00127088
0.00153304
0.0018048
0.00208393
0.00236793
0.00265408
0.00293939
0.00322074
0.00349485
0.00375837
0.00400794
0.00424024
0.00445209
0.00464047
0.00480264
0.00493618
0.00503904
0.00510963
0.00514683
0.00515002
0.00511916
0.00505471
0.00495768
0.0048296
0.00467247
0.00448871
0.0042811
0.00405274
0.00380692
0.00354709
0.00327675
0.00299941
0.00271849
0.00243727
0.00215876
0.00188569
0.00162182
0.00137058
0.00111745
0.000847358
0.00260214
0.00209388
0.00168958
0.00135427
0.00104936
0.000774424
0.000529231
0.000310887
0.000116584
-5.61389e-05
-0.000209565
-0.000345791
-0.000466696
-0.00057393
-0.000668905
-0.000752794
-0.000826527
-0.000890795
-0.000946057
-0.000992548
-0.00103029
-0.00105911
-0.00107867
-0.00108845
-0.00108783
-0.00107605
-0.00105229
-0.00101568
-0.000965301
-0.000900276
-0.000819749
-0.000722945
-0.000609194
-0.000477969
-0.000328915
-0.000161881
2.30484e-05
0.00022553
0.000444935
0.000680335
0.000930484
0.00119381
0.00146843
0.00175212
0.00204236
0.00233636
0.00263106
0.0029232
0.00320936
0.003486
0.00374955
0.00399645
0.00422324
0.00442664
0.0046036
0.00475139
0.00486768
0.00495055
0.00499861
0.00501098
0.00498737
0.00492804
0.00483383
0.00470613
0.00454685
0.00435836
0.00414346
0.00390527
0.00364717
0.00337273
0.0030856
0.00278946
0.00248793
0.00218453
0.00188246
0.00158471
0.00129541
0.00101838
0.000737319
0.000435403
0.00262196
0.00208159
0.00165282
0.00129832
0.000976808
0.000687625
0.000430329
0.00020162
-1.68914e-06
-0.000182405
-0.000343125
-0.000486223
-0.000613823
-0.000727783
-0.000829688
-0.00092085
-0.00100231
-0.00107483
-0.00113892
-0.00119484
-0.00124262
-0.00128206
-0.00131277
-0.00133419
-0.00134559
-0.00134614
-0.0013349
-0.00131086
-0.001273
-0.00122028
-0.00115168
-0.00106629
-0.000963259
-0.000841904
-0.000701707
-0.000542359
-0.000363794
-0.000166214
4.98792e-05
0.000283667
0.000533995
0.000799361
0.00107791
0.00136745
0.00166543
0.001969
0.00227502
0.0025801
0.00288064
0.00317293
0.00345314
0.00371745
0.00396213
0.00418355
0.00437834
0.00454342
0.00467612
0.00477417
0.00483586
0.00485999
0.00484598
0.00479386
0.00470425
0.0045784
0.0044181
0.00422567
0.0040039
0.00375596
0.00348534
0.00319573
0.00289099
0.00257501
0.00225166
0.00192472
0.00159767
0.00127379
0.000957652
0.00065353
0.000343285
8.34208e-06
0.00259565
0.00202452
0.00157226
0.00119929
0.000861744
0.000558719
0.000289552
5.05539e-05
-0.000161838
-0.000350764
-0.000519122
-0.000669556
-0.000804423
-0.000925776
-0.00103536
-0.00113462
-0.00122468
-0.00130639
-0.00138029
-0.00144665
-0.0015055
-0.0015566
-0.00159951
-0.00163361
-0.00165807
-0.00167197
-0.00167424
-0.00166376
-0.00163934
-0.00159978
-0.00154394
-0.00147069
-0.00137904
-0.00126812
-0.00113724
-0.000985917
-0.000813917
-0.00062129
-0.000408393
-0.000175921
7.50773e-05
0.000343182
0.000626593
0.000923132
0.00123025
0.00154504
0.00186427
0.00218442
0.00250173
0.00281225
0.00311192
0.00339664
0.00366233
0.00390503
0.00412098
0.00430673
0.00445919
0.00457571
0.00465418
0.00469307
0.00469145
0.00464905
0.00456627
0.00444415
0.00428435
0.00408913
0.00386126
0.00360397
0.00332085
0.00301577
0.0026928
0.00235609
0.00200981
0.00165805
0.00130463
0.000953148
0.000608702
0.000276055
-6.47997e-05
-0.000434252
0.00251968
0.00191918
0.00144449
0.00105383
0.000700869
0.000384461
0.000103715
-0.000145444
-0.000366943
-0.000564247
-0.000740549
-0.00089875
-0.00104143
-0.00117082
-0.00128883
-0.00139701
-0.00149657
-0.00158843
-0.00167314
-0.00175101
-0.00182201
-0.00188589
-0.00194215
-0.00199007
-0.00202876
-0.00205716
-0.00207409
-0.00207827
-0.00206838
-0.00204306
-0.00200096
-0.00194082
-0.00186142
-0.00176173
-0.00164085
-0.00149811
-0.00133312
-0.00114573
-0.000936141
-0.000704911
-0.000452962
-0.000181614
0.000107402
0.000411945
0.000729465
0.00105702
0.00139129
0.00172863
0.0020651
0.00239653
0.00271859
0.00302686
0.00331691
0.0035844
0.00382515
0.00403527
0.00421122
0.0043499
0.00444877
0.00450587
0.00451988
0.00449021
0.00441694
0.00430089
0.00414355
0.0039471
0.00371427
0.00344835
0.00315306
0.00283245
0.00249084
0.00213268
0.00176247
0.00138468
0.00100351
0.000622936
0.000248626
-0.000114102
-0.000487197
-0.000892941
0.00239068
0.00176226
0.00126623
0.000858732
0.000491025
0.000161741
-0.000130249
-0.000389398
-0.000619989
-0.000825808
-0.00101033
-0.00117671
-0.00132773
-0.0014658
-0.00159297
-0.0017109
-0.00182089
-0.00192388
-0.00202047
-0.00211094
-0.00219526
-0.00227312
-0.00234396
-0.00240697
-0.00246116
-0.00250535
-0.00253823
-0.00255837
-0.00256429
-0.00255445
-0.00252732
-0.00248144
-0.00241541
-0.00232797
-0.00221803
-0.00208471
-0.00192741
-0.0017458
-0.0015399
-0.00131009
-0.00105715
-0.000782279
-0.000487119
-0.000173754
0.000155285
0.000497027
0.000848085
0.00120468
0.00156271
0.00191777
0.00226523
0.00260036
0.00291833
0.00321438
0.00348388
0.00372244
0.00392601
0.004091
0.00421434
0.0042936
0.00432701
0.00431356
0.004253
0.00414585
0.00399342
0.00379774
0.00356152
0.00328808
0.00298127
0.00264535
0.00228492
0.00190475
0.00150974
0.00110477
0.000694473
0.000283273
-0.000122545
-0.000517052
-0.000924231
-0.00136836
0.0022054
0.00155061
0.00103441
0.000610944
0.000229212
-0.000112403
-0.000415266
-0.000684203
-0.000923848
-0.0011383
-0.0013313
-0.00150624
-0.00166613
-0.00181353
-0.00195062
-0.00207915
-0.00220051
-0.00231566
-0.00242523
-0.00252947
-0.00262834
-0.00272147
-0.00280822
-0.0028877
-0.0029588
-0.00302022
-0.0030705
-0.00310807
-0.00313125
-0.00313835
-0.00312763
-0.00309742
-0.0030461
-0.00297221
-0.00287441
-0.00275162
-0.002603
-0.002428
-0.00222644
-0.0019985
-0.0017448
-0.00146639
-0.00116479
-0.000841997
-0.000500514
-0.000143314
0.000226158
0.000604014
0.00098597
0.00136739
0.00174337
0.00210879
0.00245844
0.00278709
0.00308959
0.00336102
0.00359678
0.00379267
0.00394507
0.00405097
0.00410809
0.00411494
0.00407084
0.003976
0.00383144
0.00363903
0.00340143
0.00312199
0.00280468
0.00245399
0.00207479
0.00167226
0.0012517
0.000818482
0.000377705
-6.57052e-05
-0.000504773
-0.000932903
-0.00137624
-0.00186118
0.0019608
0.00128125
0.000746102
0.000307597
-8.74057e-05
-0.000440773
-0.000754113
-0.00103261
-0.00128125
-0.00150443
-0.00170616
-0.00189007
-0.00205934
-0.00221672
-0.00236449
-0.00250451
-0.0026382
-0.00276658
-0.00289028
-0.00300954
-0.00312427
-0.00323404
-0.00333814
-0.00343558
-0.00352513
-0.00360536
-0.00367467
-0.00373131
-0.00377344
-0.00379915
-0.00380651
-0.00379362
-0.00375864
-0.00369986
-0.00361571
-0.00350484
-0.00336618
-0.00319894
-0.00300268
-0.00277739
-0.00252347
-0.00224178
-0.00193372
-0.00160116
-0.00124654
-0.000872804
-0.000483447
-8.24483e-05
0.000325744
0.000736266
0.00114391
0.00154319
0.00192845
0.00229397
0.00263406
0.00294318
0.0032161
0.00344799
0.00363455
0.00377215
0.00385789
0.00388972
0.00386646
0.00378791
0.00365478
0.00346872
0.00323228
0.00294882
0.00262244
0.00225784
0.00186024
0.00143519
0.000988491
0.000526025
5.34343e-05
-0.000423807
-0.000897964
-0.00136171
-0.0018435
-0.00237199
0.00165401
0.000951399
0.000398575
-5.39988e-05
-0.000461483
-0.000825999
-0.0011494
-0.00143722
-0.00169479
-0.00192679
-0.0021375
-0.00233076
-0.00250996
-0.00267797
-0.0028372
-0.0029896
-0.00313664
-0.00327937
-0.00341841
-0.00355399
-0.00368596
-0.00381384
-0.00393683
-0.00405384
-0.00416352
-0.00426431
-0.00435444
-0.00443199
-0.00449493
-0.00454115
-0.0045685
-0.00457485
-0.0045581
-0.00451629
-0.00444759
-0.00435038
-0.00422329
-0.00406528
-0.00387565
-0.00365412
-0.00340085
-0.0031165
-0.00280226
-0.00245989
-0.0020917
-0.0017006
-0.00129009
-0.000864224
-0.000427594
1.47141e-05
0.000457188
0.000893967
0.00131894
0.00172583
0.00210837
0.00246037
0.00277588
0.00304935
0.00327576
0.00345071
0.00357062
0.00363277
0.0036354
0.00357781
0.00346031
0.00328428
0.00305211
0.00276715
0.00243358
0.00205635
0.00164101
0.00119355
0.000720292
0.00022769
-0.000278017
-0.000790745
-0.00130193
-0.00180345
-0.00232622
-0.00290133
0.00128236
0.000558463
-1.07016e-05
-0.000476335
-0.000895482
-0.00127052
-0.00160354
-0.00190044
-0.00216685
-0.00240777
-0.0026277
-0.00283072
-0.00302038
-0.0031997
-0.00337121
-0.00353692
-0.00369835
-0.00385658
-0.00401222
-0.00416547
-0.00431615
-0.0044637
-0.00460723
-0.00474554
-0.00487717
-0.0050004
-0.00511331
-0.0052138
-0.00529964
-0.00536851
-0.00541801
-0.00544577
-0.00544945
-0.00542678
-0.00537565
-0.00529415
-0.00518061
-0.00503368
-0.00485235
-0.00463606
-0.0043847
-0.00409866
-0.00377891
-0.00342702
-0.00304516
-0.00263616
-0.00220348
-0.00175122
-0.00128411
-0.000807427
-0.000326987
0.000150966
0.000619843
0.00107282
0.00150296
0.00190337
0.00226734
0.0025885
0.00286099
0.00307959
0.00323989
0.00333841
0.00337272
0.00334148
0.00324453
0.00308291
0.00285877
0.00257539
0.00223705
0.00184891
0.00141687
0.000947401
0.000447372
-7.61276e-05
-0.000616203
-0.0011661
-0.00171633
-0.00225792
-0.00282443
-0.00344958
0.000843383
0.000100067
-0.000484046
-0.000961692
-0.00139165
-0.00177656
-0.00211876
-0.00242447
-0.00269966
-0.00294957
-0.00317899
-0.00339217
-0.00359284
-0.00378417
-0.00396878
-0.00414874
-0.00432565
-0.00450057
-0.00467412
-0.00484647
-0.00501739
-0.00518625
-0.00535206
-0.00551353
-0.00566905
-0.00581677
-0.00595459
-0.00608024
-0.00619126
-0.00628513
-0.0063592
-0.00641083
-0.0064374
-0.00643635
-0.00640525
-0.00634188
-0.00624422
-0.00611059
-0.00593966
-0.0057305
-0.0054827
-0.00519636
-0.00487216
-0.00451144
-0.00411618
-0.00368907
-0.00323352
-0.00275363
-0.0022542
-0.00174073
-0.00121928
-0.000696492
-0.000179442
0.000324458
0.000807593
0.0012623
0.00168101
0.00205647
0.00238187
0.00265106
0.00285869
0.0030004
0.00307293
0.00307424
0.00300356
0.00286147
0.00264983
0.00237181
0.0020317
0.00163489
0.00118763
0.000696874
0.00017011
-0.000384892
-0.000960513
-0.00154926
-0.00214065
-0.00272475
-0.00333799
-0.0040169
0.000334862
-0.00042593
-0.00102355
-0.00151212
-0.00195203
-0.00234614
-0.00269705
-0.00301131
-0.00329519
-0.0035542
-0.00379335
-0.00401711
-0.00422935
-0.00443339
-0.00463193
-0.00482713
-0.00502061
-0.00521345
-0.00540627
-0.0055992
-0.00579196
-0.00598384
-0.00617378
-0.00636035
-0.00654184
-0.00671622
-0.00688125
-0.00703444
-0.00717315
-0.0072946
-0.00739589
-0.00747412
-0.00752635
-0.00754972
-0.00754145
-0.00749898
-0.00741992
-0.00730222
-0.00714417
-0.00694447
-0.00670234
-0.00641752
-0.00609038
-0.00572195
-0.00531399
-0.00486899
-0.00439024
-0.00388179
-0.00334852
-0.00279605
-0.00223071
-0.00165952
-0.00109003
-0.000530261
1.14458e-05
0.000526601
0.00100673
0.00144359
0.00182932
0.00215671
0.00241936
0.00261187
0.00273002
0.00277091
0.00273307
0.00261648
0.00242263
0.00215446
0.00181627
0.00141361
0.000953087
0.000442178
-0.000110989
-0.000697895
-0.00131014
-0.0019394
-0.00257411
-0.0032033
-0.00386648
-0.00460321
-0.000245174
-0.00102142
-0.00163105
-0.00212944
-0.00257839
-0.00298102
-0.00334018
-0.00366272
-0.0039552
-0.0042234
-0.00447254
-0.00470728
-0.00493167
-0.00514912
-0.00536245
-0.00557388
-0.00578505
-0.00599707
-0.00621054
-0.00642557
-0.00664182
-0.00685851
-0.00707448
-0.00728821
-0.00749784
-0.0077012
-0.00789587
-0.00807917
-0.00824825
-0.00840007
-0.00853148
-0.00863929
-0.00872024
-0.00877113
-0.00878884
-0.0087704
-0.00871306
-0.00861432
-0.00847208
-0.00828462
-0.00805072
-0.00776973
-0.00744164
-0.00706712
-0.00664763
-0.00618541
-0.00568356
-0.00514606
-0.00457777
-0.0039844
-0.00337254
-0.00274952
-0.0021234
-0.00150281
-0.000896829
-0.000314823
0.000233753
0.00073956
0.00119361
0.00158748
0.00191357
0.0021653
0.00233736
0.00242581
0.00242829
0.0023441
0.00217419
0.00192121
0.00158936
0.00118434
0.000713098
0.000183628
-0.000395254
-0.00101422
-0.00166402
-0.00233542
-0.00301566
-0.00369263
-0.00440918
-0.00520812
-0.000898421
-0.00168804
-0.00230813
-0.00281519
-0.00327227
-0.00368273
-0.00404965
-0.0043802
-0.00468119
-0.00495866
-0.00521805
-0.00546419
-0.00570128
-0.00593286
-0.00616183
-0.00639047
-0.00662046
-0.00685293
-0.00708846
-0.00732714
-0.00756855
-0.00781188
-0.00805587
-0.00829887
-0.00853891
-0.00877367
-0.00900055
-0.00921668
-0.00941897
-0.00960415
-0.00976881
-0.00990942
-0.0100224
-0.0101043
-0.0101514
-0.0101605
-0.0101284
-0.010052
-0.00992898
-0.00975699
-0.00953437
-0.00926003
-0.0089335
-0.00855504
-0.00812571
-0.00764747
-0.00712315
-0.00655656
-0.00595251
-0.00531676
-0.00465605
-0.00397806
-0.00329128
-0.00260497
-0.00192897
-0.00127356
-0.000649239
-6.65148e-05
0.000464358
0.000933636
0.00133236
0.0016526
0.00188775
0.00203268
0.00208398
0.00204007
0.00190123
0.00166969
0.00134948
0.000946347
0.000467564
-7.83399e-05
-0.000681831
-0.00133272
-0.00202081
-0.0027359
-0.0034639
-0.00419145
-0.00496499
-0.00583084
-0.00162628
-0.00242712
-0.00305609
-0.00357066
-0.00403494
-0.00445252
-0.00482672
-0.00516498
-0.00547439
-0.0057612
-0.00603108
-0.00628902
-0.00653936
-0.00678576
-0.00703121
-0.00727804
-0.00752798
-0.00778216
-0.00804116
-0.00830503
-0.00857333
-0.00884515
-0.00911916
-0.00939362
-0.00966641
-0.00993507
-0.0101968
-0.0104486
-0.0106871
-0.0109088
-0.01111
-0.0112869
-0.0114355
-0.011552
-0.0116324
-0.0116729
-0.0116698
-0.0116198
-0.0115197
-0.0113669
-0.0111591
-0.0108947
-0.0105728
-0.0101931
-0.00975623
-0.00926373
-0.00871813
-0.00812298
-0.00748295
-0.0068038
-0.00609237
-0.00535659
-0.00460541
-0.00384866
-0.00309696
-0.00236152
-0.00165395
-0.000986013
-0.00036933
0.000184889
0.00066616
0.00106504
0.00137341
0.00158477
0.00169443
0.00169975
0.00160017
0.00139734
0.00109498
0.000698837
0.000216445
-0.000343142
-0.000969644
-0.00165195
-0.00237885
-0.00313906
-0.00391702
-0.00469803
-0.00553238
-0.00647016
-0.00242986
-0.00323971
-0.00387596
-0.00439685
-0.00486738
-0.00529137
-0.00567234
-0.00601802
-0.00633573
-0.00663196
-0.00691254
-0.00718265
-0.00744677
-0.00770866
-0.0079714
-0.00823737
-0.00850835
-0.00878547
-0.00906932
-0.00935993
-0.0096568
-0.00995897
-0.010265
-0.0105731
-0.0108811
-0.0111862
-0.0114856
-0.0117759
-0.0120538
-0.0123153
-0.0125565
-0.0127733
-0.0129614
-0.0131164
-0.0132341
-0.0133101
-0.0133403
-0.0133209
-0.013248
-0.0131185
-0.0129297
-0.0126792
-0.0123655
-0.0119878
-0.0115463
-0.0110419
-0.0104768
-0.00985428
-0.00917867
-0.00845567
-0.00769216
-0.00689627
-0.00607731
-0.00524569
-0.00441278
-0.00359074
-0.00279234
-0.00203065
-0.00131878
-0.000669539
-9.51035e-05
0.000393362
0.000786041
0.0010748
0.00125347
0.0013181
0.00126711
0.00110135
0.000824114
0.000441017
-4.02121e-05
-0.00061002
-0.00125736
-0.00197015
-0.00273606
-0.00354265
-0.00437276
-0.00521015
-0.00610931
-0.00712435
-0.00330991
-0.00412655
-0.00476846
-0.00529447
-0.00577029
-0.00619995
-0.00658719
-0.00693997
-0.00726586
-0.00757153
-0.00786301
-0.00814564
-0.00842402
-0.00870202
-0.0089828
-0.00926881
-0.00956187
-0.00986313
-0.0101732
-0.010492
-0.0108191
-0.0111534
-0.0114936
-0.0118375
-0.0121829
-0.0125271
-0.0128669
-0.0131988
-0.0135192
-0.0138239
-0.0141088
-0.0143693
-0.0146008
-0.0147985
-0.0149578
-0.0150738
-0.0151419
-0.0151576
-0.0151166
-0.0150151
-0.0148497
-0.0146174
-0.0143161
-0.0139444