/*--------------------------------*- C++ -*----------------------------------*\
  =========                 |
  \\      /  F ield         | OpenFOAM: The Open Source CFD Toolbox
   \\    /   O peration     | Website:  https://openfoam.org
    \\  /    A nd           | Version:  7
     \\/     M anipulation  |
\*---------------------------------------------------------------------------*/
FoamFile
{
    version     2.0;
    format      ascii;
    class       volScalarField;
    location    "2.3";
    object      p;
}
// * * * * * * * * * * * * * * * * * * * * * * * * * * * * * * * * * * * * * //

dimensions      [0 2 -2 0 0 0 0];

internalField   nonuniform List<scalar> 
6400
(
-1.01761e-06
1.16159e-05
3.60956e-07
-3.82347e-05
-0.000101863
-0.000187218
-0.000290753
-0.000409274
-0.000540222
-0.000681676
-0.000832251
-0.000990976
-0.00115716
-0.00133023
-0.00150968
-0.00169493
-0.00188527
-0.00207978
-0.00227733
-0.0024765
-0.00267562
-0.00287269
-0.00306545
-0.00325136
-0.0034276
-0.00359117
-0.00373889
-0.00386747
-0.00397361
-0.00405404
-0.00410569
-0.00412575
-0.00411184
-0.0040621
-0.00397533
-0.00385114
-0.00369002
-0.00349348
-0.00326409
-0.00300554
-0.00272267
-0.0024211
-0.00210793
-0.00179078
-0.00147795
-0.00117821
-0.000900469
-0.000653488
-0.000445565
-0.00028421
-0.000175841
-0.000125508
-0.000136657
-0.000210971
-0.000348274
-0.00054652
-0.000801854
-0.00110876
-0.0014606
-0.00184917
-0.00226561
-0.00270088
-0.00314572
-0.00359112
-0.00402863
-0.0044506
-0.00485031
-0.00522203
-0.00556112
-0.00586385
-0.00612741
-0.00634967
-0.00652911
-0.00666476
-0.00675622
-0.0068041
-0.00681097
-0.0067833
-0.00673368
-0.00668069
-1.51905e-05
-2.11209e-06
-1.46533e-05
-5.13524e-05
-0.000109084
-0.000185681
-0.000278731
-0.000385869
-0.000505071
-0.000634719
-0.000773584
-0.000920735
-0.00107546
-0.00123715
-0.00140526
-0.00157918
-0.0017582
-0.00194147
-0.00212791
-0.00231623
-0.0025049
-0.00269212
-0.00287582
-0.0030537
-0.0032232
-0.00338157
-0.00352591
-0.00365318
-0.00376033
-0.00384434
-0.00390231
-0.00393162
-0.00392997
-0.00389558
-0.00382724
-0.00372448
-0.00358765
-0.00341802
-0.00321788
-0.00299054
-0.00274034
-0.00247265
-0.00219373
-0.00191066
-0.00163117
-0.00136337
-0.00111552
-0.000895761
-0.000711811
-0.000570647
-0.000478227
-0.000439228
-0.000456832
-0.000532565
-0.000666222
-0.000855857
-0.00109785
-0.00138701
-0.00171682
-0.00208092
-0.00246936
-0.00287476
-0.00328847
-0.00370216
-0.0041081
-0.00449932
-0.00486971
-0.00521412
-0.00552837
-0.00580922
-0.00605427
-0.00626185
-0.00643094
-0.00656113
-0.00665267
-0.00670669
-0.00672595
-0.00671553
-0.00668065
-0.0066276
-3.96676e-06
9.7884e-06
-3.4109e-06
-3.9427e-05
-9.41841e-05
-0.000165803
-0.00025236
-0.000351931
-0.000462879
-0.000583848
-0.000713811
-0.000851964
-0.000997669
-0.00115039
-0.00130962
-0.00147481
-0.00164532
-0.00182036
-0.00199898
-0.00218
-0.00236203
-0.00254344
-0.00272232
-0.00289654
-0.00306373
-0.00322132
-0.00336655
-0.00349654
-0.00360834
-0.00369902
-0.00376574
-0.00380586
-0.00381708
-0.0037975
-0.00374581
-0.00366135
-0.00354426
-0.00339557
-0.00321727
-0.00301237
-0.00278483
-0.0025398
-0.00228313
-0.00202158
-0.00176255
-0.00151384
-0.00128344
-0.00107924
-0.00090874
-0.000778722
-0.000694997
-0.000662128
-0.000683217
-0.00075975
-0.000891514
-0.0010766
-0.00131146
-0.00159109
-0.00190919
-0.00225872
-0.00263154
-0.00301955
-0.00341458
-0.00380873
-0.00419466
-0.00456581
-0.00491649
-0.00524199
-0.00553858
-0.00580343
-0.00603458
-0.00623078
-0.00639142
-0.00651643
-0.00660627
-0.00666197
-0.0066857
-0.00668076
-0.00664593
-0.00657813
3.64497e-05
4.65395e-05
3.06023e-05
-6.56366e-06
-6.06805e-05
-0.000129884
-0.000212555
-0.000306966
-0.000411831
-0.000526083
-0.000648911
-0.000779701
-0.000917971
-0.00106332
-0.00121536
-0.00137366
-0.00153769
-0.0017068
-0.00188015
-0.00205673
-0.00223527
-0.0024143
-0.00259205
-0.00276655
-0.00293553
-0.00309654
-0.00324689
-0.00338375
-0.00350417
-0.00360518
-0.00368388
-0.0037375
-0.00376357
-0.00376
-0.00372523
-0.00365836
-0.00355925
-0.00342864
-0.00326826
-0.00308083
-0.00287005
-0.00264083
-0.00239885
-0.00215072
-0.00190369
-0.00166551
-0.00144411
-0.00124739
-0.00108286
-0.000957366
-0.000876773
-0.000845714
-0.000867359
-0.000943249
-0.00107321
-0.00125535
-0.00148614
-0.00176054
-0.00207229
-0.00241415
-0.0027782
-0.00315634
-0.00354035
-0.0039225
-0.00429563
-0.00465339
-0.00499037
-0.0053022
-0.00558553
-0.00583794
-0.00605788
-0.00624451
-0.00639758
-0.00651726
-0.00660404
-0.00665861
-0.00668239
-0.0066771
-0.00663668
-0.00655168
0.000104719
0.000105623
8.38453e-05
4.34658e-05
-1.18772e-05
-8.04033e-05
-0.000160656
-0.000251314
-0.000351371
-0.000460064
-0.00057685
-0.00070135
-0.000833296
-0.000972473
-0.00111866
-0.0012716
-0.00143092
-0.00159613
-0.00176656
-0.00194135
-0.0021194
-0.00229938
-0.00247966
-0.00265837
-0.00283336
-0.00300218
-0.00316217
-0.00331046
-0.00344401
-0.00355971
-0.00365447
-0.0037253
-0.00376945
-0.00378454
-0.00376869
-0.00372067
-0.00364001
-0.00352715
-0.00338351
-0.00321158
-0.00301483
-0.00279797
-0.0025666
-0.00232724
-0.00208716
-0.00185413
-0.00163622
-0.00144143
-0.00127746
-0.00115136
-0.00106919
-0.00103579
-0.00105452
-0.00112707
-0.00125337
-0.0014316
-0.00165822
-0.00192817
-0.00223509
-0.00257164
-0.00292979
-0.00330126
-0.00367783
-0.00405167
-0.00441563
-0.00476347
-0.00508994
-0.00539093
-0.00566338
-0.00590525
-0.00611539
-0.00629335
-0.00643922
-0.00655342
-0.00663646
-0.00668879
-0.00671122
-0.00670432
-0.0066589
-0.00656167
0.000198087
0.000185062
0.000154473
0.000108883
5.05932e-05
-1.88026e-05
-9.80851e-05
-0.000186325
-0.000282865
-0.000387282
-0.000499338
-0.000618937
-0.000746061
-0.00088073
-0.00102294
-0.00117264
-0.00132966
-0.00149371
-0.00166431
-0.00184077
-0.00202217
-0.0022073
-0.00239466
-0.00258245
-0.00276854
-0.00295048
-0.00312552
-0.00329065
-0.00344265
-0.00357817
-0.0036938
-0.00378623
-0.00385235
-0.00388939
-0.00389507
-0.00386778
-0.00380667
-0.00371184
-0.00358442
-0.0034267
-0.00324186
-0.00303455
-0.00281027
-0.00257557
-0.00233778
-0.00210482
-0.00188494
-0.00168642
-0.00151725
-0.00138479
-0.00129545
-0.00125442
-0.00126535
-0.00133021
-0.00144915
-0.00162049
-0.00184077
-0.00210491
-0.00240647
-0.00273794
-0.00309112
-0.0034575
-0.00382866
-0.0041966
-0.00455404
-0.00489469
-0.00521335
-0.00550603
-0.0057699
-0.0060032
-0.00620513
-0.00637561
-0.00651504
-0.00662411
-0.00670342
-0.00675329
-0.0067742
-0.006766
-0.00671789
-0.00661473
0.000312813
0.000281912
0.000239933
0.000187419
0.000124658
5.30179e-05
-2.66081e-05
-0.000113727
-0.000208093
-0.000309661
-0.000418544
-0.000534963
-0.000659195
-0.000791529
-0.000932223
-0.00108146
-0.00123933
-0.00140575
-0.00158045
-0.00176295
-0.00195246
-0.00214793
-0.00234792
-0.00255065
-0.00275397
-0.00295533
-0.0031518
-0.00334014
-0.00351683
-0.00367816
-0.00382034
-0.0039396
-0.00403238
-0.00409544
-0.00412605
-0.00412215
-0.00408248
-0.00400675
-0.00389585
-0.00375194
-0.00357754
-0.00337759
-0.00315747
-0.00292375
-0.00268387
-0.00244597
-0.00221856
-0.00201026
-0.00182946
-0.00168397
-0.00158068
-0.00152523
-0.00152177
-0.00157267
-0.00167846
-0.00183772
-0.00204717
-0.00230182
-0.00259518
-0.00291963
-0.00326675
-0.00362777
-0.00399397
-0.00435707
-0.00470953
-0.00504494
-0.0053579
-0.00564448
-0.00590194
-0.0061287
-0.00632424
-0.00648875
-0.00662296
-0.00672779
-0.00680403
-0.00685202
-0.00687209
-0.00686377
-0.0068158
-0.0067127
0.000444448
0.0003926
0.000337487
0.000276189
0.000207627
0.000132576
5.14501e-05
-3.57746e-05
-0.000129331
-0.000229605
-0.000337096
-0.000452382
-0.000576067
-0.000708745
-0.000850968
-0.0010032
-0.0011658
-0.00133893
-0.00152255
-0.00171636
-0.00191975
-0.00213173
-0.00235092
-0.00257551
-0.00280323
-0.00303133
-0.00325663
-0.00347555
-0.00368416
-0.0038783
-0.00405365
-0.00420595
-0.00433107
-0.00442523
-0.0044852
-0.00450841
-0.00449315
-0.00443872
-0.00434575
-0.00421649
-0.00405173
-0.00385775
-0.00363957
-0.0034037
-0.00315773
-0.00290999
-0.00266932
-0.00244474
-0.00224514
-0.00207888
-0.00195346
-0.00187517
-0.00184878
-0.00187728
-0.00196174
-0.00210122
-0.00229279
-0.00253167
-0.00281146
-0.00312448
-0.00346215
-0.00381542
-0.00417525
-0.00453296
-0.0048807
-0.00521166
-0.0055203
-0.00580248
-0.00605543
-0.00627764
-0.0064687
-0.00662906
-0.00675966
-0.00686169
-0.00693613
-0.00698347
-0.00700404
-0.00699733
-0.00695242
-0.00685453
0.000588077
0.000512671
0.000442359
0.000371485
0.000296187
0.000216762
0.000133106
4.45788e-05
-4.96005e-05
-0.000150298
-0.000258448
-0.000375012
-0.000500954
-0.00063721
-0.000784653
-0.000944061
-0.00111607
-0.00130112
-0.00149941
-0.00171081
-0.00193483
-0.00217057
-0.00241661
-0.00267105
-0.00293141
-0.00319467
-0.00345728
-0.00371521
-0.00396404
-0.00419903
-0.00441528
-0.00460791
-0.00477217
-0.00490369
-0.00499861
-0.00505384
-0.00506717
-0.00503747
-0.00496476
-0.00485032
-0.00469705
-0.0045089
-0.00429123
-0.00405067
-0.00379489
-0.00353247
-0.00327257
-0.00302468
-0.00279823
-0.00260225
-0.00244501
-0.00233359
-0.00227361
-0.0022689
-0.00232132
-0.00243062
-0.00259445
-0.00280848
-0.00306656
-0.00336111
-0.00368346
-0.00402433
-0.00437434
-0.0047244
-0.00506618
-0.00539243
-0.00569724
-0.00597614
-0.00622615
-0.00644567
-0.00663429
-0.00679254
-0.00692154
-0.00702266
-0.00709709
-0.00714551
-0.00716838
-0.00716526
-0.00712615
-0.00703764
0.000738358
0.0006373
0.000550598
0.000469202
0.000386385
0.000301784
0.000214639
0.000123594
2.72414e-05
-7.58136e-05
-0.000186975
-0.000307632
-0.000439137
-0.000582792
-0.000739824
-0.000911342
-0.00109829
-0.00130138
-0.00152103
-0.0017573
-0.00200979
-0.00227759
-0.00255923
-0.0028526
-0.00315495
-0.00346289
-0.00377239
-0.00407888
-0.00437734
-0.00466238
-0.00492843
-0.00516989
-0.00538135
-0.00555773
-0.00569454
-0.00578804
-0.00583547
-0.00583519
-0.00578655
-0.00568986
-0.00554969
-0.00536793
-0.00515012
-0.00490289
-0.00463398
-0.00435213
-0.00406684
-0.00378806
-0.00352586
-0.00329003
-0.00308972
-0.00293302
-0.00282661
-0.00277541
-0.00278236
-0.00284822
-0.0029715
-0.00314858
-0.00337385
-0.00364
-0.00393844
-0.00425979
-0.00459431
-0.0049325
-0.00526548
-0.00558544
-0.00588592
-0.00616196
-0.00641017
-0.00662867
-0.00681688
-0.00697526
-0.00710496
-0.00720746
-0.0072841
-0.00733574
-0.00736298
-0.00736553
-0.00733465
-0.00725866
0.000889396
0.000761025
0.000656997
0.000564456
0.000473554
0.000383093
0.000291526
0.000196681
9.64544e-05
-1.1139e-05
-0.00012801
-0.000256003
-0.000396893
-0.000552378
-0.000724057
-0.000913391
-0.00112164
-0.00134979
-0.00159848
-0.00186789
-0.0021577
-0.00246695
-0.00279399
-0.00313646
-0.00349125
-0.00385446
-0.00422154
-0.00458728
-0.00494594
-0.00529142
-0.00561739
-0.00591748
-0.00618549
-0.00641562
-0.00660264
-0.00674209
-0.00683054
-0.00686571
-0.00684646
-0.00677293
-0.00664773
-0.00647378
-0.00625606
-0.00600092
-0.00571606
-0.00541031
-0.00509347
-0.00477593
-0.00446843
-0.0041816
-0.00392561
-0.00370974
-0.00354196
-0.0034286
-0.00337396
-0.00338015
-0.00344696
-0.00357181
-0.00374993
-0.00397461
-0.00423757
-0.00452945
-0.00484031
-0.00516019
-0.00547965
-0.0057902
-0.00608464
-0.00635735
-0.00660432
-0.00682315
-0.00701287
-0.00717368
-0.00730659
-0.00741303
-0.0074944
-0.00755167
-0.00758554
-0.00759585
-0.00757527
-0.00751404
0.00103471
0.000877766
0.000755765
0.000651707
0.000552307
0.000455369
0.000358428
0.000258392
0.000152392
3.78044e-05
-8.78328e-05
-0.000226853
-0.00038148
-0.000553831
-0.000745899
-0.000959507
-0.00119624
-0.00145734
-0.00174365
-0.00205545
-0.00239242
-0.00275347
-0.00313675
-0.00353952
-0.00395821
-0.00438838
-0.00482481
-0.00526157
-0.00569216
-0.00610966
-0.0065069
-0.00687667
-0.00721194
-0.00750607
-0.00775299
-0.00794746
-0.00808527
-0.00816334
-0.00817992
-0.00813464
-0.00802902
-0.0078658
-0.0076495
-0.00738616
-0.00708329
-0.00674975
-0.00639551
-0.0060314
-0.00566878
-0.0053192
-0.00499395
-0.00470365
-0.0044578
-0.00426441
-0.00412952
-0.00405699
-0.00404827
-0.00410229
-0.00421555
-0.0043823
-0.00459489
-0.00484425
-0.00512039
-0.00541298
-0.00571199
-0.00600814
-0.00629337
-0.00656116
-0.00680663
-0.00702661
-0.00721949
-0.00738495
-0.00752364
-0.00763675
-0.00772556
-0.00779106
-0.00783392
-0.00785406
-0.00784554
-0.00780057
0.00116725
0.00098088
0.000840535
0.000724769
0.00061656
0.00051254
0.000409203
0.00030244
0.000188542
6.42015e-05
-7.36344e-05
-0.000227819
-0.000401053
-0.000595895
-0.000814747
-0.0010598
-0.00133296
-0.00163573
-0.00196909
-0.0023334
-0.00272826
-0.0031524
-0.00360365
-0.00407886
-0.00457388
-0.00508363
-0.00560217
-0.00612275
-0.00663804
-0.00714022
-0.00762121
-0.00807289
-0.00848731
-0.00885689
-0.00917465
-0.00943447
-0.00963123
-0.00976098
-0.00982116
-0.00981067
-0.00973015
-0.00958176
-0.00936941
-0.00909869
-0.00877682
-0.0084125
-0.00801579
-0.00759786
-0.00717064
-0.00674657
-0.00633811
-0.00595735
-0.00561554
-0.00532259
-0.00508668
-0.00491383
-0.00480761
-0.00476897
-0.00479619
-0.00488498
-0.00502877
-0.00521912
-0.00544623
-0.0056996
-0.00596862
-0.00624319
-0.00651422
-0.00677405
-0.0070167
-0.00723791
-0.00743512
-0.00760721
-0.00775417
-0.0078767
-0.00797577
-0.00805216
-0.00810642
-0.00813838
-0.00814342
-0.00811562
0.00127944
0.00106318
0.000904377
0.000776851
0.000659577
0.000547843
0.000436979
0.000321768
0.000197602
6.04354e-05
-9.34059e-05
-0.000267328
-0.000464531
-0.000688037
-0.000940669
-0.00122499
-0.00154322
-0.00189708
-0.00228768
-0.00271537
-0.00317962
-0.00367892
-0.00421068
-0.00477123
-0.0053558
-0.00595858
-0.0065728
-0.00719086
-0.00780446
-0.00840485
-0.00898296
-0.00952967
-0.010036
-0.0104934
-0.0108939
-0.0112303
-0.0114965
-0.0116877
-0.0118003
-0.0118323
-0.0117834
-0.0116551
-0.0114505
-0.0111745
-0.0108339
-0.0104372
-0.00999423
-0.0095164
-0.00901613
-0.00850663
-0.00800152
-0.0075144
-0.00705837
-0.00664552
-0.00628643
-0.00598971
-0.00576157
-0.00560553
-0.00552225
-0.0055095
-0.00556234
-0.00567346
-0.00583369
-0.00603256
-0.00625906
-0.00650223
-0.00675185
-0.00699892
-0.00723603
-0.00745754
-0.00765955
-0.00783978
-0.00799723
-0.00813184
-0.00824394
-0.00833392
-0.00840195
-0.00844768
-0.00846758
-0.00845748
0.00136318
0.00111699
0.000939868
0.00080064
0.000674058
0.000553913
0.000434251
0.000308667
0.000171599
1.82252e-05
-0.000155787
-0.000354423
-0.000581407
-0.000840238
-0.00113417
-0.00146615
-0.00183867
-0.00225365
-0.00271228
-0.00321483
-0.0037606
-0.0043477
-0.00497309
-0.00563249
-0.00632041
-0.00703022
-0.00775426
-0.00848396
-0.00921003
-0.00992267
-0.0106117
-0.011267
-0.0118785
-0.0124365
-0.012932
-0.0133567
-0.0137034
-0.0139663
-0.0141407
-0.0142236
-0.0142138
-0.0141118
-0.0139198
-0.013642
-0.0132846
-0.0128555
-0.0123644
-0.0118225
-0.0112425
-0.0106384
-0.0100247
-0.00941659
-0.00882891
-0.00827608
-0.00777136
-0.00732628
-0.00695019
-0.00664976
-0.00642868
-0.0062875
-0.00622362
-0.00623151
-0.00630314
-0.00642855
-0.00659654
-0.00679543
-0.00701381
-0.00724113
-0.00746826
-0.00768778
-0.00789409
-0.0080833
-0.00825306
-0.00840211
-0.00852988
-0.00863605
-0.00872021
-0.00878156
-0.00881751
-0.00882542
0.00141001
0.0011343
0.000939212
0.000788418
0.000652269
0.000522917
0.000393022
0.000254928
0.000102067
-7.11907e-05
-0.000269866
-0.000498547
-0.000761505
-0.00106273
-0.00140593
-0.00179438
-0.00223086
-0.00271744
-0.00325531
-0.00384463
-0.00448441
-0.00517236
-0.00590484
-0.0066769
-0.00748223
-0.0083133
-0.00916147
-0.0100171
-0.0108699
-0.0117088
-0.0125226
-0.0132999
-0.0140296
-0.0147008
-0.0153032
-0.0158277
-0.0162657
-0.0166104
-0.0168561
-0.0169986
-0.0170358
-0.016967
-0.0167936
-0.016519
-0.0161483
-0.0156888
-0.0151497
-0.014542
-0.0138785
-0.0131733
-0.0124419
-0.0117005
-0.0109659
-0.0102548
-0.00958312
-0.00896562
-0.00841517
-0.00794216
-0.00755403
-0.00725485
-0.0070452
-0.00692216
-0.00687958
-0.00690861
-0.00699833
-0.00713658
-0.00731077
-0.00750872
-0.00771928
-0.00793287
-0.00814169
-0.00833983
-0.00852305
-0.00868851
-0.00883433
-0.00895913
-0.00906166
-0.00914047
-0.00919361
-0.00921979
0.00141126
0.00110687
0.000894382
0.000732208
0.000586192
0.00044672
0.000304986
0.00015203
-1.9752e-05
-0.000216829
-0.000444934
-0.000709282
-0.00101471
-0.00136571
-0.00176642
-0.00222047
-0.00273086
-0.00329976
-0.00392833
-0.00461651
-0.00536296
-0.00616485
-0.00701793
-0.0079164
-0.00885309
-0.00981945
-0.0108058
-0.0118013
-0.0127944
-0.013773
-0.0147245
-0.0156365
-0.0164965
-0.0172923
-0.0180128
-0.0186474
-0.0191867
-0.0196226
-0.0199484
-0.0201589
-0.0202507
-0.0202225
-0.0200745
-0.0198088
-0.01943
-0.0189442
-0.0183601
-0.0176879
-0.0169402
-0.0161311
-0.0152766
-0.0143937
-0.0135006
-0.0126162
-0.011759
-0.0109472
-0.0101972
-0.00952381
-0.0089387
-0.00845034
-0.00806339
-0.00777852
-0.00759241
-0.00749816
-0.00748581
-0.00754316
-0.0076567
-0.00781257
-0.00799738
-0.008199
-0.00840697
-0.00861278
-0.00880979
-0.00899306
-0.00915892
-0.00930457
-0.00942761
-0.00952565
-0.00959716
-0.00964203
0.00135818
0.00102641
0.00079729
0.000623957
0.000467712
0.000317083
0.000161735
-8.62602e-06
-0.000202663
-0.000427706
-0.000690218
-0.000996062
-0.00135065
-0.00175899
-0.00222563
-0.00275453
-0.00334887
-0.00401087
-0.00474155
-0.0055406
-0.00640619
-0.00733491
-0.0083217
-0.00935991
-0.0104413
-0.0115563
-0.0126938
-0.013842
-0.014988
-0.0161183
-0.0172192
-0.0182767
-0.0192773
-0.0202076
-0.0210553
-0.0218087
-0.0224575
-0.0229923
-0.0234057
-0.0236915
-0.0238454
-0.0238646
-0.0237487
-0.0234989
-0.0231183
-0.0226124
-0.0219887
-0.0212566
-0.0204279
-0.0195165
-0.0185381
-0.0175103
-0.0164524
-0.0153846
-0.0143281
-0.013304
-0.0123328
-0.0114333
-0.0106225
-0.00991369
-0.0093167
-0.00883681
-0.00847473
-0.00822657
-0.00808429
-0.0080364
-0.00806892
-0.00816645
-0.00831329
-0.00849441
-0.00869619
-0.00890694
-0.00911699
-0.00931871
-0.00950613
-0.00967458
-0.00982011
-0.00993913
-0.0100303
-0.0100945
0.00124219
0.00088478
0.000639979
0.000455727
0.000288824
0.000125877
-4.5007e-05
-0.000235475
-0.000455258
-0.000712558
-0.00101459
-0.00136786
-0.00177838
-0.00225166
-0.00279265
-0.00340558
-0.00409378
-0.00485944
-0.00570338
-0.0066249
-0.00762162
-0.00868939
-0.00982227
-0.0110126
-0.012251
-0.0135265
-0.014827
-0.0161391
-0.0174485
-0.0187404
-0.0199998
-0.0212113
-0.0223603
-0.0234323
-0.0244137
-0.0252921
-0.026056
-0.0266954
-0.0272019
-0.0275685
-0.0277901
-0.0278631
-0.027786
-0.0275589
-0.0271841
-0.0266658
-0.0260103
-0.0252259
-0.0243235
-0.0233159
-0.0222183
-0.0210482
-0.0198252
-0.0185706
-0.0173072
-0.016059
-0.0148499
-0.0137034
-0.0126413
-0.0116828
-0.0108436
-0.0101347
-0.00956218
-0.00912644
-0.00882263
-0.00864105
-0.00856801
-0.00858705
-0.00868021
-0.00882935
-0.00901725
-0.00922838
-0.00944941
-0.00966931
-0.0098792
-0.010072
-0.0102419
-0.0103836
-0.0104959
-0.0105804
0.00105508
0.000674201
0.000414841
0.000219919
4.1866e-05
-0.000134661
-0.000323125
-0.000536516
-0.000785633
-0.00107955
-0.00142624
-0.00183288
-0.00230605
-0.00285174
-0.00347529
-0.00418118
-0.00497279
-0.0058522
-0.00681994
-0.00787482
-0.00901377
-0.0102318
-0.0115219
-0.0128752
-0.0142812
-0.0157274
-0.0172004
-0.0186851
-0.0201659
-0.0216266
-0.0230507
-0.0244218
-0.0257237
-0.0269412
-0.0280597
-0.0290658
-0.0299476
-0.0306943
-0.0312968
-0.0317476
-0.0320408
-0.0321723
-0.0321396
-0.0319421
-0.0315808
-0.0310589
-0.0303813
-0.029555
-0.0285896
-0.0274964
-0.0262897
-0.0249861
-0.0236047
-0.0221671
-0.0206972
-0.0192208
-0.0177648
-0.0163568
-0.0150237
-0.0137906
-0.0126798
-0.0117091
-0.0108912
-0.0102323
-0.0097324
-0.00938491
-0.00917765
-0.00909388
-0.00911378
-0.0092161
-0.00937962
-0.00958443
-0.00981276
-0.0100495
-0.010282
-0.0105004
-0.0106962
-0.0108623
-0.0109973
-0.0111036
0.000789258
0.000387478
0.000114839
-9.04959e-05
-0.000280246
-0.000471692
-0.000679858
-0.000919046
-0.00120111
-0.00153599
-0.00193241
-0.0023982
-0.00294052
-0.00356583
-0.00427979
-0.00508705
-0.005991
-0.00699351
-0.0080947
-0.00929275
-0.0105838
-0.0119617
-0.0134185
-0.0149439
-0.0165259
-0.0181505
-0.0198027
-0.0214659
-0.0231231
-0.0247563
-0.0263479
-0.0278801
-0.0293359
-0.0306991
-0.0319543
-0.0330876
-0.0340865
-0.03494
-0.0356384
-0.0361741
-0.0365406
-0.0367334
-0.0367493
-0.0365871
-0.0362468
-0.0357303
-0.0350414
-0.0341857
-0.0331708
-0.0320066
-0.0307058
-0.0292832
-0.027757
-0.0261482
-0.0244805
-0.0227807
-0.0210778
-0.0194027
-0.0177868
-0.0162611
-0.0148547
-0.013593
-0.0124965
-0.0115789
-0.0108465
-0.010298
-0.00992407
-0.00970903
-0.00963201
-0.00966891
-0.00979438
-0.00998361
-0.0102137
-0.0104644
-0.010719
-0.0109635
-0.0111866
-0.0113789
-0.0115384
-0.0116683
0.000437948
1.82177e-05
-0.000266276
-0.000481752
-0.000683776
-0.000891527
-0.00112154
-0.0013894
-0.00170797
-0.00208804
-0.00253907
-0.00306954
-0.00368716
-0.00439881
-0.00521042
-0.00612676
-0.00715112
-0.00828504
-0.00952811
-0.0108777
-0.012329
-0.0138749
-0.0155057
-0.0172098
-0.0189735
-0.0207814
-0.0226165
-0.0244607
-0.0262954
-0.0281012
-0.0298592
-0.0315505
-0.0331572
-0.0346623
-0.0360501
-0.0373063
-0.0384182
-0.0393745
-0.0401658
-0.0407841
-0.041223
-0.0414776
-0.0415446
-0.0414219
-0.041109
-0.0406067
-0.0399176
-0.0390456
-0.0379967
-0.0367789
-0.0354026
-0.0338808
-0.0322297
-0.0304686
-0.0286202
-0.0267112
-0.0247714
-0.0228336
-0.0209331
-0.0191059
-0.0173878
-0.0158123
-0.0144083
-0.0131985
-0.0121977
-0.0114113
-0.0108353
-0.0104567
-0.010255
-0.0102039
-0.0102741
-0.0104356
-0.0106596
-0.0109201
-0.0111949
-0.0114657
-0.0117173
-0.0119373
-0.0121233
-0.0122792
-4.55741e-06
-0.000438947
-0.000733741
-0.000959066
-0.00117395
-0.00139939
-0.00165338
-0.00195269
-0.00231118
-0.00274045
-0.00325067
-0.00385094
-0.00454947
-0.00535354
-0.00626928
-0.00730147
-0.00845318
-0.00972553
-0.0111174
-0.0126253
-0.0142431
-0.0159624
-0.0177721
-0.0196589
-0.0216072
-0.0235999
-0.0256182
-0.0276424
-0.0296521
-0.0316268
-0.0335461
-0.0353905
-0.0371413
-0.0387809
-0.0402936
-0.0416649
-0.0428822
-0.0439345
-0.0448126
-0.0455087
-0.0460165
-0.0463311
-0.0464495
-0.0463689
-0.0460883
-0.0456078
-0.0449287
-0.0440536
-0.0429867
-0.041734
-0.0403034
-0.0387057
-0.0369542
-0.0350659
-0.0330616
-0.0309662
-0.0288092
-0.026624
-0.024448
-0.0223215
-0.0202859
-0.0183824
-0.0166491
-0.0151186
-0.0138156
-0.0127549
-0.0119399
-0.0113626
-0.0110046
-0.010839
-0.010833
-0.0109513
-0.0111588
-0.0114229
-0.0117151
-0.0120113
-0.0122921
-0.0125416
-0.0127562
-0.0129407
-0.000542701
-0.00098817
-0.00129159
-0.00152643
-0.00175474
-0.00199922
-0.00227921
-0.00261261
-0.00301419
-0.00349634
-0.00406989
-0.00474454
-0.00552895
-0.00643069
-0.00745606
-0.00860971
-0.0098944
-0.0113106
-0.0128565
-0.0145273
-0.0163157
-0.0182117
-0.0202024
-0.0222728
-0.0244053
-0.0265811
-0.0287793
-0.0309787
-0.0331574
-0.0352934
-0.0373656
-0.0393535
-0.041238
-0.0430016
-0.0446282
-0.0461039
-0.0474164
-0.0485551
-0.0495114
-0.050278
-0.0508491
-0.0512203
-0.0513879
-0.0513498
-0.0511046
-0.0506518
-0.0499916
-0.0491255
-0.0480559
-0.0467869
-0.0453239
-0.043675
-0.0418506
-0.0398645
-0.0377346
-0.0354832
-0.0331375
-0.0307302
-0.0282993
-0.0258872
-0.0235401
-0.0213056
-0.0192307
-0.0173585
-0.015725
-0.0143561
-0.0132654
-0.0124526
-0.0119038
-0.0115933
-0.0114863
-0.0115426
-0.0117204
-0.0119798
-0.0122848
-0.0126051
-0.0129154
-0.0131957
-0.0134412
-0.0136575
-0.00117948
-0.00163221
-0.00194247
-0.00218646
-0.0024287
-0.00269345
-0.00300131
-0.00337121
-0.00381875
-0.00435703
-0.00499752
-0.00575044
-0.00662486
-0.00762858
-0.00876791
-0.0100473
-0.0114691
-0.0130329
-0.0147359
-0.0165722
-0.0185328
-0.0206059
-0.022777
-0.0250289
-0.0273422
-0.0296959
-0.0320675
-0.0344339
-0.036772
-0.0390587
-0.0412719
-0.0433907
-0.0453959
-0.04727
-0.0489974
-0.0505645
-0.0519598
-0.0531734
-0.0541975
-0.0550255
-0.0556523
-0.0560741
-0.0562876
-0.0562907
-0.0560821
-0.0556607
-0.0550263
-0.0541793
-0.0531207
-0.0518526
-0.0503782
-0.0487028
-0.0468337
-0.0447812
-0.0425594
-0.040187
-0.0376881
-0.0350928
-0.0324375
-0.0297653
-0.0271247
-0.0245686
-0.0221515
-0.0199267
-0.0179422
-0.0162369
-0.0148365
-0.0137515
-0.0129757
-0.012487
-0.0122506
-0.0122224
-0.0123543
-0.0125982
-0.0129099
-0.0132515
-0.0135911
-0.0139035
-0.0141823
-0.0144337
-0.00191632
-0.00237231
-0.00268754
-0.00294022
-0.0031968
-0.00348292
-0.00382031
-0.00422879
-0.00472473
-0.00532188
-0.00603227
-0.00686659
-0.00783421
-0.00894308
-0.0101994
-0.0116074
-0.0131686
-0.0148819
-0.0167432
-0.018745
-0.0208769
-0.0231251
-0.025473
-0.0279014
-0.0303888
-0.0329123
-0.0354475
-0.03797
-0.040455
-0.0428789
-0.0452189
-0.0474538
-0.0495646
-0.051534
-0.0533472
-0.0549914
-0.0564558
-0.0577317
-0.058812
-0.0596913
-0.0603652
-0.0608305
-0.0610847
-0.0611261
-0.0609532
-0.0605652
-0.0599612
-0.059141
-0.0581044
-0.0568519
-0.0553848
-0.0537057
-0.0518187
-0.0497307
-0.0474516
-0.0449959
-0.0423833
-0.03964
-0.0367992
-0.0339023
-0.030998
-0.0281421
-0.025395
-0.0228189
-0.0204735
-0.0184113
-0.0166727
-0.0152813
-0.0142421
-0.0135401
-0.0131428
-0.0130044
-0.0130708
-0.0132858
-0.0135963
-0.0139554
-0.0143234
-0.0146688
-0.0149831
-0.0152732
-0.00275297
-0.00320809
-0.00352632
-0.00378717
-0.00405834
-0.00436673
-0.00473502
-0.0051838
-0.0057301
-0.00638825
-0.00717077
-0.0080887
-0.00915168
-0.0103677
-0.0117427
-0.0132804
-0.0149817
-0.0168444
-0.0188629
-0.0210282
-0.023328
-0.0257464
-0.0282649
-0.030862
-0.0335142
-0.0361965
-0.0388831
-0.041548
-0.0441655
-0.0467111
-0.0491618
-0.0514966
-0.0536966
-0.0557454
-0.0576288
-0.059335
-0.0608545
-0.0621796
-0.0633043
-0.0642242
-0.064936
-0.0654372
-0.065726
-0.0658013
-0.065662
-0.0653071
-0.064736
-0.0639476
-0.0629412
-0.0617159
-0.0602714
-0.058608
-0.0567271
-0.0546319
-0.0523286
-0.0498268
-0.0471413
-0.0442931
-0.0413111
-0.0382325
-0.0351041
-0.0319819
-0.0289296
-0.0260163
-0.0233122
-0.0208834
-0.0187858
-0.0170592
-0.0157224
-0.0147716
-0.0141801
-0.0139026
-0.0138809
-0.0140511
-0.0143501
-0.0147213
-0.0151159
-0.0154948
-0.0158468
-0.0161792
-0.00368741
-0.00413747
-0.00445668
-0.00472504
-0.00501093
-0.00534223
-0.00574244
-0.0062328
-0.00683089
-0.00755149
-0.00840754
-0.00941037
-0.0105697
-0.0118935
-0.0133875
-0.0150546
-0.0168947
-0.0189046
-0.0210771
-0.0234015
-0.0258634
-0.028445
-0.0311253
-0.0338808
-0.0366861
-0.0395143
-0.042338
-0.04513
-0.0478638
-0.0505146
-0.0530592
-0.0554769
-0.0577496
-0.0598615
-0.0617996
-0.0635533
-0.0651141
-0.0664757
-0.0676333
-0.0685834
-0.0693239
-0.0698531
-0.0701701
-0.0702742
-0.070165
-0.0698417
-0.0693036
-0.0685496
-0.0675784
-0.0663885
-0.0649781
-0.0633458
-0.0614906
-0.0594127
-0.0571144
-0.0546009
-0.0518816
-0.048972
-0.0458948
-0.0426822
-0.0393763
-0.0360307
-0.0327096
-0.0294861
-0.0264387
-0.0236457
-0.0211788
-0.0190953
-0.0174316
-0.0161981
-0.0153783
-0.0149308
-0.0147957
-0.0149021
-0.0151774
-0.0155538
-0.0159721
-0.0163846
-0.0167762
-0.0171545
-0.0047159
-0.00515672
-0.00547481
-0.00574992
-0.00605041
-0.00640498
-0.00683776
-0.00737051
-0.00802118
-0.00880497
-0.00973509
-0.0108231
-0.0120787
-0.0135097
-0.0151212
-0.0169156
-0.0188917
-0.0210448
-0.0233661
-0.0258431
-0.0284592
-0.0311945
-0.0340259
-0.0369277
-0.0398726
-0.042832
-0.0457772
-0.0486799
-0.0515133
-0.0542521
-0.0568737
-0.0593577
-0.0616868
-0.0638463
-0.0658245
-0.0676119
-0.0692014
-0.0705878
-0.0717675
-0.0727383
-0.0734988
-0.0740485
-0.0743872
-0.0745149
-0.0744315
-0.0741369
-0.0736304
-0.0729111
-0.0719776
-0.0708277
-0.069459
-0.0678688
-0.0660542
-0.0640129
-0.061744
-0.0592483
-0.0565305
-0.0535999
-0.050473
-0.0471749
-0.0437419
-0.0402224
-0.036678
-0.0331826
-0.0298198
-0.026678
-0.0238435
-0.0213918
-0.0193785
-0.0178325
-0.0167514
-0.0161021
-0.015826
-0.0158474
-0.0160841
-0.016457
-0.0168951
-0.0173403
-0.0177733
-0.0182011
-0.00583299
-0.00626044
-0.00657528
-0.00685622
-0.00717098
-0.00754886
-0.00801445
-0.00858983
-0.00929326
-0.0101402
-0.0111441
-0.0123164
-0.013667
-0.0152032
-0.0169296
-0.0188476
-0.020955
-0.0232455
-0.0257085
-0.0283297
-0.0310903
-0.0339682
-0.0369382
-0.0399727
-0.0430424
-0.0461174
-0.0491677
-0.0521646
-0.0550806
-0.0578909
-0.060573
-0.0631075
-0.0654779
-0.0676709
-0.0696759
-0.0714847
-0.0730915
-0.0744924
-0.0756849
-0.0766678
-0.0774409
-0.0780043
-0.0783586
-0.0785045
-0.0784425
-0.0781729
-0.0776955
-0.0770095
-0.0761135
-0.0750055
-0.0736824
-0.0721409
-0.0703768
-0.0683861
-0.066165
-0.0637111
-0.0610242
-0.0581082
-0.0549729
-0.0516363
-0.0481268
-0.044486
-0.0407698
-0.0370498
-0.0334109
-0.0299483
-0.0267607
-0.0239406
-0.0215645
-0.0196823
-0.0183101
-0.0174276
-0.0169817
-0.0168945
-0.0170758
-0.0174347
-0.0178873
-0.0183638
-0.0188392
-0.0193199
-0.0070316
-0.00744169
-0.00775112
-0.00803683
-0.00836529
-0.00876614
-0.00926432
-0.00988205
-0.0106378
-0.011547
-0.0126234
-0.0138783
-0.0153214
-0.0169595
-0.0187967
-0.0208333
-0.0230657
-0.0254861
-0.0280823
-0.0308376
-0.0337315
-0.0367395
-0.0398346
-0.042987
-0.0461661
-0.0493407
-0.0524799
-0.0555544
-0.0585369
-0.0614027
-0.0641301
-0.0667007
-0.069099
-0.0713129
-0.0733331
-0.0751528
-0.0767674
-0.0781741
-0.0793716
-0.0803597
-0.0811388
-0.0817101
-0.0820747
-0.0822339
-0.0821889
-0.0819403
-0.0814885
-0.080833
-0.0799728
-0.0789058
-0.0776293
-0.0761393
-0.0744313
-0.0724998
-0.0703392
-0.0679444
-0.0653114
-0.0624392
-0.0593312
-0.0559981
-0.0524601
-0.0487501
-0.0449164
-0.0410247
-0.0371578
-0.0334137
-0.0298997
-0.0267237
-0.0239823
-0.0217485
-0.0200605
-0.0189157
-0.0182711
-0.0180504
-0.0181574
-0.01849
-0.0189504
-0.0194559
-0.0199745
-0.020511
-0.0083032
-0.0086921
-0.00899396
-0.00928322
-0.00962452
-0.0100477
-0.0105777
-0.011237
-0.0120438
-0.0130138
-0.0141605
-0.0154953
-0.0170273
-0.018763
-0.0207055
-0.0228541
-0.0252039
-0.0277455
-0.0304647
-0.033343
-0.0363577
-0.0394825
-0.0426882
-0.0459436
-0.0492166
-0.0524748
-0.055687
-0.0588236
-0.0618574
-0.0647643
-0.0675234
-0.0701173
-0.0725318
-0.074756
-0.0767819
-0.0786039
-0.0802186
-0.0816242
-0.0828206
-0.0838081
-0.0845882
-0.0851625
-0.0855329
-0.0857012
-0.085669
-0.0854375
-0.0850074
-0.0843789
-0.0835513
-0.082523
-0.0812914
-0.0798527