/*--------------------------------*- C++ -*----------------------------------*\
  =========                 |
  \\      /  F ield         | OpenFOAM: The Open Source CFD Toolbox
   \\    /   O peration     | Website:  https://openfoam.org
    \\  /    A nd           | Version:  7
     \\/     M anipulation  |
\*---------------------------------------------------------------------------*/
FoamFile
{
    version     2.0;
    format      ascii;
    class       volVectorField;
    location    "2.3";
    object      U;
}
// * * * * * * * * * * * * * * * * * * * * * * * * * * * * * * * * * * * * * //

dimensions      [0 1 -1 0 0 0 0];

internalField   nonuniform List<vector> 
6400
(
(1.10706e-05 -1.03802e-05 0)
(6.97691e-05 -3.61625e-05 0)
(0.000175558 -4.66033e-05 0)
(0.000286434 -4.49569e-05 0)
(0.000378807 -3.69311e-05 0)
(0.000441358 -2.61003e-05 0)
(0.000468852 -1.44478e-05 0)
(0.000459669 -3.0006e-06 0)
(0.00041421 7.79914e-06 0)
(0.000333766 1.7843e-05 0)
(0.000219828 2.72139e-05 0)
(7.37e-05 3.6082e-05 0)
(-0.000103689 4.4646e-05 0)
(-0.000311843 5.31001e-05 0)
(-0.000550666 6.16095e-05 0)
(-0.000820381 7.03015e-05 0)
(-0.00112142 7.9259e-05 0)
(-0.00145428 8.85205e-05 0)
(-0.00181942 9.80793e-05 0)
(-0.00221709 0.000107887 0)
(-0.00264726 0.000117854 0)
(-0.00310945 0.000127856 0)
(-0.00360265 0.000137734 0)
(-0.00412524 0.000147296 0)
(-0.00467488 0.000156318 0)
(-0.00524844 0.000164554 0)
(-0.00584197 0.000171734 0)
(-0.00645064 0.000177569 0)
(-0.00706874 0.000181756 0)
(-0.00768966 0.000183989 0)
(-0.00830595 0.000183966 0)
(-0.00890937 0.000181394 0)
(-0.00949099 0.000176009 0)
(-0.0100413 0.000167581 0)
(-0.0105504 0.000155928 0)
(-0.0110081 0.000140931 0)
(-0.0114043 0.000122546 0)
(-0.011729 0.000100815 0)
(-0.011973 7.5875e-05 0)
(-0.0121276 4.79546e-05 0)
(-0.0121855 1.74087e-05 0)
(-0.0121404 -1.51285e-05 0)
(-0.0119879 -4.92875e-05 0)
(-0.0117255 -8.43662e-05 0)
(-0.0113529 -0.000119581 0)
(-0.0108721 -0.000154099 0)
(-0.0102874 -0.000187049 0)
(-0.00960575 -0.00021755 0)
(-0.00883635 -0.000244737 0)
(-0.00799082 -0.000267805 0)
(-0.00708282 -0.000286036 0)
(-0.00612779 -0.000298845 0)
(-0.00514251 -0.000305803 0)
(-0.00414472 -0.000306666 0)
(-0.00315253 -0.000301395 0)
(-0.00218388 -0.000290155 0)
(-0.00125601 -0.00027332 0)
(-0.000384749 -0.000251501 0)
(0.000415645 -0.000225558 0)
(0.00113274 -0.000195733 0)
(0.00175719 -0.000163764 0)
(0.00228236 -0.00013027 0)
(0.00270401 -9.62222e-05 0)
(0.00302076 -6.25593e-05 0)
(0.00323384 -3.01029e-05 0)
(0.00334683 4.57839e-07 0)
(0.00336531 2.85799e-05 0)
(0.00329647 5.38705e-05 0)
(0.00314883 7.60739e-05 0)
(0.00293186 9.50364e-05 0)
(0.0026558 0.000110654 0)
(0.00233159 0.000122787 0)
(0.00197111 0.000131145 0)
(0.0015876 0.000135117 0)
(0.00119661 0.000133561 0)
(0.000817281 0.000124573 0)
(0.000473783 0.000105384 0)
(0.000195886 7.24988e-05 0)
(1.83139e-05 2.4342e-05 0)
(-2.03871e-05 -2.05068e-05 0)
(3.72485e-05 -6.92906e-05 0)
(0.000168087 -0.000166246 0)
(0.000366654 -0.000198662 0)
(0.00055917 -0.000182207 0)
(0.000701644 -0.000136165 0)
(0.000769983 -7.43428e-05 0)
(0.00075055 -5.5996e-06 0)
(0.000636995 6.47731e-05 0)
(0.000427676 0.000134016 0)
(0.00012347 0.000200989 0)
(-0.000273727 0.000265572 0)
(-0.000761947 0.000328205 0)
(-0.00133966 0.000389572 0)
(-0.00200595 0.000450405 0)
(-0.00276054 0.000511336 0)
(-0.00360361 0.000572821 0)
(-0.00453555 0.000635093 0)
(-0.00555666 0.000698136 0)
(-0.00666687 0.000761683 0)
(-0.00786536 0.000825228 0)
(-0.00915031 0.000888032 0)
(-0.0105186 0.000949146 0)
(-0.0119655 0.00100743 0)
(-0.0134846 0.00106156 0)
(-0.0150674 0.00111009 0)
(-0.0167034 0.00115145 0)
(-0.01838 0.00118398 0)
(-0.0200823 0.00120599 0)
(-0.0217932 0.00121578 0)
(-0.0234935 0.0012117 0)
(-0.0251624 0.00119221 0)
(-0.0267771 0.00115592 0)
(-0.0283136 0.00110168 0)
(-0.0297471 0.00102861 0)
(-0.0310522 0.000936178 0)
(-0.0322035 0.000824257 0)
(-0.0331764 0.00069317 0)
(-0.0339472 0.000543739 0)
(-0.0344946 0.000377307 0)
(-0.0347993 0.00019574 0)
(-0.0348454 1.4741e-06 0)
(-0.0346207 -0.000202242 0)
(-0.0341173 -0.000412214 0)
(-0.0333321 -0.000624528 0)
(-0.0322671 -0.0008349 0)
(-0.0309299 -0.00103882 0)
(-0.0293336 -0.00123166 0)
(-0.0274968 -0.00140881 0)
(-0.0254437 -0.00156584 0)
(-0.0232032 -0.00169864 0)
(-0.0208091 -0.00180363 0)
(-0.0182988 -0.00187786 0)
(-0.0157128 -0.0019192 0)
(-0.0130935 -0.00192642 0)
(-0.0104842 -0.0018993 0)
(-0.00792809 -0.00183862 0)
(-0.00546669 -0.00174622 0)
(-0.00313893 -0.00162491 0)
(-0.000979508 -0.00147853 0)
(0.000979777 -0.00131114 0)
(0.00271386 -0.00112762 0)
(0.00420477 -0.00093322 0)
(0.00543914 -0.000733175 0)
(0.00641052 -0.000532535 0)
(0.00711884 -0.000336012 0)
(0.0075698 -0.000147806 0)
(0.00777443 2.85061e-05 0)
(0.00774836 0.000190007 0)
(0.00751115 0.000334391 0)
(0.0070857 0.000459827 0)
(0.0064978 0.000564718 0)
(0.00577602 0.000647355 0)
(0.00495193 0.000705446 0)
(0.00406084 0.000735556 0)
(0.00314304 0.000732501 0)
(0.00224525 0.000688983 0)
(0.00142105 0.00059601 0)
(0.000729056 0.000444821 0)
(0.000236759 0.0002355 0)
(2.49312e-05 1.84996e-05 0)
(4.85173e-05 -0.000177602 0)
(0.000201576 -0.000365843 0)
(0.000411509 -0.000411129 0)
(0.000588896 -0.000352706 0)
(0.000681232 -0.000227186 0)
(0.000658738 -6.26042e-05 0)
(0.000503204 0.000121644 0)
(0.000204982 0.000313076 0)
(-0.000239703 0.000504639 0)
(-0.000831271 0.00069297 0)
(-0.00156854 0.00087712 0)
(-0.00244992 0.00105757 0)
(-0.00347405 0.00123549 0)
(-0.00464004 0.00141223 0)
(-0.0059475 0.00158894 0)
(-0.00739628 0.00176634 0)
(-0.00898612 0.00194463 0)
(-0.0107163 0.00212334 0)
(-0.012585 0.00230139 0)
(-0.0145893 0.00247706 0)
(-0.0167241 0.00264803 0)
(-0.0189823 0.00281145 0)
(-0.0213541 0.00296398 0)
(-0.0238271 0.00310188 0)
(-0.0263854 0.0032211 0)
(-0.0290105 0.00331733 0)
(-0.0316804 0.00338619 0)
(-0.0343699 0.00342324 0)
(-0.037051 0.0034242 0)
(-0.039693 0.00338506 0)
(-0.0422626 0.00330218 0)
(-0.044725 0.00317252 0)
(-0.0470438 0.00299372 0)
(-0.049182 0.00276428 0)
(-0.0511029 0.00248368 0)
(-0.0527703 0.00215249 0)
(-0.0541498 0.00177248 0)
(-0.0552096 0.00134669 0)
(-0.0559212 0.00087945 0)
(-0.0562601 0.000376362 0)
(-0.0562068 -0.000155699 0)
(-0.0557474 -0.000708517 0)
(-0.0548742 -0.00127299 0)
(-0.0535864 -0.00183908 0)
(-0.0518901 -0.00239603 0)
(-0.0497989 -0.00293265 0)
(-0.0473336 -0.00343759 0)
(-0.0445225 -0.00389967 0)
(-0.0414009 -0.00430821 0)
(-0.0380104 -0.00465344 0)
(-0.0343988 -0.00492679 0)
(-0.0306184 -0.00512127 0)
(-0.0267258 -0.00523179 0)
(-0.02278 -0.00525538 0)
(-0.0188413 -0.00519139 0)
(-0.0149699 -0.00504159 0)
(-0.0112246 -0.00481015 0)
(-0.0076606 -0.00450355 0)
(-0.00432869 -0.00413045 0)
(-0.00127427 -0.00370167 0)
(0.00146461 -0.00322784 0)
(0.00385818 -0.0027221 0)
(0.00588463 -0.00219753 0)
(0.00753097 -0.00166689 0)
(0.008793 -0.0011424 0)
(0.00967499 -0.000635296 0)
(0.0101891 -0.000155518 0)
(0.0103549 0.000288394 0)
(0.0101981 0.000689257 0)
(0.00975032 0.00104096 0)
(0.00904833 0.001338 0)
(0.00813371 0.00157475 0)
(0.00705295 0.00174454 0)
(0.00585801 0.00183873 0)
(0.00460712 0.0018458 0)
(0.00336582 0.00175128 0)
(0.00220603 0.00153933 0)
(0.00120315 0.0011974 0)
(0.000449254 0.000729127 0)
(7.40166e-05 0.000198019 0)
(4.70464e-05 -0.000291115 0)
(0.000180931 -0.00055606 0)
(0.000336975 -0.000585857 0)
(0.00042257 -0.000450477 0)
(0.000383571 -0.000206208 0)
(0.00018892 0.000103746 0)
(-0.000180925 0.000448716 0)
(-0.000736922 0.000808591 0)
(-0.00148403 0.00117145 0)
(-0.00242386 0.00153125 0)
(-0.00355625 0.00188589 0)
(-0.0048804 0.00223562 0)
(-0.0063955 0.00258185 0)
(-0.00810092 0.00292628 0)
(-0.00999612 0.00327027 0)
(-0.0120804 0.00361445 0)
(-0.0143523 0.00395844 0)
(-0.0168094 0.00430077 0)
(-0.0194475 0.00463879 0)
(-0.02226 0.00496876 0)
(-0.0252378 0.00528589 0)
(-0.0283687 0.00558443 0)
(-0.0316367 0.00585783 0)
(-0.0350222 0.00609891 0)
(-0.0385017 0.0063 0)
(-0.0420478 0.00645318 0)
(-0.0456289 0.00655044 0)
(-0.0492101 0.00658398 0)
(-0.052753 0.00654642 0)
(-0.0562163 0.00643104 0)
(-0.0595566 0.00623209 0)
(-0.062729 0.005945 0)
(-0.0656874 0.00556663 0)
(-0.0683864 0.00509552 0)
(-0.0707811 0.00453204 0)
(-0.0728288 0.00387855 0)
(-0.0744895 0.00313953 0)
(-0.0757271 0.00232165 0)
(-0.0765102 0.00143375 0)
(-0.0768129 0.000486752 0)
(-0.0766153 -0.000506424 0)
(-0.0759045 -0.0015309 0)
(-0.0746752 -0.00257022 0)
(-0.0729298 -0.00360663 0)
(-0.0706788 -0.00462144 0)
(-0.0679411 -0.00559538 0)
(-0.0647437 -0.00650908 0)
(-0.0611218 -0.00734361 0)
(-0.0571184 -0.00808098 0)
(-0.0527836 -0.00870473 0)
(-0.0481741 -0.00920045 0)
(-0.043352 -0.00955634 0)
(-0.0383839 -0.00976371 0)
(-0.0333398 -0.00981734 0)
(-0.0282913 -0.00971584 0)
(-0.0233101 -0.00946182 0)
(-0.018467 -0.00906189 0)
(-0.0138292 -0.00852657 0)
(-0.00945956 -0.00786999 0)
(-0.00541486 -0.00710955 0)
(-0.00174413 -0.00626463 0)
(0.00151234 -0.00535686 0)
(0.00432379 -0.00440877 0)
(0.00666971 -0.00344297 0)
(0.00853994 -0.0024814 0)
(0.00993474 -0.00154466 0)
(0.0108644 -0.00065149 0)
(0.0113486 0.000181515 0)
(0.0114158 0.000939877 0)
(0.0111023 0.00161093 0)
(0.0104518 0.00218309 0)
(0.00951464 0.00264489 0)
(0.00834791 0.00298366 0)
(0.0070153 0.0031843 0)
(0.00558766 0.00322827 0)
(0.00414356 0.00309364 0)
(0.00276785 0.00275746 0)
(0.00154911 0.00220145 0)
(0.000602751 0.00142502 0)
(0.000107631 0.000479839 0)
(3.75274e-05 -0.00038237 0)
(0.000120802 -0.0006822 0)
(0.000168908 -0.0006537 0)
(9.82403e-05 -0.000398991 0)
(-0.000141072 5.36415e-06 0)
(-0.000578156 0.000501361 0)
(-0.0012311 0.00104767 0)
(-0.00211028 0.00161712 0)
(-0.00322088 0.00219328 0)
(-0.00456515 0.00276758 0)
(-0.00614378 0.00333669 0)
(-0.00795683 0.00390048 0)
(-0.0100041 0.00446029 0)
(-0.0122853 0.00501777 0)
(-0.0147996 0.00557397 0)
(-0.0175453 0.00612879 0)
(-0.0205196 0.00668061 0)
(-0.0237173 0.00722614 0)
(-0.0271312 0.00776036 0)
(-0.0307504 0.0082766 0)
(-0.0345607 0.00876665 0)
(-0.0385437 0.00922097 0)
(-0.0426768 0.00962894 0)
(-0.0469327 0.00997908 0)
(-0.0512795 0.0102594 0)
(-0.0556809 0.0104579 0)
(-0.0600965 0.0105624 0)
(-0.0644819 0.0105616 0)
(-0.0687897 0.010445 0)
(-0.0729699 0.0102034 0)
(-0.0769707 0.00982954 0)
(-0.0807396 0.00931785 0)
(-0.0842241 0.00866533 0)
(-0.087373 0.00787154 0)
(-0.090137 0.00693889 0)
(-0.0924699 0.00587273 0)
(-0.0943297 0.00468149 0)
(-0.0956791 0.00337666 0)
(-0.0964864 0.00197279 0)
(-0.0967266 0.000487209 0)
(-0.0963813 -0.00106025 0)
(-0.0954398 -0.00264697 0)
(-0.0938993 -0.0042485 0)
(-0.0917655 -0.00583876 0)
(-0.0890524 -0.00739056 0)
(-0.0857823 -0.00887608 0)
(-0.0819864 -0.0102676 0)
(-0.077704 -0.0115379 0)
(-0.0729824 -0.0126615 0)
(-0.0678766 -0.0136148 0)
(-0.0624483 -0.014377 0)
(-0.0567652 -0.0149312 0)
(-0.0509002 -0.0152644 0)
(-0.0449299 -0.0153688 0)
(-0.0389334 -0.0152417 0)
(-0.0329906 -0.0148859 0)
(-0.0271808 -0.0143102 0)
(-0.0215807 -0.0135287 0)
(-0.0162628 -0.0125609 0)
(-0.0112938 -0.011431 0)
(-0.00673269 -0.010167 0)
(-0.00262963 -0.00879996 0)
(0.000975431 -0.00736258 0)
(0.00405355 -0.00588849 0)
(0.00658735 -0.00441078 0)
(0.00857123 -0.00296112 0)
(0.0100113 -0.00156894 0)
(0.0109249 -0.000260943 0)
(0.0113402 0.000939032 0)
(0.0112951 0.00200967 0)
(0.010837 0.0029314 0)
(0.0100216 0.00368519 0)
(0.00891287 0.00425104 0)
(0.00758266 0.00460649 0)
(0.0061107 0.00472541 0)
(0.00458511 0.00457804 0)
(0.00310099 0.00413307 0)
(0.00175882 0.00336286 0)
(0.000694704 0.00225366 0)
(0.000126642 0.000827995 0)
(2.27989e-05 -0.000433843 0)
(3.15219e-05 -0.000704806 0)
(-7.26749e-05 -0.000562413 0)
(-0.000353968 -0.000138651 0)
(-0.000852532 0.000470739 0)
(-0.00159264 0.00119424 0)
(-0.00258867 0.00198134 0)
(-0.0038487 0.00279886 0)
(-0.00537704 0.00362681 0)
(-0.00717591 0.00445462 0)
(-0.00924655 0.00527802 0)
(-0.0115897 0.00609638 0)
(-0.0142057 0.00691071 0)
(-0.0170942 0.00772212 0)
(-0.020254 0.0085307 0)
(-0.0236823 0.00933487 0)
(-0.0273739 0.0101309 0)
(-0.0313208 0.0109129 0)
(-0.0355116 0.0116724 0)
(-0.0399307 0.0123989 0)
(-0.044558 0.0130799 0)
(-0.0493686 0.0137013 0)
(-0.0543324 0.0142476 0)
(-0.0594144 0.0147025 0)
(-0.0645744 0.0150493 0)
(-0.0697679 0.0152713 0)
(-0.0749461 0.0153527 0)
(-0.0800566 0.0152786 0)
(-0.0850446 0.0150359 0)
(-0.0898531 0.0146137 0)
(-0.0944247 0.0140037 0)
(-0.0987017 0.0132005 0)
(-0.102628 0.0122024 0)
(-0.106149 0.0110109 0)
(-0.109215 0.00963177 0)
(-0.111778 0.0080743 0)
(-0.113796 0.00635187 0)
(-0.115233 0.0044817 0)
(-0.116059 0.00248475 0)
(-0.11625 0.00038533 0)
(-0.11579 -0.00178964 0)
(-0.11467 -0.00400927 0)
(-0.11289 -0.00624099 0)
(-0.110456 -0.00845038 0)
(-0.107385 -0.0106017 0)
(-0.103701 -0.0126588 0)
(-0.0994357 -0.0145852 0)
(-0.09463 -0.0163459 0)
(-0.089333 -0.0179071 0)
(-0.0836012 -0.0192381 0)
(-0.0774984 -0.0203115 0)
(-0.0710951 -0.0211045 0)
(-0.0644673 -0.0215993 0)
(-0.057696 -0.0217847 0)
(-0.0508651 -0.0216559 0)
(-0.0440606 -0.0212152 0)
(-0.0373687 -0.0204726 0)
(-0.0308742 -0.0194453 0)
(-0.024658 -0.0181575 0)
(-0.0187961 -0.01664 0)
(-0.0133573 -0.0149289 0)
(-0.00840145 -0.013065 0)
(-0.00397808 -0.0110918 0)
(-0.000125316 -0.00905468 0)
(0.00313116 -0.00699883 0)
(0.00577849 -0.00496833 0)
(0.00781696 -0.00300498 0)
(0.00925972 -0.00114729 0)
(0.0101324 0.00056965 0)
(0.0104722 0.00211398 0)
(0.0103277 0.00345633 0)
(0.00975746 0.00456856 0)
(0.00882964 0.00542202 0)
(0.00762153 0.00598584 0)
(0.00621932 0.00622552 0)
(0.00471856 0.00610244 0)
(0.00322296 0.00557516 0)
(0.00184362 0.00460305 0)
(0.000732929 0.00315293 0)
(0.000134217 0.00121033 0)
(4.3931e-06 -0.000432492 0)
(-8.02484e-05 -0.000591871 0)
(-0.000373201 -0.000267986 0)
(-0.000910759 0.000381883 0)
(-0.00171871 0.00124481 0)
(-0.00281375 0.00223817 0)
(-0.00420444 0.00330437 0)
(-0.00589508 0.00440608 0)
(-0.00788804 0.00552103 0)
(-0.0101849 0.00663757 0)
(-0.0127869 0.00775089 0)
(-0.0156953 0.00885996 0)
(-0.0189105 0.00996514 0)
(-0.0224322 0.0110665 0)
(-0.0262582 0.0121623 0)
(-0.030384 0.0132489 0)
(-0.0348018 0.0143194 0)
(-0.0395002 0.0153641 0)
(-0.044463 0.0163705 0)
(-0.0496692 0.0173232 0)
(-0.0550926 0.0182048 0)
(-0.0607014 0.0189956 0)
(-0.066458 0.0196749 0)
(-0.07232 0.0202214 0)
(-0.0782395 0.0206133 0)
(-0.0841645 0.0208299 0)
(-0.0900392 0.0208515 0)
(-0.0958049 0.0206606 0)
(-0.101401 0.0202421 0)
(-0.106767 0.0195844 0)
(-0.11184 0.0186792 0)
(-0.116562 0.0175224 0)
(-0.120874 0.0161145 0)
(-0.124722 0.0144604 0)
(-0.128056 0.0125695 0)
(-0.130829 0.0104563 0)
(-0.133002 0.00813952 0)
(-0.134538 0.0056425 0)
(-0.135411 0.00299282 0)
(-0.135598 0.000221825 0)
(-0.135085 -0.00263669 0)
(-0.133862 -0.00554368 0)
(-0.131931 -0.00845883 0)
(-0.129299 -0.0113397 0)
(-0.125981 -0.0141426 0)
(-0.121999 -0.0168227 0)
(-0.117387 -0.0193357 0)
(-0.112183 -0.021638 0)
(-0.106434 -0.0236881 0)
(-0.100198 -0.0254475 0)
(-0.0935366 -0.0268816 0)
(-0.0865218 -0.027961 0)
(-0.0792308 -0.0286626 0)
(-0.0717469 -0.0289703 0)
(-0.0641577 -0.0288765 0)
(-0.0565542 -0.0283817 0)
(-0.0490287 -0.0274961 0)
(-0.0416731 -0.0262389 0)
(-0.0345771 -0.0246383 0)
(-0.0278257 -0.022731 0)
(-0.0214976 -0.020561 0)
(-0.0156631 -0.0181784 0)
(-0.0103819 -0.0156379 0)
(-0.00570212 -0.0129969 0)
(-0.00165878 -0.0103138 0)
(0.00172686 -0.0076463 0)
(0.00444791 -0.00504972 0)
(0.0065119 -0.00257609 0)
(0.0079403 -0.000273448 0)
(0.00876809 0.00181409 0)
(0.00904299 0.0036457 0)
(0.00882455 0.00518254 0)
(0.00818337 0.00638599 0)
(0.00720037 0.00721562 0)
(0.00596656 0.00762747 0)
(0.00458344 0.00757284 0)
(0.00316192 0.00699843 0)
(0.00182208 0.00584808 0)
(0.000727379 0.00406616 0)
(0.000133268 0.00160016 0)
(-1.7008e-05 -0.000367955 0)
(-0.000210485 -0.0003167 0)
(-0.000722029 0.000267622 0)
(-0.00155382 0.00120668 0)
(-0.00271361 0.00237458 0)
(-0.00420744 0.00368078 0)
(-0.00603626 0.00506339 0)
(-0.00819929 0.00648316 0)
(-0.010696 0.0079173 0)
(-0.0135268 0.00935419 0)
(-0.0166925 0.0107891 0)
(-0.0201942 0.0122206 0)
(-0.0240326 0.0136483 0)
(-0.0282065 0.0150705 0)
(-0.0327125 0.0164832 0)
(-0.0375441 0.0178792 0)
(-0.0426903 0.0192478 0)
(-0.0481355 0.0205747 0)
(-0.0538587 0.0218422 0)
(-0.0598331 0.0230293 0)
(-0.0660262 0.0241129 0)
(-0.0723992 0.0250675 0)
(-0.0789079 0.0258671 0)
(-0.0855024 0.0264848 0)
(-0.0921287 0.0268947 0)
(-0.0987283 0.027072 0)
(-0.10524 0.0269942 0)
(-0.111601 0.0266418 0)
(-0.117748 0.025999 0)
(-0.123616 0.0250543 0)
(-0.129143 0.0238006 0)
(-0.134269 0.0222364 0)
(-0.138937 0.0203649 0)
(-0.143094 0.0181952 0)
(-0.146691 0.0157413 0)
(-0.149683 0.0130227 0)
(-0.152034 0.0100639 0)
(-0.153708 0.00689415 0)
(-0.154681 0.00354703 0)
(-0.154931 6.0517e-05 0)
(-0.154442 -0.003523 0)
(-0.153207 -0.00715947 0)
(-0.151223 -0.0108011 0)
(-0.148498 -0.014398 0)
(-0.145043 -0.0178984 0)
(-0.140878 -0.0212499 0)
(-0.136033 -0.0243999 0)
(-0.130542 -0.0272967 0)
(-0.124451 -0.0298905 0)
(-0.117813 -0.0321346 0)
(-0.110689 -0.0339866 0)
(-0.103148 -0.0354097 0)
(-0.0952697 -0.036374 0)
(-0.0871367 -0.0368577 0)
(-0.07884 -0.0368486 0)
(-0.0704748 -0.0363443 0)
(-0.062139 -0.0353538 0)
(-0.053932 -0.0338968 0)
(-0.0459521 -0.0320047 0)
(-0.0382942 -0.029719 0)
(-0.0310474 -0.027091 0)
(-0.0242932 -0.02418 0)
(-0.0181026 -0.0210519 0)
(-0.0125348 -0.0177767 0)
(-0.0076353 -0.0144267 0)
(-0.00343487 -0.0110741 0)
(5.12404e-05 -0.00778911 0)
(0.00282362 -0.00463885 0)
(0.00489842 -0.0016859 0)
(0.006307 0.00101172 0)
(0.00709509 0.00340007 0)
(0.00732188 0.00542811 0)
(0.00705911 0.00704583 0)
(0.00639017 0.00820203 0)
(0.00540976 0.00884207 0)
(0.00422414 0.00890601 0)
(0.00295016 0.00832744 0)
(0.00171492 0.00703352 0)
(0.000688043 0.00494577 0)
(0.000126266 0.00197687 0)
(-4.08032e-05 -0.000231782 0)
(-0.000355655 0.000142664 0)
(-0.00111114 0.00107553 0)
(-0.00226928 0.00237232 0)
(-0.00381574 0.00389921 0)
(-0.00574432 0.00556169 0)
(-0.00804671 0.00729696 0)
(-0.0107159 0.00906659 0)
(-0.0137476 0.0108493 0)
(-0.0171404 0.0126348 0)
(-0.0208944 0.0144191 0)
(-0.0250104 0.0162008 0)
(-0.0294882 0.0179781 0)
(-0.034326 0.0197472 0)
(-0.0395187 0.0215007 0)
(-0.0450568 0.0232273 0)
(-0.0509261 0.0249115 0)
(-0.0571066 0.0265332 0)
(-0.0635719 0.0280689 0)
(-0.0702896 0.0294915 0)
(-0.0772207 0.0307715 0)
(-0.0843202 0.0318779 0)
(-0.0915374 0.0327788 0)
(-0.0988169 0.0334428 0)
(-0.106099 0.0338398 0)
(-0.113321 0.0339421 0)
(-0.120418 0.0337253 0)
(-0.127325 0.033169 0)
(-0.133976 0.0322575 0)
(-0.140307 0.0309807 0)
(-0.146257 0.0293339 0)
(-0.151767 0.0273184 0)
(-0.156781 0.0249414 0)
(-0.16125 0.0222161 0)
(-0.165125 0.0191615 0)
(-0.168366 0.015802 0)
(-0.170937 0.0121675 0)
(-0.172804 0.00829252 0)
(-0.173943 0.00421626 0)
(-0.17433 -1.75621e-05 0)
(-0.173952 -0.00435878 0)
(-0.172797 -0.00875928 0)
(-0.170861 -0.0131645 0)
(-0.168146 -0.0175174 0)
(-0.16466 -0.0217594 0)
(-0.160419 -0.0258303 0)
(-0.155445 -0.0296697 0)
(-0.149771 -0.0332175 0)
(-0.143435 -0.0364155 0)
(-0.136486 -0.0392082 0)
(-0.128982 -0.0415444 0)
(-0.12099 -0.0433788 0)
(-0.112586 -0.0446734 0)
(-0.103854 -0.0453992 0)
(-0.0948879 -0.0455377 0)
(-0.085785 -0.0450821 0)
(-0.0766495 -0.0440381 0)
(-0.0675881 -0.042425 0)
(-0.0587079 -0.0402753 0)
(-0.0501145 -0.0376347 0)
(-0.0419086 -0.0345607 0)
(-0.034184 -0.0311218 0)
(-0.0270242 -0.0273947 0)
(-0.0205011 -0.0234625 0)
(-0.0146718 -0.0194121 0)
(-0.00957817 -0.0153313 0)
(-0.00524504 -0.0113068 0)
(-0.00168001 -0.00742197 0)
(0.00112665 -0.00375575 0)
(0.00320157 -0.000381751 0)
(0.00458753 0.00263135 0)
(0.00534248 0.00521873 0)
(0.0055384 0.00731756 0)
(0.00526039 0.00886453 0)
(0.00460602 0.00979324 0)
(0.00368541 0.0100315 0)
(0.00262009 0.0094992 0)
(0.00154235 0.00810674 0)
(0.000624024 0.00575439 0)
(0.00011522 0.00232529 0)
(-6.67588e-05 -1.68215e-05 0)
(-0.000513789 0.000804256 0)
(-0.00153399 0.00218085 0)
(-0.00304443 0.00390863 0)
(-0.00500576 0.0058505 0)
(-0.00739767 0.00791275 0)
(-0.0102012 0.0100357 0)
(-0.0134022 0.0121848 0)
(-0.0169922 0.0143426 0)
(-0.0209672 0.0165018 0)
(-0.0253262 0.0186598 0)
(-0.0300692 0.0208152 0)
(-0.0351952 0.0229647 0)
(-0.0407008 0.0251017 0)
(-0.0465789 0.0272147 0)
(-0.0528169 0.0292874 0)
(-0.0593968 0.0312982 0)
(-0.0662938 0.0332211 0)
(-0.0734764 0.0350257 0)
(-0.0809064 0.0366785 0)
(-0.0885391 0.0381438 0)
(-0.0963239 0.0393847 0)
(-0.104205 0.0403641 0)
(-0.112122 0.0410466 0)
(-0.120011 0.0413989 0)
(-0.127807 0.0413913 0)
(-0.135445 0.0409984 0)
(-0.142856 0.0402001 0)
(-0.149977 0.0389821 0)
(-0.156746 0.0373364 0)
(-0.163101 0.0352614 0)
(-0.168987 0.0327619 0)
(-0.174352 0.0298491 0)
(-0.179147 0.0265407 0)
(-0.183328 0.02286 0)
(-0.186856 0.0188363 0)
(-0.189695 0.0145039 0)
(-0.191815 0.00990239 0)
(-0.193187 0.00507575 0)
(-0.193789 7.26415e-05 0)
(-0.193603 -0.00505382 0)
(-0.192617 -0.0102479 0)
(-0.190822 -0.0154498 0)
(-0.188213 -0.0205967 0)
(-0.184794 -0.0256232 0)
(-0.180575 -0.0304623 0)
(-0.175572 -0.0350457 0)
(-0.169809 -0.0393052 0)
(-0.16332 -0.0431734 0)
(-0.156147 -0.0465856 0)
(-0.148342 -0.0494808 0)
(-0.139969 -0.0518041 0)
(-0.131101 -0.0535079 0)
(-0.121821 -0.0545543 0)
(-0.112221 -0.0549166 0)
(-0.102404 -0.0545813 0)
(-0.092478 -0.0535492 0)
(-0.0825573 -0.0518369 0)
(-0.0727583 -0.0494766 0)
(-0.0631977 -0.0465164 0)
(-0.0539889 -0.0430195 0)
(-0.0452394 -0.0390623 0)
(-0.037047 -0.0347326 0)
(-0.0294976 -0.0301269 0)
(-0.0226622 -0.0253473 0)
(-0.0165953 -0.0204987 0)
(-0.011333 -0.0156853 0)
(-0.00689246 -0.0110087 0)
(-0.00327167 -0.00656596 0)
(-0.000449751 -0.00244797 0)
(0.00161224 0.00126002 0)
(0.00297025 0.00447772 0)
(0.00369593 0.00712799 0)
(0.00387551 0.00913414 0)
(0.00360886 0.0104169 0)
(0.00300924 0.0108912 0)
(0.00220188 0.0104629 0)
(0.0013228 0.00902675 0)
(0.000543257 0.00646418 0)
(0.000101754 0.00263495 0)
(-9.46507e-05 0.000283171 0)
(-0.000682892 0.00168337 0)
(-0.0019846 0.00360485 0)
(-0.00386778 0.00583965 0)
(-0.00626566 0.00825333 0)
(-0.00914219 0.0107582 0)
(-0.0124668 0.0133022 0)
(-0.0162174 0.0158582 0)
(-0.0203806 0.0184149 0)
(-0.0249499 0.0209695 0)
(-0.0299226 0.0235218 0)
(-0.0352974 0.0260705 0)
(-0.0410722 0.0286105 0)
(-0.0472417 0.0311315 0)
(-0.0537961 0.0336174 0)
(-0.0607197 0.0360459 0)
(-0.0679902 0.0383888 0)
(-0.0755781 0.0406132 0)
(-0.0834469 0.0426818 0)
(-0.0915531 0.0445545 0)
(-0.099847 0.0461892 0)
(-0.108273 0.0475437 0)
(-0.116771 0.0485766 0)
(-0.125279 0.049249 0)
(-0.133729 0.0495256 0)
(-0.142056 0.0493756 0)
(-0.150193 0.048774 0)
(-0.158076 0.0477019 0)
(-0.16564 0.0461471 0)
(-0.172826 0.0441046 0)
(-0.179576 0.041576 0)
(-0.185838 0.0385701 0)
(-0.191563 0.035102 0)
(-0.196703 0.0311934 0)
(-0.201218 0.0268718 0)
(-0.20507 0.0221702 0)
(-0.208223 0.017127 0)
(-0.210647 0.0117855 0)
(-0.212313 0.00619372 0)
(-0.213196 0.000404177 0)
(-0.213276 -0.00552755 0)
(-0.212536 -0.0115395 0)
(-0.210963 -0.0175674 0)
(-0.208547 -0.0235432 0)
(-0.205284 -0.0293959 0)
(-0.201178 -0.0350515 0)
(-0.196238 -0.0404345 0)
(-0.190479 -0.0454682 0)
(-0.183928 -0.0500763 0)
(-0.17662 -0.0541841 0)
(-0.168599 -0.0577202 0)
(-0.159922 -0.0606186 0)
(-0.150659 -0.0628208 0)
(-0.140888 -0.0642778 0)
(-0.130703 -0.0649528 0)
(-0.120206 -0.0648233 0)
(-0.109509 -0.0638828 0)
(-0.0987332 -0.0621426 0)
(-0.0880046 -0.0596327 0)
(-0.0774512 -0.0564016 0)
(-0.0672001 -0.0525165 0)
(-0.0573738 -0.048061 0)
(-0.0480864 -0.0431337 0)
(-0.0394401 -0.0378444 0)
(-0.0315218 -0.0323115 0)
(-0.0244008 -0.0266578 0)
(-0.0181266 -0.0210071 0)
(-0.012728 -0.015481 0)
(-0.00821222 -0.0101965 0)
(-0.00456539 -0.00526406 0)
(-0.0017534 -0.000787438 0)
(0.000276949 0.00313583 0)
(0.00159647 0.00641264 0)
(0.00229206 0.00895158 0)
(0.00246554 0.0106596 0)
(0.00223279 0.011438 0)
(0.00172205 0.0111792 0)
(0.00107222 0.00976319 0)
(0.000452427 0.00705581 0)
(8.71728e-05 0.00289929 0)
(-0.000124221 0.000673447 0)
(-0.000860938 0.0027923 0)
(-0.00245708 0.00536389 0)
(-0.00472811 0.00818344 0)
(-0.00757774 0.0111257 0)
(-0.010953 0.014115 0)
(-0.014811 0.0171114 0)
(-0.0191209 0.0200991 0)
(-0.0238645 0.0230757 0)
(-0.029032 0.0260444 0)
(-0.0346189 0.029008 0)
(-0.0406225 0.0319655 0)
(-0.0470387 0.0349097 0)
(-0.0538602 0.0378262 0)
(-0.0610743 0.0406932 0)
(-0.0686615 0.0434819 0)
(-0.0765955 0.0461569 0)
(-0.0848422 0.048678 0)
(-0.0933602 0.0510008 0)
(-0.102102 0.0530786 0)
(-0.111012 0.0548636 0)
(-0.120033 0.0563088 0)
(-0.129101 0.0573693 0)
(-0.138152 0.0580039 0)
(-0.147119 0.058176 0)
(-0.155935 0.0578552 0)
(-0.164535 0.0570175 0)
(-0.172857 0.0556461 0)
(-0.180839 0.0537318 0)
(-0.188426 0.0512726 0)
(-0.195562 0.0482738 0)
(-0.202197 0.0447479 0)
(-0.208286 0.0407136 0)
(-0.213785 0.0361962 0)
(-0.218654 0.0312266 0)
(-0.222855 0.0258409 0)
(-0.226355 0.0200807 0)
(-0.229122 0.0139921 0)
(-0.231126 0.00762615 0)
(-0.232342 0.00103813 0)
(-0.232744 -0.00571266 0)
(-0.232313 -0.0125614 0)
(-0.231029 -0.0194398 0)
(-0.22888 -0.0262753 0)
(-0.225853 -0.0329916 0)
(-0.221945 -0.039509 0)
(-0.217157 -0.0457448 0)
(-0.211496 -0.0516145 0)
(-0.204979 -0.0570327 0)
(-0.197631 -0.0619145 0)
(-0.189489 -0.0661773 0)
(-0.180601 -0.0697432 0)
(-0.171029 -0.0725409 0)
(-0.160847 -0.074509 0)
(-0.150143 -0.075598 0)
(-0.13902 -0.0757737 0)
(-0.127592 -0.0750196 0)
(-0.115985 -0.0733389 0)
(-0.104333 -0.0707561 0)
(-0.0927767 -0.0673182 0)
(-0.0814562 -0.0630939 0)
(-0.0705109 -0.0581728 0)
(-0.0600729 -0.0526631 0)
(-0.050263 -0.0466883 0)
(-0.041187 -0.0403834 0)
(-0.0329319 -0.0338906 0)
(-0.0255632 -0.027355 0)
(-0.0191237 -0.0209205 0)
(-0.013632 -0.0147262 0)
(-0.00908321 -0.00890482 0)
(-0.00544921 -0.00358079 0)
(-0.00268049 0.00112894 0)
(-0.000707734 0.0051135 0)
(0.000556298 0.0082653 0)
(0.00121505 0.0104764 0)
(0.0013868 0.0116344 0)
(0.00120251 0.0116182 0)
(0.000803655 0.0102949 0)
(0.000356916 0.00751711 0)
(7.24954e-05 0.00311497 0)
(-0.000155147 0.00115821 0)
(-0.00104574 0.00414032 0)
(-0.00294529 0.00746963 0)
(-0.0056139 0.0109521 0)
(-0.0089241 0.014479 0)
(-0.0128052 0.0179925 0)
(-0.0172012 0.0214705 0)
(-0.0220727 0.0249121 0)
(-0.0273958 0.0283265 0)
(-0.0331576 0.0317245 0)
(-0.0393514 0.0351128 0)
(-0.0459726 0.0384908 0)
(-0.0530151 0.0418487 0)
(-0.060469 0.0451675 0)
(-0.0683183 0.048419 0)
(-0.0765401 0.0515673 0)
(-0.0851037 0.0545695 0)
(-0.0939707 0.0573778 0)
(-0.103096 0.059941 0)
(-0.112427 0.062206 0)
(-0.121906 0.0641201 0)
(-0.131472 0.0656322 0)
(-0.141062 0.0666947 0)
(-0.150608 0.0672653 0)
(-0.160045 0.0673073 0)
(-0.169308 0.0667912 0)
(-0.178334 0.0656952 0)
(-0.187063 0.0640051 0)
(-0.195436 0.0617147 0)
(-0.203401 0.0588257 0)
(-0.210906 0.0553467 0)
(-0.217905 0.0512935 0)
(-0.224353 0.0466884 0)
(-0.230209 0.0415595 0)
(-0.235435 0.0359404 0)
(-0.239995 0.02987 0)
(-0.243855 0.0233921 0)
(-0.246984 0.016555 0)
(-0.249351 0.00941179 0)
(-0.250929 0.00202002 0)
(-0.251691 -0.00555837 0)
(-0.251613 -0.0132564 0)
(-0.250672 -0.0210028 0)
(-0.24885 -0.0287216 0)
(-0.24613 -0.0363321 0)
(-0.2425 -0.0437497 0)
(-0.237952 -0.0508857 0)
(-0.232484 -0.057648 0)
(-0.226103 -0.0639428 0)
(-0.218824 -0.069675 0)
(-0.210672 -0.0747508 0)
(-0.201684 -0.0790793 0)
(-0.191912 -0.0825757 0)
(-0.181421 -0.0851636 0)
(-0.170294 -0.086779 0)
(-0.158629 -0.087373 0)
(-0.146539 -0.0869158 0)
(-0.134153 -0.0853991 0)
(-0.121612 -0.0828387 0)
(-0.109065 -0.0792761 0)
(-0.096669 -0.0747792 0)
(-0.0845793 -0.0694411 0)
(-0.0729481 -0.0633781 0)
(-0.0619175 -0.0567267 0)
(-0.0516149 -0.0496391 0)
(-0.0421486 -0.0422782 0)
(-0.0336036 -0.034812 0)
(-0.0260401 -0.0274092 0)
(-0.0194909 -0.0202343 0)
(-0.0139622 -0.0134446 0)
(-0.00943415 -0.00718832 0)
(-0.00586202 -0.00160429 0)
(-0.00317886 0.00317672 0)
(-0.00129759 0.00702925 0)
(-0.000113321 0.00982942 0)
(0.000494585 0.0114505 0)
(0.00065991 0.0117583 0)
(0.000526997 0.0106079 0)
(0.000260752 0.00784162 0)
(5.84675e-05 0.00328116 0)
(-0.00018705 0.00174052 0)
(-0.00123487 0.00573357 0)
(-0.00344271 0.00992905 0)
(-0.0065131 0.014152 0)
(-0.0102863 0.0183176 0)
(-0.0146733 0.0223931 0)
(-0.0196048 0.0263791 0)
(-0.0250324 0.0302939 0)
(-0.0309266 0.034161 0)
(-0.0372711 0.0380004 0)
(-0.0440568 0.0418233 0)
(-0.0512768 0.0456295 0)
(-0.0589228 0.0494064 0)
(-0.066982 0.0531297 0)
(-0.0754351 0.0567645 0)
(-0.0842554 0.0602672 0)
(-0.0934084 0.0635873 0)
(-0.102852 0.0666696 0)
(-0.112536 0.069456 0)
(-0.122406 0.0718881 0)
(-0.132403 0.0739085 0)
(-0.142463 0.0754633 0)
(-0.152521 0.0765033 0)
(-0.162512 0.0769856 0)
(-0.172372 0.0768747 0)
(-0.182036 0.0761427 0)
(-0.191446 0.0747703 0)
(-0.200543 0.0727464 0)
(-0.209272 0.0700682 0)
(-0.217584 0.0667405 0)
(-0.22543 0.0627755 0)
(-0.232766 0.058192 0)
(-0.23955 0.0530152 0)
(-0.245744 0.0472757 0)
(-0.251311 0.0410097 0)
(-0.256216 0.034258 0)
(-0.260427 0.0270661 0)
(-0.263913 0.0194843 0)
(-0.266645 0.011567 0)
(-0.268593 0.00337329 0)
(-0.269731 -0.00503334 0)
(-0.270032 -0.0135844 0)
(-0.269472 -0.0222067 0)
(-0.268026 -0.0308219 0)
(-0.265673 -0.0393466 0)
(-0.262393 -0.0476921 0)
(-0.258171 -0.0557649 0)
(-0.252995 -0.063467 0)
(-0.246861 -0.0706966 0)
(-0.239769 -0.0773494 0)
(-0.231734 -0.0833203 0)
(-0.222779 -0.0885055 0)
(-0.212942 -0.0928054 0)
(-0.202277 -0.0961275 0)
(-0.190855 -0.0983907 0)
(-0.178766 -0.0995288 0)
(-0.16612 -0.0994948 0)
(-0.153043 -0.0982651 0)
(-0.139679 -0.0958424 0)
(-0.126189 -0.0922588 0)
(-0.112739 -0.0875771 0)
(-0.099505 -0.0818906 0)
(-0.0866583 -0.0753215 0)
(-0.0743653 -0.0680178 0)
(-0.0627782 -0.0601486 0)
(-0.0520303 -0.0518982 0)
(-0.0422307 -0.04346 0)
(-0.0334606 -0.0350299 0)
(-0.0257712 -0.0268011 0)
(-0.0191832 -0.018959 0)
(-0.0136872 -0.0116789 0)
(-0.00924553 -0.00512475 0)
(-0.00579471 0.000550153 0)
(-0.00324851 0.0052004 0)
(-0.00150085 0.00868472 0)
(-0.000428599 0.0108613 0)
(0.000105284 0.0115829 0)
(0.000248823 0.0106937 0)
(0.000166596 0.00802692 0)
(4.55688e-05 0.00339876 0)
(-0.000219485 0.00242214 0)
(-0.00142569 0.00757481 0)
(-0.00394232 0.0127442 0)
(-0.00741311 0.0177833 0)
(-0.0116454 0.0226395 0)
(-0.0165315 0.0273119 0)
(-0.0219888 0.0318295 0)
(-0.0279597 0.0362338 0)
(-0.0344093 0.0405653 0)
(-0.0413176 0.0448548 0)
(-0.0486727 0.0491187 0)
(-0.0564655 0.053357 0)
(-0.064685 0.057554 0)