/*--------------------------------*- C++ -*----------------------------------*\
  =========                 |
  \\      /  F ield         | OpenFOAM: The Open Source CFD Toolbox
   \\    /   O peration     | Website:  https://openfoam.org
    \\  /    A nd           | Version:  7
     \\/     M anipulation  |
\*---------------------------------------------------------------------------*/
FoamFile
{
    version     2.0;
    format      ascii;
    class       volScalarField;
    location    "2.35";
    object      p;
}
// * * * * * * * * * * * * * * * * * * * * * * * * * * * * * * * * * * * * * //

dimensions      [0 2 -2 0 0 0 0];

internalField   nonuniform List<scalar> 
6400
(
-9.14197e-07
1.20275e-05
9.06926e-07
-3.77559e-05
-0.000101678
-0.000187539
-0.000291783
-0.000411189
-0.000543175
-0.0006858
-0.000837666
-0.000997784
-0.00116545
-0.00134011
-0.00152122
-0.00170822
-0.00190038
-0.00209679
-0.0022963
-0.00249751
-0.0026987
-0.00289788
-0.00309277
-0.00328079
-0.00345912
-0.00362473
-0.00377439
-0.00390479
-0.0040126
-0.00409451
-0.00414743
-0.0041685
-0.00415533
-0.00410601
-0.00401935
-0.00389491
-0.0037332
-0.00353572
-0.00330506
-0.00304491
-0.00276015
-0.00245644
-0.00214091
-0.00182125
-0.00150582
-0.00120344
-0.000923111
-0.00067365
-0.000463424
-0.00030001
-0.000189881
-0.000138134
-0.000148255
-0.000221952
-0.000359056
-0.000557519
-0.000813455
-0.0011213
-0.0014746
-0.00186458
-0.00228282
-0.00272006
-0.00316694
-0.00361441
-0.00405398
-0.00447794
-0.00487952
-0.00525299
-0.00559364
-0.00589777
-0.00616253
-0.00638579
-0.00656606
-0.00670232
-0.00679422
-0.00684234
-0.00684929
-0.00682154
-0.00677174
-0.00671853
-1.52187e-05
-1.89581e-06
-1.43629e-05
-5.11784e-05
-0.000109204
-0.000186283
-0.000279989
-0.000387935
-0.000508088
-0.000638812
-0.000778869
-0.000927312
-0.00108342
-0.0012466
-0.00141627
-0.00159184
-0.0017726
-0.00195767
-0.00214598
-0.00233625
-0.00252691
-0.00271615
-0.0029019
-0.00308183
-0.00325337
-0.00341373
-0.00355997
-0.00368905
-0.00379787
-0.00388337
-0.00394264
-0.00397301
-0.00397218
-0.0039383
-0.00387017
-0.0037673
-0.00363002
-0.00345962
-0.00325838
-0.00302964
-0.00277775
-0.00250811
-0.00222703
-0.00194166
-0.00165977
-0.00138952
-0.00113926
-0.000917193
-0.000731091
-0.000587995
-0.000493919
-0.000453587
-0.000470216
-0.000545356
-0.000678812
-0.000868631
-0.00111118
-0.00140127
-0.00173248
-0.00209751
-0.00248779
-0.00289502
-0.0033106
-0.0037262
-0.00413403
-0.00452707
-0.00489919
-0.00524519
-0.00556089
-0.00584302
-0.00608917
-0.00629768
-0.00646753
-0.0065983
-0.00669026
-0.00674455
-0.00676392
-0.00675349
-0.00671849
-0.00666522
-4.06738e-06
9.96859e-06
-3.17319e-06
-3.93157e-05
-9.43716e-05
-0.000166464
-0.000253633
-0.000353959
-0.000465815
-0.000587787
-0.000718867
-0.000858234
-0.00100525
-0.00115938
-0.00132009
-0.00148685
-0.00165902
-0.0018358
-0.00201623
-0.00219913
-0.0023831
-0.00256649
-0.00274738
-0.00292363
-0.00309285
-0.00325242
-0.00339957
-0.00353138
-0.00364489
-0.00373712
-0.0038052
-0.00384647
-0.00385859
-0.00383964
-0.00378827
-0.00370382
-0.00358641
-0.00343708
-0.00325783
-0.00305165
-0.00282256
-0.00257571
-0.00231702
-0.00205328
-0.00179196
-0.00154091
-0.00130819
-0.00110176
-0.000929167
-0.000797271
-0.000711932
-0.000677759
-0.000697887
-0.000773828
-0.00090538
-0.00109063
-0.00132601
-0.00160649
-0.00192575
-0.00227655
-0.00265099
-0.0030407
-0.00343751
-0.00383347
-0.00422118
-0.00459405
-0.00494635
-0.00527334
-0.00557128
-0.00583732
-0.0060695
-0.00626656
-0.0064279
-0.00655347
-0.00664371
-0.00669967
-0.00672352
-0.0067186
-0.00668365
-0.00661557
3.64616e-05
4.68558e-05
3.09811e-05
-6.32496e-06
-6.07488e-05
-0.000130415
-0.000213667
-0.00030882
-0.00041454
-0.000529749
-0.000653638
-0.000785582
-0.000925102
-0.00107179
-0.00122525
-0.00138507
-0.0015507
-0.00172149
-0.00189662
-0.00207504
-0.0022555
-0.00243649
-0.00261626
-0.0027928
-0.00296383
-0.00312686
-0.00327919
-0.00341795
-0.00354016
-0.00364283
-0.00372299
-0.00377788
-0.00380497
-0.00380215
-0.00376784
-0.00370111
-0.00360182
-0.00347069
-0.00330946
-0.00312087
-0.00290864
-0.00267769
-0.00243376
-0.0021835
-0.00193424
-0.00169375
-0.00147006
-0.00127112
-0.00110451
-0.000977131
-0.000894912
-0.000862532
-0.000883195
-0.000958466
-0.00108819
-0.00127046
-0.00150173
-0.00177694
-0.00208979
-0.00243296
-0.00279855
-0.00317833
-0.00356406
-0.00394796
-0.00432281
-0.00468221
-0.00502073
-0.00533399
-0.00561859
-0.00587211
-0.00609301
-0.00628044
-0.00643416
-0.00655436
-0.00664151
-0.00669633
-0.00672023
-0.00671495
-0.00667439
-0.00658907
0.000105062
0.000106266
8.45286e-05
4.39918e-05
-1.16734e-05
-8.06521e-05
-0.000161494
-0.000252867
-0.000353743
-0.000463353
-0.000581154
-0.00070676
-0.000839903
-0.000980365
-0.00112793
-0.00128233
-0.00144322
-0.00161009
-0.00178227
-0.0019589
-0.00213887
-0.00232085
-0.00250319
-0.002684
-0.0028611
-0.00303204
-0.00319412
-0.00334443
-0.00347991
-0.00359741
-0.00369379
-0.00376604
-0.00381138
-0.00382738
-0.00381214
-0.00376442
-0.00368372
-0.00357047
-0.0034261
-0.00325311
-0.00305497
-0.00283646
-0.00260318
-0.00236173
-0.00211942
-0.0018841
-0.00166387
-0.00146683
-0.00130074
-0.0011727
-0.00108885
-0.00105407
-0.00107175
-0.00114361
-0.00126961
-0.0014479
-0.00167495
-0.00194566
-0.00225364
-0.00259147
-0.00295109
-0.00332417
-0.00370241
-0.00407794
-0.00444357
-0.00479299
-0.00512095
-0.00542329
-0.00569694
-0.00593986
-0.00615089
-0.0063296
-0.00647607
-0.00659074
-0.00667412
-0.00672667
-0.00674922
-0.00674232
-0.00669676
-0.00659917
0.000199006
0.000186228
0.000155653
0.000109856
5.12316e-05
-1.86313e-05
-9.85068e-05
-0.000187448
-0.000284786
-0.000390093
-0.000503133
-0.000623802
-0.000752086
-0.000888005
-0.00103156
-0.00118271
-0.00134129
-0.001507
-0.00167936
-0.0018577
-0.00204107
-0.00222827
-0.00241779
-0.00260779
-0.00279614
-0.00298034
-0.00315764
-0.00332497
-0.0034791
-0.00361661
-0.00373407
-0.00382814
-0.00389564
-0.00393378
-0.00394026
-0.00391343
-0.00385244
-0.00375735
-0.00362932
-0.00347063
-0.00328448
-0.00307556
-0.00284941
-0.00261262
-0.00237258
-0.00213728
-0.00191503
-0.00171418
-0.00154279
-0.00140829
-0.00131716
-0.00127462
-0.00128439
-0.00134845
-0.00146697
-0.00163828
-0.00185889
-0.00212369
-0.00242622
-0.0027589
-0.00311349
-0.00348142
-0.00385421
-0.00422379
-0.00458284
-0.00492503
-0.00524511
-0.00553909
-0.00580409
-0.00603839
-0.00624116
-0.00641232
-0.0065523
-0.00666179
-0.00674141
-0.00679149
-0.00681249
-0.0068043
-0.00675604
-0.00665253
0.000314534
0.000283807
0.000241885
0.000189026
0.000125877
5.37464e-05
-2.64799e-05
-0.000114297
-0.000209454
-0.000311901
-0.000421752
-0.000539224
-0.000664601
-0.000798176
-0.000940217
-0.00109092
-0.00125037
-0.00141849
-0.00159503
-0.00177948
-0.00197109
-0.00216875
-0.00237105
-0.00257618
-0.00278196
-0.0029858
-0.00318476
-0.00337556
-0.00355462
-0.00371821
-0.00386248
-0.00398362
-0.00407803
-0.00414243
-0.00417405
-0.0041708
-0.00413142
-0.00405558
-0.00394417
-0.0037994
-0.00362376
-0.00342223
-0.00320024
-0.0029644
-0.00272223
-0.00248191
-0.00225202
-0.00204127
-0.00185811
-0.00171042
-0.00160516
-0.00154803
-0.00154322
-0.00159314
-0.00169833
-0.00185738
-0.00206701
-0.00232218
-0.00261638
-0.00294193
-0.00329036
-0.00365285
-0.0040206
-0.00438527
-0.00473924
-0.00507622
-0.00539051
-0.00567832
-0.00593687
-0.00616458
-0.00636089
-0.00652604
-0.00666075
-0.00676597
-0.00684249
-0.00689066
-0.00691082
-0.00690251
-0.0068544
-0.00675098
0.000447166
0.000395347
0.000339982
0.000278512
0.00020956
0.000133992
5.2251e-05
-3.56815e-05
-0.000130035
-0.000231192
-0.000339655
-0.000456
-0.000580843
-0.000714789
-0.000858398
-0.00101215
-0.0011764
-0.00135133
-0.00153691
-0.00173283
-0.00193848
-0.00215287
-0.0023746
-0.00260184
-0.00283229
-0.00306318
-0.00329128
-0.00351297
-0.00372428
-0.00392099
-0.00409875
-0.00425323
-0.00438026
-0.00447603
-0.00453725
-0.00456133
-0.00454654
-0.00449215
-0.00439882
-0.00426882
-0.00410285
-0.00390731
-0.00368725
-0.00344922
-0.00320087
-0.0029506
-0.00270731
-0.00248011
-0.00227795
-0.00210927
-0.00198165
-0.00190142
-0.00187342
-0.00190067
-0.00198428
-0.00212331
-0.00231481
-0.002554
-0.00283443
-0.00314838
-0.00348721
-0.00384182
-0.00420308
-0.00456229
-0.00491148
-0.00524387
-0.00555381
-0.00583718
-0.00609117
-0.00631426
-0.00650607
-0.00666701
-0.00679808
-0.00690047
-0.00697516
-0.00702267
-0.00704333
-0.00703662
-0.00699162
-0.00689347
0.000591997
0.000516489
0.000445924
0.00037472
0.000298967
0.00021899
0.000134691
4.54321e-05
-4.95668e-05
-0.000151172
-0.000260319
-0.000377979
-0.000505129
-0.000642718
-0.000791633
-0.000952664
-0.00112646
-0.00131347
-0.00151391
-0.00172764
-0.00195418
-0.00219261
-0.00244151
-0.00269893
-0.00296238
-0.0032288
-0.0034946
-0.00375569
-0.00400761
-0.00424555
-0.00446458
-0.00465974
-0.00482624
-0.00495966
-0.00505611
-0.00511245
-0.00512646
-0.00509697
-0.00502405
-0.00490906
-0.00475453
-0.00456483
-0.00434526
-0.00410248
-0.00384422
-0.00357913
-0.00331643
-0.0030657
-0.00283643
-0.00263776
-0.002478
-0.00236432
-0.00230238
-0.00229607
-0.00234728
-0.00245579
-0.00261923
-0.00283326
-0.00309171
-0.00338693
-0.00371022
-0.00405225
-0.00440353
-0.00475494
-0.00509808
-0.00542566
-0.0057317
-0.00601173
-0.00626272
-0.00648309
-0.0066724
-0.00683121
-0.00696065
-0.0070621
-0.00713678
-0.00718537
-0.00720833
-0.00720523
-0.00716607
-0.00707737
0.000743631
0.0006423
0.000555256
0.000473441
0.000390116
0.000304919
0.000217095
0.000125281
2.80704e-05
-7.59368e-05
-0.000188154
-0.000309979
-0.000442784
-0.000587886
-0.000746528
-0.000919836
-0.00110877
-0.00131406
-0.00153613
-0.00177503
-0.00203038
-0.00230125
-0.00258614
-0.00288292
-0.00318881
-0.00350035
-0.0038135
-0.00412362
-0.00442561
-0.00471404
-0.00498328
-0.00522767
-0.00544173
-0.00562035
-0.00575898
-0.00585386
-0.0059022
-0.00590233
-0.00585358
-0.00575614
-0.00561505
-0.0054318
-0.00521208
-0.00496256
-0.00469105
-0.00440636
-0.00411806
-0.00383618
-0.00357086
-0.00333199
-0.00312878
-0.0029694
-0.00286061
-0.00280737
-0.00281267
-0.00287728
-0.00299974
-0.00317642
-0.00340167
-0.00366816
-0.00396724
-0.00428946
-0.00462504
-0.00496439
-0.00529858
-0.00561974
-0.00592136
-0.00619845
-0.00644759
-0.00666689
-0.00685577
-0.00701468
-0.00714481
-0.00724763
-0.0073245
-0.00737632
-0.00740367
-0.00740627
-0.00737538
-0.00729928
0.000896128
0.000767293
0.000662807
0.000569774
0.000478308
0.000387202
0.000294908
0.000199245
9.8102e-05
-1.05161e-05
-0.000128534
-0.000257811
-0.000400142
-0.000557242
-0.000730731
-0.000922091
-0.0011326
-0.00136326
-0.00161472
-0.00188718
-0.00218027
-0.00249304
-0.00282382
-0.00317022
-0.00352906
-0.00389642
-0.00426768
-0.00463756
-0.00500027
-0.00534963
-0.00567924
-0.00598269
-0.00625371
-0.00648644
-0.0066756
-0.00681672
-0.00690631
-0.0069421
-0.00692292
-0.00684888
-0.0067227
-0.00654727
-0.00632759
-0.00607009
-0.0057825
-0.00547373
-0.00515364
-0.00483271
-0.00452174
-0.00423146
-0.00397213
-0.00375311
-0.00358243
-0.00346649
-0.00340964
-0.00341405
-0.00347949
-0.00360341
-0.00378103
-0.0040056
-0.00426879
-0.00456119
-0.0048728
-0.00519359
-0.00551405
-0.00582563
-0.00612109
-0.00639475
-0.00664259
-0.00686217
-0.00705253
-0.00721386
-0.00734718
-0.00745395
-0.00753556
-0.00759302
-0.00762703
-0.00763744
-0.0076169
-0.00755565
0.00104295
0.000885352
0.000762771
0.000658143
0.000558117
0.000460479
0.000362753
0.000261834
0.000154835
3.91175e-05
-8.77988e-05
-0.000228264
-0.000384524
-0.00055872
-0.000752869
-0.000968816
-0.00120816
-0.00147218
-0.00176171
-0.00207703
-0.00241781
-0.00278294
-0.00317053
-0.00357782
-0.00400117
-0.00443608
-0.00487728
-0.00531876
-0.00575395
-0.00617586
-0.00657724
-0.00695083
-0.00728953
-0.00758664
-0.00783605
-0.00803248
-0.00817168
-0.00825058
-0.0082674
-0.00822176
-0.00811522
-0.00795054
-0.00773226
-0.00746647
-0.00716074
-0.00682399
-0.00646624
-0.00609842
-0.00573197
-0.00537851
-0.00504943
-0.00475542
-0.00450609
-0.00430949
-0.00417175
-0.00409678
-0.00408604
-0.0041385
-0.00425064
-0.00441671
-0.00462902
-0.00487845
-0.00515493
-0.0054481
-0.00574783
-0.00604479
-0.00633087
-0.00659949
-0.00684573
-0.00706641
-0.0072599
-0.00742587
-0.00756498
-0.00767843
-0.00776752
-0.00783323
-0.00787626
-0.00789654
-0.00788812
-0.00784321
0.00117702
0.000989775
0.000848727
0.000732312
0.000623413
0.000518632
0.000414443
0.000306709
0.000191702
6.60901e-05
-7.31986e-05
-0.000229039
-0.000404158
-0.000601141
-0.000822418
-0.00107021
-0.00134643
-0.0016526
-0.00198971
-0.00235812
-0.00275739
-0.00318625
-0.00364248
-0.00412286
-0.00462321
-0.00513838
-0.00566232
-0.00618825
-0.00670873
-0.00721587
-0.00770152
-0.0081575
-0.00857577
-0.00894872
-0.00926932
-0.00953139
-0.0097298
-0.00986059
-0.00992117
-0.00991046
-0.0098291
-0.00967928
-0.00946494
-0.00919171
-0.00886684
-0.00849912
-0.00809866
-0.0076767
-0.00724526
-0.00681686
-0.00640404
-0.006019
-0.00567306
-0.00537622
-0.00513673
-0.00496068
-0.00485168
-0.00481073
-0.00483612
-0.00492354
-0.00506641
-0.00525624
-0.0054832
-0.00573671
-0.0060061
-0.0062812
-0.00655285
-0.00681335
-0.00705666
-0.0072785
-0.00747628
-0.00764886
-0.00779625
-0.00791915
-0.00801853
-0.00809518
-0.00814965
-0.00818181
-0.00818699
-0.00815934
0.00129065
0.00107331
0.000913687
0.000785435
0.000667405
0.000554844
0.000443043
0.000326752
0.000201334
6.27187e-05
-9.27946e-05
-0.000268637
-0.00046804
-0.000694054
-0.000949531
-0.00123706
-0.00155888
-0.00191672
-0.0023117
-0.00274414
-0.00321351
-0.00371823
-0.00425569
-0.00482215
-0.00541278
-0.00602167
-0.00664198
-0.00726602
-0.00788542
-0.00849134
-0.00907463
-0.0096261
-0.0101367
-0.0105979
-0.0110015
-0.0113405
-0.0116086
-0.011801
-0.0119142
-0.0119461
-0.0118965
-0.0117667
-0.0115601
-0.0112815
-0.0109378
-0.0105375
-0.0100906
-0.00960845
-0.00910359
-0.00858931
-0.00807933
-0.00758734
-0.00712651
-0.00670904
-0.00634559
-0.00604485
-0.0058131
-0.0056539
-0.00556794
-0.00555302
-0.00560418
-0.00571411
-0.00587356
-0.00607204
-0.00629845
-0.00654178
-0.00679174
-0.00703927
-0.00727689
-0.00749893
-0.00770146
-0.00788217
-0.00804007
-0.00817506
-0.00828752
-0.0083778
-0.00844611
-0.00849208
-0.00851219
-0.0085023
0.00137571
0.00112823
0.000950166
0.000810139
0.000682733
0.000561682
0.000440981
0.000314184
0.000175691
2.06502e-05
-0.000155302
-0.00035618
-0.000585741
-0.000847518
-0.0011448
-0.00148054
-0.00185726
-0.00227688
-0.00274058
-0.00324863
-0.00380026
-0.00439358
-0.00502545
-0.00569153
-0.00638626
-0.00710291
-0.00783373
-0.00857006
-0.00930253
-0.0100212
-0.010716
-0.0113765
-0.0119927
-0.0125548
-0.0130537
-0.0134812
-0.01383
-0.0140943
-0.0142694
-0.0143523
-0.0143418
-0.0142384
-0.0140444
-0.0137641
-0.0134035
-0.0129707
-0.0124753
-0.0119288
-0.011344
-0.0107347
-0.0101157
-0.00950208
-0.00890896
-0.00835079
-0.00784092
-0.00739097
-0.00701036
-0.00670585
-0.00648117
-0.00633691
-0.00627049
-0.00627636
-0.00634649
-0.00647085
-0.00663821
-0.00683681
-0.00705515
-0.00728265
-0.00751011
-0.00773003
-0.00793678
-0.00812645
-0.00829666
-0.00844613
-0.0085743
-0.00868083
-0.00876532
-0.00882697
-0.0088632
-0.00887136
0.00142364
0.00114645
0.000950305
0.000798639
0.000661593
0.000531244
0.000400192
0.000260725
0.000106233
-6.89506e-05
-0.000269882
-0.000501185
-0.000767163
-0.00107184
-0.00141895
-0.00181179
-0.00225316
-0.00274511
-0.00328883
-0.00388445
-0.00453092
-0.00522589
-0.00596568
-0.00674522
-0.00755812
-0.00839676
-0.00925239
-0.0101153
-0.010975
-0.0118205
-0.0126405
-0.0134234
-0.0141581
-0.0148336
-0.0154398
-0.0159672
-0.0164075
-0.0167537
-0.0170002
-0.0171428
-0.0171793
-0.0171092
-0.0169338
-0.0166565
-0.0162825
-0.0158193
-0.0152759
-0.0146634
-0.0139947
-0.013284
-0.0125468
-0.0117996
-0.011059
-0.0103418
-0.00966422
-0.00904101
-0.00848514
-0.0080071
-0.00761439
-0.00731115
-0.00709799
-0.00697202
-0.00692709
-0.00695431
-0.00704274
-0.00718013
-0.00735385
-0.00755162
-0.00776225
-0.00797607
-0.00818524
-0.00838379
-0.00856745
-0.00873337
-0.00887962
-0.00900484
-0.00910777
-0.00918693
-0.0092404
-0.00926691
0.00142571
0.00111966
0.000906004
0.000742886
0.000595896
0.000455326
0.000312296
0.000157783
-1.58705e-05
-0.000215176
-0.000445904
-0.000713309
-0.00102226
-0.00137729
-0.00178254
-0.00224168
-0.0027577
-0.00333277
-0.00396801
-0.00466334
-0.00541733
-0.00622711
-0.00708831
-0.00799506
-0.00894008
-0.0099147
-0.0109091
-0.0119124
-0.012913
-0.0138987
-0.0148567
-0.0157746
-0.0166398
-0.0174402
-0.0181646
-0.0188022
-0.0193439
-0.0197813
-0.0201079
-0.0203185
-0.0204097
-0.0203802
-0.0202301
-0.0199618
-0.0195796
-0.0190901
-0.0185015
-0.0178245
-0.0170715
-0.0162567
-0.0153961
-0.0145068
-0.0136073
-0.0127163
-0.0118526
-0.0110342
-0.010278
-0.00959865
-0.00900797
-0.00851453
-0.00812305
-0.00783425
-0.00764484
-0.00754792
-0.00753349
-0.00758933
-0.00770186
-0.00785712
-0.00804167
-0.0082433
-0.00845148
-0.00865762
-0.00885506
-0.00903879
-0.00920513
-0.00935127
-0.00947476
-0.00957321
-0.00964511
-0.00969035
0.00137309
0.00103949
0.000809106
0.000634758
0.000477457
0.000325616
0.000168815
-3.31573e-06
-0.0001995
-0.000427114
-0.000692663
-0.00100205
-0.00136072
-0.00177371
-0.00224559
-0.00278033
-0.0033811
-0.0040501
-0.00478833
-0.00559539
-0.0064694
-0.00740685
-0.00840259
-0.00944984
-0.0105403
-0.0116641
-0.0128104
-0.0139669
-0.0151208
-0.0162584
-0.017366
-0.0184296
-0.0194356
-0.0203706
-0.0212221
-0.0219786
-0.0226296
-0.023166
-0.0235801
-0.0238659
-0.0240191
-0.024037
-0.0239191
-0.0236665
-0.0232827
-0.022773
-0.0221449
-0.0214079
-0.0205739
-0.0196566
-0.018672
-0.0176378
-0.016573
-0.0154983
-0.0144347
-0.0134035
-0.0124252
-0.011519
-0.0107016
-0.00998673
-0.00938417
-0.00889932
-0.00853291
-0.00828112
-0.0081359
-0.00808573
-0.00811658
-0.00821299
-0.00835917
-0.00854001
-0.00874181
-0.00895278
-0.00916322
-0.0093654
-0.00955333
-0.00972232
-0.00986836
-0.00998785
-0.0100795
-0.0101441
0.00125712
0.000897733
0.000651587
0.000466254
0.000298207
0.000133924
-3.85921e-05
-0.00023107
-0.00045331
-0.000713563
-0.00101909
-0.00137644
-0.00179165
-0.00227025
-0.00281721
-0.00343677
-0.00413224
-0.00490577
-0.00575813
-0.00668855
-0.00769454
-0.00877186
-0.00991446
-0.0111145
-0.0123626
-0.0136476
-0.0149572
-0.0162779
-0.0175955
-0.018895
-0.0201612
-0.0213789
-0.0225332
-0.0236098
-0.0245949
-0.0254762
-0.0262422
-0.026883
-0.0273901
-0.0277566
-0.0279774
-0.0280489
-0.0279697
-0.02774
-0.027362
-0.0268399
-0.02618
-0.0253909
-0.0244831
-0.0234698
-0.022366
-0.0211894
-0.0199595
-0.0186977
-0.0174269
-0.0161712
-0.0149545
-0.0138005
-0.012731
-0.0117656
-0.0109198
-0.0102049
-0.00962697
-0.00918657
-0.00887887
-0.00869415
-0.0086187
-0.008636
-0.00872801
-0.00887652
-0.00906418
-0.00927538
-0.00949671
-0.00971706
-0.00992749
-0.0101209
-0.0102913
-0.0104336
-0.0105463
-0.0106313
0.00106954
0.000686561
0.000425784
0.000229716
5.04253e-05
-0.000127578
-0.000317873
-0.000533541
-0.000785453
-0.00108274
-0.00143342
-0.0018447
-0.0023232
-0.00287493
-0.00350523
-0.00421856
-0.00501829
-0.00590645
-0.00688348
-0.00794811
-0.00909715
-0.0103255
-0.011626
-0.0129897
-0.0144059
-0.015862
-0.0173444
-0.018838
-0.0203272
-0.0217954
-0.0232263
-0.0246034
-0.0259105
-0.0271322
-0.0282542
-0.029263
-0.0301465
-0.0308943
-0.0314971
-0.0319476
-0.0322399
-0.0323697
-0.0323349
-0.0321346
-0.0317702
-0.0312445
-0.0305627
-0.0297319
-0.0287613
-0.0276626
-0.02645
-0.0251399
-0.0237517
-0.0223069
-0.0208296
-0.0193454
-0.0178815
-0.0164655
-0.0151245
-0.0138836
-0.0127654
-0.0117877
-0.0109634
-0.0102988
-0.009794
-0.00944244
-0.00923194
-0.00914571
-0.0091639
-0.00926513
-0.0094281
-0.00963278
-0.0098613
-0.0100984
-0.0103315
-0.0105505
-0.0107468
-0.0109136
-0.0110491
-0.0111559
0.000802696
0.000398722
0.000124608
-8.19382e-05
-0.000273026
-0.000466103
-0.000676316
-0.000918072
-0.0012033
-0.00154199
-0.00194292
-0.00241395
-0.00296227
-0.00359435
-0.00431584
-0.00513138
-0.0060443
-0.0070564
-0.00816773
-0.00937633
-0.0106782
-0.0120672
-0.013535
-0.0150713
-0.0166638
-0.0182986
-0.0199604
-0.0216326
-0.023298
-0.0249386
-0.0265368
-0.0280747
-0.0295353
-0.0309023
-0.0321605
-0.033296
-0.0342963
-0.0351504
-0.0358488
-0.0363838
-0.0367491
-0.0369401
-0.0369537
-0.0367887
-0.0364452
-0.0359252
-0.0352323
-0.0343721
-0.0333524
-0.0321831
-0.0308766
-0.029448
-0.0279153
-0.0262995
-0.0246245
-0.022917
-0.0212062
-0.0195229
-0.0178986
-0.0163646
-0.0149501
-0.0136806
-0.0125767
-0.0116525
-0.0109142
-0.0103606
-0.00998257
-0.00976428
-0.00968487
-0.00972017
-0.0098447
-0.0100335
-0.0102636
-0.0105147
-0.0107698
-0.0110149
-0.0112387
-0.0114316
-0.0115916
-0.0117221
0.000449768
2.77843e-05
-0.000258232
-0.000474983
-0.000678453
-0.000888
-0.0011203
-0.00139103
-0.00171314
-0.00209749
-0.00255357
-0.0030899
-0.0037142
-0.00443336
-0.00525329
-0.00617873
-0.00721288
-0.00835721
-0.00961119
-0.0109721
-0.0124349
-0.0139923
-0.0156346
-0.0173499
-0.0191245
-0.0209427
-0.0227874
-0.0246405
-0.0264831
-0.028296
-0.0300601
-0.0317565
-0.0333675
-0.0348759
-0.0362661
-0.0375239
-0.0386365
-0.039593
-0.0403838
-0.0410011
-0.0414384
-0.041691
-0.0417555
-0.04163
-0.0413139
-0.0408082
-0.0401152
-0.0392391
-0.0381857
-0.0369631
-0.0355817
-0.0340543
-0.0323972
-0.0306296
-0.0287744
-0.026858
-0.0249104
-0.0229645
-0.0210556
-0.0192199
-0.0174932
-0.0159092
-0.0144971
-0.0132798
-0.0122721
-0.0114797
-0.0108986
-0.010516
-0.0103111
-0.0102578
-0.0103266
-0.0104874
-0.0107112
-0.0109719
-0.0112472
-0.0115185
-0.0117708
-0.0119915
-0.0121781
-0.0123346
5.02234e-06
-0.00043165
-0.000728001
-0.000954664
-0.00117111
-0.00139852
-0.00165503
-0.00195754
-0.00231998
-0.002754
-0.00326982
-0.00387657
-0.00458247
-0.00539478
-0.00631961
-0.00736167
-0.00852396
-0.00980747
-0.011211
-0.0127308
-0.0143607
-0.016092
-0.0179135
-0.0198117
-0.0217709
-0.0237738
-0.0258015
-0.0278342
-0.0298514
-0.0318326
-0.0337575
-0.0356064
-0.0373606
-0.0390028
-0.0405172
-0.0418894
-0.0431068
-0.0441587
-0.0450357
-0.0457302
-0.0462361
-0.0465485
-0.0466642
-0.0465807
-0.0462969
-0.0458131
-0.0451303
-0.0442514
-0.0431804
-0.0419233
-0.0404881
-0.0388854
-0.0371285
-0.0352344
-0.0332238
-0.0311217
-0.0289574
-0.0267645
-0.0245804
-0.0224453
-0.020401
-0.0184888
-0.0167468
-0.015208
-0.0138973
-0.0128297
-0.0120087
-0.0114264
-0.0110645
-0.0108959
-0.010888
-0.0110052
-0.0112122
-0.0114764
-0.0117689
-0.0120657
-0.0123472
-0.0125974
-0.0128126
-0.0129979
-0.000535998
-0.000983748
-0.00128874
-0.00152499
-0.00175497
-0.0020016
-0.00228437
-0.0026213
-0.00302723
-0.00351462
-0.00409432
-0.00477606
-0.0055685
-0.0064792
-0.00751438
-0.00867864
-0.00997462
-0.0114027
-0.0129608
-0.014644
-0.0164449
-0.0183532
-0.0203559
-0.0224377
-0.0245811
-0.0267667
-0.028974
-0.0311814
-0.0333669
-0.0355088
-0.0375857
-0.0395772
-0.0414644
-0.0432296
-0.0448571
-0.0463329
-0.0476448
-0.0487824
-0.0497371
-0.0505016
-0.0510703
-0.0514388
-0.0516036
-0.0515625
-0.0513142
-0.050858
-0.0501944
-0.0493248
-0.0482515
-0.0469786
-0.0455116
-0.0438583
-0.0420292
-0.0400381
-0.0379026
-0.0356452
-0.033293
-0.0308787
-0.0284401
-0.0260199
-0.0236642
-0.0214209
-0.0193372
-0.0174562
-0.0158143
-0.0144378
-0.0133402
-0.0125215
-0.0119679
-0.0116538
-0.0115442
-0.0115989
-0.0117759
-0.0120351
-0.0123404
-0.0126611
-0.0129721
-0.0132532
-0.0134994
-0.0137165
-0.00117629
-0.00163127
-0.00194311
-0.00218856
-0.00243258
-0.00269968
-0.00301058
-0.00338433
-0.00383663
-0.00438062
-0.00502781
-0.00578842
-0.00667151
-0.00768486
-0.00883468
-0.0101254
-0.011559
-0.0131353
-0.014851
-0.0167001
-0.0186734
-0.020759
-0.0229421
-0.0252053
-0.0275291
-0.0298922
-0.0322722
-0.034646
-0.0369901
-0.0392818
-0.0414988
-0.0436203
-0.0456272
-0.047502
-0.0492294
-0.0507957
-0.0521897
-0.0534015
-0.0544233
-0.0552488
-0.0558728
-0.0562916
-0.056502
-0.0565019
-0.0562901
-0.0558655
-0.0552279
-0.0543775
-0.0533156
-0.052044
-0.0505662
-0.048887
-0.047014
-0.0449572
-0.0427308
-0.0403533
-0.0378488
-0.0352472
-0.0325851
-0.0299054
-0.0272568
-0.0246921
-0.0222663
-0.0200326
-0.0180393
-0.0163257
-0.0149177
-0.013826
-0.0130445
-0.0125514
-0.0123117
-0.0122814
-0.0124121
-0.0126555
-0.0129674
-0.0133094
-0.0136497
-0.0139628
-0.0142423
-0.0144946
-0.00191726
-0.00237543
-0.00269223
-0.00294643
-0.0032049
-0.00349355
-0.00383424
-0.00424691
-0.004748
-0.00535133
-0.00606894
-0.00691151
-0.00788841
-0.00900752
-0.010275
-0.0116948
-0.0132684
-0.0149946
-0.016869
-0.0188839
-0.0210287
-0.0232893
-0.025649
-0.0280883
-0.0305857
-0.033118
-0.0356609
-0.0381898
-0.0406801
-0.0431079
-0.0454506
-0.0476872
-0.0497987
-0.0517679
-0.0535801
-0.0552227
-0.056685
-0.0579584
-0.0590359
-0.059912
-0.0605827
-0.0610447
-0.0612956
-0.0613337
-0.0611576
-0.0607663
-0.0601593
-0.059336
-0.0582964
-0.0570409
-0.0555708
-0.0538885
-0.0519983
-0.0499067
-0.0476239
-0.0451641
-0.0425468
-0.0397982
-0.0369516
-0.0340481
-0.0311366
-0.0282728
-0.0255173
-0.0229324
-0.0205781
-0.0185073
-0.0167604
-0.0153617
-0.0143161
-0.0136088
-0.0132076
-0.0130664
-0.0131312
-0.0133455
-0.0136559
-0.0140153
-0.0143839
-0.01473
-0.0150451
-0.0153361
-0.00275861
-0.00321581
-0.00353559
-0.003798
-0.0040712
-0.0043823
-0.00475413
-0.00520742
-0.00575927
-0.00642403
-0.00721425
-0.00814097
-0.00921377
-0.0104406
-0.0118272
-0.0133773
-0.0150915
-0.0169673
-0.0189991
-0.0211776
-0.0234902
-0.0259209
-0.0284508
-0.0310583
-0.0337199
-0.0364103
-0.0391037
-0.041774
-0.0443956
-0.0469441
-0.0493965
-0.0517319
-0.0539316
-0.0559792
-0.0578607
-0.0595645
-0.0610812
-0.0624031
-0.0635244
-0.0644407
-0.0651489
-0.0656465
-0.0659318
-0.0660036
-0.065861
-0.065503
-0.0649288
-0.0641376
-0.0631284
-0.0619004
-0.0604533
-0.0587873
-0.0569038
-0.0548059
-0.0524996
-0.0499945
-0.0473054
-0.044453
-0.0414662
-0.0383821
-0.0352474
-0.0321182
-0.0290582
-0.0261366
-0.0234239
-0.0209863
-0.0188802
-0.0171456
-0.0158018
-0.014845
-0.0142488
-0.013968
-0.0139441
-0.0141131
-0.0144119
-0.0147833
-0.0151784
-0.0155581
-0.0159109
-0.0162442
-0.00369828
-0.0041503
-0.00447102
-0.00474099
-0.005029
-0.00536319
-0.00576719
-0.00626237
-0.00686635
-0.00759398
-0.00845818
-0.00947027
-0.0106399
-0.011975
-0.013481
-0.0151608
-0.0170142
-0.0190375
-0.0212234
-0.0235609
-0.0260354
-0.0286289
-0.0313201
-0.0340855
-0.0368993
-0.0397347
-0.0425642
-0.0453606
-0.0480974
-0.0507499
-0.0532952
-0.0557124
-0.0579837
-0.0600935
-0.0620289
-0.0637794
-0.0653367
-0.0666945
-0.0678481
-0.0687943
-0.0695308
-0.0700562
-0.0703695
-0.0704701
-0.0703574
-0.070031
-0.0694899
-0.0687332
-0.0677595
-0.0665672
-0.0651545
-0.0635201
-0.0616628
-0.0595828
-0.0572823
-0.0547663
-0.0520443
-0.0491315
-0.0460506
-0.0428336
-0.0395226
-0.0361711
-0.0328432
-0.0296121
-0.0265565
-0.023755
-0.0212796
-0.0191878
-0.0175165
-0.0162765
-0.0154513
-0.0149999
-0.014862
-0.0149669
-0.0152415
-0.0156179
-0.0160367
-0.0164499
-0.0168424
-0.0172217
-0.00473246
-0.00517509
-0.00549465
-0.00577139
-0.00607411
-0.00643173
-0.00686854
-0.00740638
-0.00806328
-0.00885447
-0.00979314
-0.0108908
-0.0121571
-0.0135998
-0.0152237
-0.0170311
-0.0190206
-0.0211872
-0.0235218
-0.0260117
-0.0286401
-0.0313868
-0.0342285
-0.0371394
-0.0400919
-0.0430575
-0.0460074
-0.0489135
-0.0517488
-0.0544883
-0.0571093
-0.0595919
-0.0619186
-0.0640752
-0.0660499
-0.0678333
-0.0694186
-0.0708007
-0.0719761
-0.0729425
-0.0736989
-0.0742446
-0.0745794
-0.0747034
-0.0746166
-0.0743188
-0.0738095
-0.0730876
-0.0721516
-0.0709996
-0.0696289
-0.0680369
-0.0662206
-0.0641777
-0.0619071
-0.0594098
-0.05669
-0.0537572
-0.0506276
-0.0473263
-0.0438893
-0.040365
-0.0368149
-0.033313
-0.0299428
-0.026793
-0.0239502
-0.0214901
-0.019469
-0.0179159
-0.0168289
-0.016175
-0.0158956
-0.015915
-0.0161507
-0.0165234
-0.0169619
-0.0174078
-0.0178416
-0.0182704
-0.00585563
-0.00628472
-0.00660097
-0.00688356
-0.00720065
-0.00758173
-0.00805155
-0.00863228
-0.00934224
-0.0101969
-0.0112097
-0.012392
-0.0137537
-0.0153018
-0.0170409
-0.0189721
-0.0210929
-0.0233968
-0.0258731
-0.0285068
-0.0312793
-0.034168
-0.0371475
-0.0401902
-0.0432666
-0.0463467
-0.0494007
-0.0523997
-0.0553166
-0.0581264
-0.060807
-0.063339
-0.0657063
-0.0678955
-0.0698962
-0.0717005
-0.0733026
-0.0746987
-0.0758865
-0.0768649
-0.0776335
-0.0781927
-0.0785431
-0.0786853
-0.0786199
-0.0783471
-0.0778668
-0.0771783
-0.07628
-0.07517
-0.0738452
-0.0723021
-0.0705366
-0.0685447
-0.0663224
-0.0638673
-0.0611792
-0.0582618
-0.0551248
-0.0517859
-0.0482736
-0.0446291
-0.0409085
-0.037183
-0.0335377
-0.030068
-0.0268726
-0.0240444
-0.0216604
-0.0197708
-0.0183922
-0.0175045
-0.0170548
-0.0169651
-0.0171451
-0.0175035
-0.0179563
-0.0184335
-0.0189098
-0.0193915
-0.00706062
-0.00747215
-0.00778292
-0.00807031
-0.00840116
-0.00880535
-0.00930794
-0.00993125
-0.0106937
-0.011611
-0.0126965
-0.0139618
-0.0154162
-0.0170665
-0.0189165
-0.0209663
-0.0232121
-0.0256458
-0.0282548
-0.0310224
-0.0339275
-0.0369456
-0.0400493
-0.0432091
-0.0463938
-0.0495725
-0.0527142
-0.0557898
-0.058772
-0.0616364
-0.0643613
-0.0669285
-0.0693229
-0.0715323
-0.0735477
-0.0753623
-0.0769718
-0.0783734
-0.0795659
-0.0805492
-0.0813237
-0.0818907
-0.0822512
-0.0824067
-0.0823582
-0.0821066
-0.0816519
-0.080994
-0.0801316
-0.0790627
-0.0777846
-0.0762932
-0.074584
-0.0726515
-0.0704902
-0.0680946
-0.0654609
-0.0625879
-0.059479
-0.0561446
-0.0526047
-0.0488922
-0.0450553
-0.0411593
-0.0372871
-0.0335368
-0.0300158
-0.0268323
-0.0240832
-0.0218419
-0.0201471
-0.0189967
-0.0183477
-0.0181241
-0.0182294
-0.0185613
-0.0190218
-0.0195278
-0.0200472
-0.0205848
-0.0083388
-0.00872894
-0.00903205
-0.00932299
-0.00966675
-0.0100934
-0.010628
-0.011293
-0.0121068
-0.0130851
-0.0142412
-0.0155864
-0.0171299
-0.0188779
-0.0208333
-0.0229951
-0.0253582
-0.0279128
-0.0306445
-0.0335345
-0.0365598
-0.0396938
-0.0429074
-0.046169
-0.0494466
-0.0527079
-0.0559215
-0.0590581
-0.0620907
-0.0649952
-0.0677509
-0.0703407
-0.0727505
-0.0749696
-0.0769902
-0.0788067
-0.0804159
-0.0818163
-0.0830074
-0.08399
-0.0847654
-0.0853353
-0.0857016
-0.0858661
-0.0858305
-0.0855959
-0.0851631
-0.0845322
-0.0837025
-0.0826723
-0.0814392
-0.0799992
-0.0783477
-0.0764786