/*--------------------------------*- C++ -*----------------------------------*\
  =========                 |
  \\      /  F ield         | OpenFOAM: The Open Source CFD Toolbox
   \\    /   O peration     | Website:  https://openfoam.org
    \\  /    A nd           | Version:  7
     \\/     M anipulation  |
\*---------------------------------------------------------------------------*/
FoamFile
{
    version     2.0;
    format      ascii;
    class       volScalarField;
    location    "3.425";
    object      p;
}
// * * * * * * * * * * * * * * * * * * * * * * * * * * * * * * * * * * * * * //

dimensions      [0 2 -2 0 0 0 0];

internalField   nonuniform List<scalar> 
6400
(
2.60262e-07
1.56142e-05
5.57501e-06
-3.35274e-05
-9.94943e-05
-0.00018898
-0.000298293
-0.000424048
-0.000563489
-0.000714524
-0.000875633
-0.00104574
-0.00122407
-0.00141003
-0.00160306
-0.00180255
-0.00200777
-0.00221778
-0.00243139
-0.00264713
-0.00286321
-0.00307754
-0.00328769
-0.00349094
-0.0036843
-0.00386452
-0.00402818
-0.00417173
-0.00429158
-0.00438421
-0.00444626
-0.00447467
-0.00446682
-0.00442063
-0.00433474
-0.00420864
-0.00404277
-0.00383863
-0.00359888
-0.00332735
-0.00302908
-0.00271007
-0.00237773
-0.00204014
-0.00170609
-0.00138489
-0.00108602
-0.000818793
-0.000592074
-0.000413895
-0.000291142
-0.000229256
-0.00023199
-0.000301221
-0.00043686
-0.000636826
-0.000897127
-0.00121203
-0.00157439
-0.00197567
-0.00240671
-0.00285781
-0.00331923
-0.00378147
-0.00423567
-0.00467375
-0.00508867
-0.00547446
-0.00582625
-0.00614023
-0.00641349
-0.00664387
-0.00682987
-0.00697051
-0.00706544
-0.00711531
-0.00712275
-0.00709445
-0.00704337
-0.00698858
-1.48213e-05
3.20626e-07
-1.15828e-05
-4.91632e-05
-0.000109271
-0.00018976
-0.000288141
-0.000401903
-0.000528877
-0.000667327
-0.000815915
-0.000973626
-0.00113968
-0.00131345
-0.00149434
-0.00168172
-0.00187487
-0.00207288
-0.00227465
-0.00247882
-0.00268377
-0.00288759
-0.00308808
-0.00328277
-0.00346892
-0.00364357
-0.00380358
-0.00394567
-0.00406651
-0.00416283
-0.00423148
-0.00426956
-0.00427456
-0.00424447
-0.00417791
-0.0040743
-0.0039339
-0.003758
-0.00354893
-0.00331014
-0.0030462
-0.00276265
-0.0024662
-0.00216435
-0.00186526
-0.00157755
-0.00131003
-0.00107138
-0.00086984
-0.000712889
-0.000606932
-0.000557024
-0.000566635
-0.000637481
-0.000769436
-0.000960521
-0.00120698
-0.00150345
-0.00184318
-0.00221839
-0.00262045
-0.00304044
-0.00346937
-0.00389853
-0.00431979
-0.00472579
-0.00511014
-0.00546745
-0.00579337
-0.00608456
-0.00633853
-0.00655362
-0.0067288
-0.00686371
-0.00695863
-0.00701476
-0.00703495
-0.00702442
-0.00698853
-0.00693369
-4.1149e-06
1.19412e-05
-7.32716e-07
-3.77774e-05
-9.49356e-05
-0.000170321
-0.000261934
-0.000367744
-0.000485978
-0.0006152
-0.000754288
-0.000902374
-0.00105878
-0.00122294
-0.00139431
-0.00157234
-0.00175638
-0.0019456
-0.00213903
-0.00233542
-0.00253331
-0.00273095
-0.00292633
-0.00311716
-0.0033009
-0.00347475
-0.00363574
-0.00378075
-0.00390657
-0.00401
-0.00408795
-0.00413751
-0.00415613
-0.00414171
-0.00409274
-0.00400843
-0.00388883
-0.00373495
-0.00354883
-0.00333357
-0.00309333
-0.00283355
-0.00256038
-0.00228101
-0.00200326
-0.00173546
-0.00148611
-0.00126365
-0.00107609
-0.000930715
-0.000833782
-0.000790227
-0.000803442
-0.000875103
-0.00100508
-0.00119143
-0.00143047
-0.00171696
-0.00204432
-0.00240493
-0.00279052
-0.00319236
-0.00360186
-0.00401067
-0.00441108
-0.00479616
-0.00515996
-0.00549754
-0.00580503
-0.00607951
-0.00631896
-0.00652213
-0.00668845
-0.00681789
-0.00691095
-0.00696873
-0.00699349
-0.00698861
-0.0069528
-0.00688279
3.7198e-05
4.98364e-05
3.44233e-05
-3.86537e-06
-6.04376e-05
-0.000133379
-0.000220922
-0.000321327
-0.000433148
-0.000555243
-0.000686732
-0.000826955
-0.000975407
-0.00113167
-0.00129534
-0.00146599
-0.0016431
-0.00182599
-0.00201381
-0.00220548
-0.0023997
-0.00259487
-0.00278914
-0.00298037
-0.00316613
-0.00334376
-0.00351035
-0.00366281
-0.00379795
-0.00391252
-0.00400333
-0.00406735
-0.00410184
-0.00410447
-0.0040735
-0.00400784
-0.00390727
-0.00377249
-0.00360523
-0.00340833
-0.00318565
-0.00294238
-0.00268452
-0.00241906
-0.00215372
-0.00189674
-0.0016566
-0.00144173
-0.00126017
-0.00111928
-0.00102538
-0.000983484
-0.000997067
-0.00106787
-0.0011958
-0.00137895
-0.00161364
-0.00189461
-0.00221526
-0.00256796
-0.00294439
-0.00333592
-0.00373395
-0.00413028
-0.00451734
-0.00488845
-0.00523795
-0.00556126
-0.00585487
-0.00611631
-0.00634399
-0.0065371
-0.00669543
-0.00681922
-0.006909
-0.00696553
-0.0069903
-0.00698505
-0.00694351
-0.00685586
0.000108192
0.000111583
9.0179e-05
4.85176e-05
-9.37823e-06
-8.16506e-05
-0.000166728
-0.000263201
-0.000369958
-0.000486169
-0.000611241
-0.000744765
-0.000886464
-0.00103613
-0.00119355
-0.00135847
-0.00153057
-0.00170933
-0.00189409
-0.00208394
-0.00227775
-0.00247409
-0.00267124
-0.00286718
-0.00305956
-0.00324577
-0.00342289
-0.0035878
-0.00373719
-0.00386764
-0.00397578
-0.00405831
-0.0041122
-0.00413481
-0.00412403
-0.00407845
-0.00399748
-0.00388148
-0.0037319
-0.00355131
-0.00334333
-0.00311295
-0.00286607
-0.00260963
-0.00235134
-0.00209949
-0.00186267
-0.00164947
-0.00146812
-0.00132619
-0.00123023
-0.00118548
-0.00119561
-0.00126253
-0.00138628
-0.00156502
-0.00179508
-0.00207116
-0.00238659
-0.0027336
-0.00310374
-0.00348826
-0.00387845
-0.00426605
-0.00464351
-0.00500423
-0.00534272
-0.00565465
-0.00593683
-0.00618718
-0.00640454
-0.00658849
-0.00673919
-0.00685714
-0.00694293
-0.00699704
-0.00702037
-0.00701347
-0.00696685
-0.00686674
0.000206241
0.000195297
0.000164756
0.000117611
5.65937e-05
-1.66359e-05
-0.000100752
-0.000194717
-0.000297795
-0.000409506
-0.000529582
-0.000657914
-0.000794497
-0.000939376
-0.00109259
-0.00125411
-0.00142383
-0.00160146
-0.00178654
-0.00197837
-0.00217597
-0.00237808
-0.00258308
-0.00278904
-0.00299364
-0.00319421
-0.00338777
-0.00357103
-0.00374045
-0.00389237
-0.00402306
-0.00412888
-0.00420639
-0.00425253
-0.00426478
-0.00424132
-0.00418115
-0.00408428
-0.00395184
-0.00378622
-0.00359073
-0.00337028
-0.0031307
-0.00287892
-0.00262274
-0.00237062
-0.00213134
-0.00191377
-0.00172645
-0.00157732
-0.00147327
-0.00141992
-0.00142127
-0.00147954
-0.001595
-0.00176597
-0.00198888
-0.00225842
-0.00256782
-0.00290917
-0.00327382
-0.00365278
-0.00403713
-0.00441841
-0.00478893
-0.00514203
-0.00547225
-0.00577539
-0.0060485
-0.0062898
-0.00649846
-0.00667446
-0.00681831
-0.00693078
-0.00701256
-0.00706404
-0.00708574
-0.00707752
-0.00702822
-0.00692222
0.000327531
0.000298007
0.000255704
0.000201183
0.000135396
5.97527e-05
-2.47845e-05
-0.000117629
-0.000218471
-0.000327229
-0.000444002
-0.000569024
-0.000702604
-0.000845084
-0.000996787
-0.00115796
-0.00132876
-0.00150913
-0.00169886
-0.00189744
-0.00210408
-0.00231763
-0.00253656
-0.00275896
-0.00298245
-0.00320426
-0.00342119
-0.00362969
-0.00382591
-0.00400577
-0.00416513
-0.00429984
-0.004406
-0.00448003
-0.00451895
-0.00452044
-0.00448308
-0.00440649
-0.00429153
-0.00414051
-0.00395593
-0.00374309
-0.00350769
-0.00325668
-0.002998
-0.00274029
-0.00249264
-0.00226427
-0.00206415
-0.00190067
-0.00178125
-0.00171201
-0.00169745
-0.00174026
-0.00184109
-0.00199858
-0.00220936
-0.00246822
-0.00276837
-0.00310177
-0.00345955
-0.00383245
-0.00421123
-0.00458712
-0.00495218
-0.00529955
-0.00562364
-0.00592024
-0.00618651
-0.00642082
-0.00662264
-0.00679227
-0.00693053
-0.00703844
-0.0071169
-0.00716634
-0.00718713
-0.0071788
-0.00712977
-0.00702408
0.000467446
0.000415974
0.000359624
0.000296125
0.000224252
0.000144966
5.87812e-05
-3.42587e-05
-0.000134342
-0.00024184
-0.00035726
-0.000481216
-0.000614372
-0.000757405
-0.000910959
-0.00107559
-0.00125174
-0.00143964
-0.00163931
-0.00185045
-0.00207242
-0.00230418
-0.00254423
-0.00279059
-0.00304076
-0.00329175
-0.00354006
-0.00378175
-0.00401252
-0.00422781
-0.0044229
-0.0045931
-0.00473392
-0.00484123
-0.00491146
-0.00494181
-0.00493038
-0.00487636
-0.00478042
-0.00464506
-0.00447028
-0.00426355
-0.00402999
-0.00377647
-0.00351105
-0.00324259
-0.00298051
-0.00273445
-0.00251391
-0.00232785
-0.00218435
-0.00209019
-0.00205058
-0.00206883
-0.00214622
-0.00228189
-0.00247286
-0.00271416
-0.00299913
-0.00331967
-0.00366675
-0.00403083
-0.00440233
-0.00477208
-0.00513175
-0.00547414
-0.0057934
-0.00608515
-0.00634648
-0.00657584
-0.00677283
-0.00693795
-0.00707229
-0.00717714
-0.00725361
-0.00730229
-0.00732356
-0.00731691
-0.00727117
-0.00717116
0.000620908
0.000544692
0.000472481
0.000398775
0.000319751
0.000235796
0.000146855
5.23228e-05
-4.85638e-05
-0.000156683
-0.000273001
-0.000398547
-0.000534376
-0.000681533
-0.000841012
-0.00101371
-0.00120037
-0.00140154
-0.00161745
-0.00184803
-0.00209275
-0.00235062
-0.0026201
-0.00289909
-0.00318486
-0.00347408
-0.00376286
-0.00404675
-0.0043209
-0.00458014
-0.00481912
-0.00503249
-0.0052151
-0.00536219
-0.00546957
-0.00553388
-0.0055527
-0.0055248
-0.00545002
-0.00532919
-0.00516735
-0.0049668
-0.00473361
-0.0044749
-0.00419885
-0.00391455
-0.00363177
-0.00336061
-0.00311116
-0.00289307
-0.00271521
-0.00258524
-0.00250923
-0.0024914
-0.00253388
-0.00263657
-0.00279712
-0.00301107
-0.00327203
-0.00357203
-0.00390198
-0.0042521
-0.00461246
-0.00497345
-0.00532626
-0.00566321
-0.00597802
-0.00626599
-0.00652396
-0.00675026
-0.00694449
-0.00710723
-0.00723974
-0.00734351
-0.00741986
-0.00746959
-0.0074932
-0.00749029
-0.00745068
-0.00736062
0.000782274
0.000679032
0.00058957
0.000504743
0.000417757
0.000328274
0.000235542
0.000138194
3.48071e-05
-7.6059e-05
-0.000195873
-0.000326119
-0.000468272
-0.000623775
-0.000794001
-0.000980207
-0.00118347
-0.00140462
-0.00164414
-0.00190211
-0.00217809
-0.0024711
-0.00277948
-0.00310089
-0.00343228
-0.0037699
-0.00410932
-0.00444552
-0.00477297
-0.00508581
-0.00537796
-0.00564335
-0.0058761
-0.00607074
-0.00622242
-0.00632712
-0.00638186
-0.00638486
-0.00633551
-0.00623438
-0.0060851
-0.00589086
-0.00565728
-0.0053913
-0.00510113
-0.00479605
-0.00448614
-0.00418198
-0.0038943
-0.00363356
-0.00340954
-0.00323094
-0.00310499
-0.00303705
-0.0030304
-0.003086
-0.00320248
-0.00337614
-0.00360117
-0.00386996
-0.0041735
-0.0045019
-0.00484492
-0.0051925
-0.00553525
-0.00586491
-0.00617461
-0.0064591
-0.00671481
-0.00693974
-0.00713328
-0.00729597
-0.00742904
-0.00753411
-0.00761265
-0.00766564
-0.00769376
-0.00769675
-0.00766574
-0.00758885
0.000945333
0.000813222
0.000705482
0.000608902
0.000513358
0.000417611
0.000320071
0.000218504
0.000110743
-5.27627e-06
-0.000131566
-0.000270099
-0.000422801
-0.000591539
-0.000778089
-0.000984082
-0.00121093
-0.00145975
-0.00173124
-0.00202561
-0.00234247
-0.00268072
-0.00303852
-0.00341322
-0.00380134
-0.00419858
-0.00459991
-0.0049996
-0.00539138
-0.0057686
-0.00612439
-0.00645188
-0.00674439
-0.00699568
-0.00720016
-0.00735308
-0.00745078
-0.00749083
-0.00747204
-0.00739454
-0.00726122
-0.00707505
-0.00684133
-0.0065668
-0.00625962
-0.00592914
-0.00558573
-0.00524044
-0.00490464
-0.00458967
-0.00430638
-0.00406468
-0.00387317
-0.00373867
-0.00366594
-0.00365739
-0.00371297
-0.00383014
-0.00400401
-0.00422764
-0.00449238
-0.00478839
-0.00510524
-0.00543242
-0.00575995
-0.00607883
-0.00638146
-0.00666185
-0.00691576
-0.00714063
-0.00733546
-0.00750043
-0.00763666
-0.00774569
-0.00782904
-0.00788782
-0.00792278
-0.00793383
-0.00791355
-0.00785211
0.00110314
0.000940822
0.000814115
0.000705388
0.000600847
0.000498168
0.000394777
0.000287459
0.000173227
4.93383e-05
-8.68077e-05
-0.000237703
-0.000405754
-0.000593275
-0.000802462
-0.00103533
-0.00129362
-0.00157871
-0.0018915
-0.00223226
-0.00260056
-0.00299516
-0.00341391
-0.00385376
-0.00431069
-0.00477979
-0.00525528
-0.00573068
-0.00619888
-0.00665237
-0.00708343
-0.00748429
-0.00784744
-0.00816578
-0.00843287
-0.00864319
-0.00879227
-0.00887692
-0.00889528
-0.00884702
-0.00873384
-0.0085586
-0.00832611
-0.00804275
-0.00771648
-0.00735666
-0.00697382
-0.00657941
-0.00618546
-0.00580421
-0.00544766
-0.00512712
-0.00485276
-0.00463316
-0.00447493
-0.00438231
-0.00435703
-0.00439817
-0.00450222
-0.00466328
-0.00487343
-0.00512316
-0.00540202
-0.00569915
-0.00600396
-0.00630665
-0.00659868
-0.00687313
-0.00712483
-0.00735041
-0.00754813
-0.00771767
-0.00785971
-0.00797553
-0.00806652
-0.00813375
-0.00817801
-0.00819923
-0.00819148
-0.00814696
0.0012482
0.00105476
0.000908693
0.000787623
0.000673749
0.000563479
0.000453112
0.000338343
0.000215293
8.04846e-05
-6.93059e-05
-0.000237125
-0.000425882
-0.000638363
-0.00087719
-0.00114476
-0.00144314
-0.00177394
-0.0021382
-0.0025362
-0.0029674
-0.00343032
-0.00392242
-0.00444014
-0.00497884
-0.00553288
-0.00609569
-0.00665992
-0.00721757
-0.0077602
-0.00827915
-0.00876573
-0.00921146
-0.00960834
-0.00994903
-0.0102271
-0.0104371
-0.0105751
-0.0106385
-0.010626
-0.0105385
-0.0103784
-0.0101497
-0.00985838
-0.00951208
-0.00911998
-0.00869266
-0.00824188
-0.00778023
-0.00732083
-0.00687686
-0.00646114
-0.00608561
-0.00576088
-0.00549572
-0.00529668
-0.00516774
-0.00511012
-0.00512221
-0.00519971
-0.00533586
-0.00552189
-0.00574761
-0.006002
-0.00627389
-0.00655265
-0.00682866
-0.00709382
-0.00734177
-0.007568
-0.00776975
-0.00794583
-0.00809621
-0.00822164
-0.00832316
-0.00840163
-0.00845765
-0.0084911
-0.00849738
-0.00847066
0.00137238
0.00114733
0.000981813
0.000848355
0.000724873
0.000606316
0.000487721
0.000363598
0.000229109
7.99934e-05
-8.76316e-05
-0.000277396
-0.000492739
-0.000736928
-0.00101302
-0.00132379
-0.00167159
-0.00205825
-0.00248486
-0.00295167
-0.00345794
-0.00400184
-0.00458038
-0.00518937
-0.00582347
-0.00647622
-0.00714019
-0.00780707
-0.00846791
-0.00911327
-0.00973348
-0.0103188
-0.0108599
-0.0113476
-0.0117736
-0.0121305
-0.0124119
-0.0126129
-0.0127299
-0.0127609
-0.0127057
-0.0125659
-0.0123448
-0.0120478
-0.0116819
-0.0112561
-0.0107806
-0.0102676
-0.00972993
-0.00918155
-0.00863676
-0.00810989
-0.00761479
-0.00716428
-0.00676963
-0.00644008
-0.00618238
-0.00600046
-0.00589526
-0.00586466
-0.0059037
-0.00600487
-0.00615866
-0.00635417
-0.00657986
-0.00682422
-0.00707648
-0.00732713
-0.00756833
-0.00779407
-0.00800021
-0.0081843
-0.00834527
-0.00848301
-0.00859791
-0.00869036
-0.00876059
-0.00880823
-0.00882986
-0.00882139
0.00146701
0.00121035
0.00102554
0.000879763
0.000746406
0.000618788
0.000490558
0.000354955
0.000206124
3.89857e-05
-0.000151041
-0.000368195
-0.000616462
-0.0008996
-0.0012211
-0.0015841
-0.00199122
-0.00244442
-0.00294483
-0.00349255
-0.00408656
-0.00472461
-0.00540313
-0.00611724
-0.00686078
-0.00762643
-0.00840576
-0.00918949
-0.00996759
-0.0107296
-0.0114647
-0.0121622
-0.0128115
-0.0134024
-0.0139258
-0.0143729
-0.0147365
-0.0150105
-0.0151904
-0.0152731
-0.0152575
-0.0151442
-0.0149358
-0.0146366
-0.0142533
-0.0137939
-0.0132688
-0.0126896
-0.0120697
-0.0114235
-0.0107663
-0.0101139
-0.00948198
-0.00888567
-0.00833898
-0.00785418
-0.00744127
-0.00710749
-0.00685698
-0.00669059
-0.00660584
-0.00659719
-0.00665639
-0.00677315
-0.00693582
-0.00713217
-0.00735021
-0.00757887
-0.00780849
-0.0080312
-0.00824105
-0.00843391
-0.00860723
-0.00875967
-0.00889061
-0.00899969
-0.00908651
-0.00915022
-0.00918842
-0.00919844
0.00152302
0.00123522
0.00103152
0.000873577
0.000730058
0.000592492
0.000453042
0.000303606
0.000137264
-5.19212e-05
-0.000269251
-0.000519595
-0.000807499
-0.00113722
-0.00151268
-0.00193734
-0.00241405
-0.00294487
-0.00353084
-0.00417188
-0.00486658
-0.00561216
-0.00640438
-0.00723758
-0.00810471
-0.00899745
-0.00990635
-0.010821
-0.0117303
-0.0126226
-0.013486
-0.0143086
-0.0150786
-0.015785
-0.0164171
-0.0169654
-0.0174215
-0.0177783
-0.0180301
-0.0181729
-0.0182046
-0.0181248
-0.0179349
-0.0176387
-0.0172415
-0.0167511
-0.016177
-0.0155306
-0.0148251
-0.0140753
-0.0132971
-0.0125076
-0.0117241
-0.0109641
-0.0102444
-0.00958039
-0.00898582
-0.00847176
-0.00804625
-0.00771388
-0.00747556
-0.00732853
-0.00726663
-0.00728081
-0.0073598
-0.00749096
-0.00766116
-0.0078576
-0.00806857
-0.00828395
-0.00849549
-0.0086969
-0.00888366
-0.00905273
-0.00920208
-0.00933027
-0.00943596
-0.00951762
-0.0095734
-0.00960218
0.00153111
0.00121311
0.000991153
0.000821252
0.00066723
0.000518708
0.000366269
0.000200425
1.31556e-05
-0.000202359
-0.000452162
-0.000741771
-0.0010763
-0.00146051
-0.00189872
-0.00239471
-0.00295148
-0.00357112
-0.00425454
-0.00500134
-0.00580965
-0.00667605
-0.00759555
-0.00856157
-0.00956609
-0.0105997
-0.0116518
-0.0127109
-0.0137645
-0.0147999
-0.0158039
-0.0167634
-0.0176656
-0.0184981
-0.0192493
-0.0199085
-0.0204663
-0.0209146
-0.0212467
-0.0214576
-0.021544
-0.0215047
-0.0213401
-0.0210528
-0.0206474
-0.0201304
-0.0195107
-0.018799
-0.0180081
-0.0171527
-0.0162491
-0.0153151
-0.0143695
-0.0134317
-0.0125211
-0.0116567
-0.0108557
-0.0101337
-0.00950327
-0.00897347
-0.00854955
-0.00823258
-0.00801947
-0.00790331
-0.00787395
-0.00791883
-0.00802393
-0.00817477
-0.00835737
-0.00855895
-0.00876849
-0.00897697
-0.00917736
-0.00936437
-0.00953411
-0.0096836
-0.00981029
-0.00991166
-0.00998625
-0.0100341
0.00148191
0.00113516
0.00089579
0.000714162
0.000549231
0.00038861
0.000221242
3.62201e-05
-0.000175596
-0.000421922
-0.00070956
-0.00104468
-0.00143298
-0.0018797
-0.00238955
-0.00296655
-0.00361384
-0.00433342
-0.005126
-0.00599075
-0.00692524
-0.00792531
-0.00898507
-0.010097
-0.0112518
-0.0124391
-0.013647
-0.0148626
-0.0160722
-0.0172619
-0.0184171
-0.0195235
-0.0205672
-0.0215346
-0.022413
-0.0231909
-0.0238578
-0.0244046
-0.0248238
-0.0251095
-0.0252574
-0.0252654
-0.0251328
-0.0248613
-0.0244542
-0.0239172
-0.0232579
-0.0224862
-0.0216141
-0.0206558
-0.0196273
-0.0185467
-0.0174338
-0.0163095
-0.0151955
-0.0141137
-0.0130855
-0.0121307
-0.0112669
-0.0105086
-0.00986628
-0.00934585
-0.00894851
-0.00867066
-0.00850428
-0.00843769
-0.0084565
-0.00854477
-0.00868614
-0.00886487
-0.00906668
-0.00927921
-0.00949227
-0.00969774
-0.00988931
-0.010062
-0.0102117
-0.0103345
-0.0104292
-0.0104967
0.00136626
0.000992678
0.00073693
0.000543828
0.000367511
0.000193522
9.13263e-06
-0.000197993
-0.000438118
-0.00071986
-0.00105079
-0.00143773
-0.00188695
-0.00240417
-0.00299442
-0.00366196
-0.00440993
-0.00524022
-0.0061532
-0.00714752
-0.00822005
-0.00936576
-0.0105778
-0.0118474
-0.0131643
-0.0145165
-0.0158909
-0.0172732
-0.0186484
-0.0200011
-0.0213156
-0.0225762
-0.023768
-0.0248762
-0.0258874
-0.0267889
-0.0275695
-0.0282195
-0.0287305
-0.0290959
-0.0293108
-0.0293718
-0.0292776
-0.0290288
-0.0286277
-0.0280787
-0.0273883
-0.0265651
-0.0256199
-0.0245659
-0.0234185
-0.0221954
-0.0209165
-0.0196038
-0.0182805
-0.0169711
-0.0157006
-0.0144931
-0.0133716
-0.0123562
-0.0114636
-0.0107058
-0.0100895
-0.00961583
-0.00928018
-0.00907291
-0.00898011
-0.00898486
-0.00906859
-0.00921241
-0.00939831
-0.00960998
-0.00983339
-0.0100569
-0.0102711
-0.0104685
-0.0106429
-0.0107889
-0.010905
-0.0109934
0.00117541
0.000777377
0.000506475
0.000302158
0.000113911
-7.48208e-05
-0.000278439
-0.000510694
-0.000782959
-0.00110475
-0.00148441
-0.00192941
-0.00244657
-0.00304204
-0.00372118
-0.00448835
-0.00534668
-0.00629779
-0.00734162
-0.00847619
-0.00969753
-0.0109996
-0.0123744
-0.013812
-0.0153006
-0.0168268
-0.0183761
-0.0199328
-0.0214803
-0.0230018
-0.0244804
-0.0258993
-0.0272423
-0.028494
-0.0296399
-0.0306668
-0.0315629
-0.0323177
-0.0329226
-0.0333704
-0.0336554
-0.0337738
-0.0337235
-0.033504
-0.0331167
-0.0325648
-0.0318534
-0.0309897
-0.0299831
-0.0288452
-0.0275902
-0.0262349
-0.0247985
-0.023303
-0.0217726
-0.0202335
-0.0187135
-0.0172408
-0.0158432
-0.0145472
-0.0133759
-0.0123485
-0.0114786
-0.0107734
-0.0102335
-0.00985271
-0.00961891
-0.00951508
-0.00952087
-0.00961428
-0.00977324
-0.00997691
-0.0102067
-0.0104466
-0.0106835
-0.0109067
-0.0111074
-0.0112782
-0.0114175
-0.0115279
0.000901316
0.000481637
0.000196964
-1.82998e-05
-0.000219077
-0.000423999
-0.000649118
-0.000909561
-0.00121779
-0.00158421
-0.00201789
-0.00252697
-0.00311878
-0.00379987
-0.00457584
-0.00545111
-0.00642868
-0.00750981
-0.00869386
-0.00997807
-0.0113575
-0.012825
-0.0143712
-0.0159848
-0.0176524
-0.0193592
-0.0210889
-0.0228243
-0.0245475
-0.0262402
-0.0278842
-0.0294616
-0.0309554
-0.0323493
-0.0336283
-0.0347787
-0.0357884
-0.0366467
-0.0373446
-0.0378746
-0.0382309
-0.0384091
-0.0384065
-0.038222
-0.0378559
-0.0373104
-0.0365892
-0.0356978
-0.0346441
-0.0334378
-0.0320914
-0.0306199
-0.0290413
-0.0273766
-0.0256498
-0.023888
-0.0221207
-0.0203792
-0.0186959
-0.0171029
-0.0156305
-0.0143055
-0.0131494
-0.0121775
-0.011397
-0.0108073
-0.0103995
-0.0101579
-0.0100614
-0.0100851
-0.0102029
-0.0103888
-0.010619
-0.0108723
-0.011131
-0.0113805
-0.0116088
-0.0118061
-0.0119703
-0.0121048
0.000536856
9.87336e-05
-0.00019818
-0.00042411
-0.000638046
-0.00086064
-0.00110954
-0.00140119
-0.0017491
-0.00216454
-0.0026573
-0.00323611
-0.00390882
-0.0046823
-0.00556232
-0.00655329
-0.00765793
-0.00887705
-0.0102093
-0.0116509
-0.0131959
-0.0148358
-0.0165597
-0.0183547
-0.0202059
-0.0220966
-0.024009
-0.0259242
-0.0278228
-0.0296851
-0.0314919
-0.0332242
-0.0348644
-0.0363955
-0.0378023
-0.0390709
-0.0401891
-0.0411461
-0.0419331
-0.0425426
-0.0429687
-0.0432068
-0.043254
-0.0431085
-0.0427701
-0.0422397
-0.0415198
-0.0406144
-0.0395295
-0.0382729
-0.0368547
-0.0352879
-0.0335883
-0.0317751
-0.0298711
-0.0279028
-0.0259003
-0.0238969
-0.0219285
-0.020032
-0.0182445
-0.0166006
-0.0151309
-0.0138596
-0.0128029
-0.0119674
-0.01135
-0.0109379
-0.0107107
-0.0106414
-0.0107001
-0.0108556
-0.0110779
-0.01134
-0.0116185
-0.0118942
-0.0121512
-0.0123767
-0.0125678
-0.0127287
7.60862e-05
-0.00037693
-0.000684418
-0.000920712
-0.00114843
-0.00139016
-0.00166506
-0.00199083
-0.00238195
-0.00285051
-0.00340699
-0.0040607
-0.00481991
-0.00569177
-0.00668215
-0.00779531
-0.00903359
-0.0103972
-0.0118838
-0.0134888
-0.0152047
-0.0170215
-0.0189268
-0.0209059
-0.022942
-0.0250168
-0.0271106
-0.0292029
-0.0312728
-0.0332995
-0.0352627
-0.0371426
-0.038921
-0.0405809
-0.0421067
-0.0434848
-0.0447031
-0.0457513
-0.0466208
-0.0473045
-0.0477964
-0.0480922
-0.0481892
-0.0480851
-0.0477791
-0.0472713
-0.0465631
-0.045657
-0.0445572
-0.0432693
-0.0418011
-0.040163
-0.038368
-0.0364328
-0.0343779
-0.0322279
-0.0300123
-0.0277646
-0.0255226
-0.0233273
-0.0212211
-0.0192466
-0.0174432
-0.0158455
-0.0144799
-0.0133627
-0.0124987
-0.0118807
-0.0114906
-0.0113013
-0.0112793
-0.0113884
-0.011592
-0.0118563
-0.0121515
-0.0124525
-0.0127388
-0.0129939
-0.013214
-0.0134041
-0.000485546
-0.000949612
-0.00126589
-0.0015122
-0.0017543
-0.00201657
-0.00231956
-0.00268214
-0.00311971
-0.0036451
-0.00426944
-0.00500256
-0.00585308
-0.00682839
-0.0079343
-0.00917483
-0.0105518
-0.0120647
-0.0137101
-0.0154821
-0.0173718
-0.0193675
-0.021455
-0.0236177
-0.025837
-0.0280925
-0.0303629
-0.0326261
-0.0348599
-0.0370421
-0.0391517
-0.0411686
-0.0430739
-0.0448508
-0.0464841
-0.0479603
-0.0492679
-0.0503973
-0.0513403
-0.0520905
-0.0526423
-0.0529911
-0.0531366
-0.0530744
-0.0528037
-0.0523242
-0.0516364
-0.0507416
-0.0496422
-0.0483418
-0.0468458
-0.0451616
-0.0432993
-0.0412723
-0.0390979
-0.036798
-0.0343995
-0.031935
-0.0294424
-0.0269645
-0.0245483
-0.0222425
-0.0200956
-0.0181525
-0.0164511
-0.0150194
-0.0138727
-0.013012
-0.0124243
-0.0120841
-0.0119561
-0.0119992
-0.0121705
-0.0124283
-0.0127353
-0.0130599
-0.0133758
-0.0136619
-0.0139133
-0.0141356
-0.00115102
-0.00162205
-0.00194521
-0.00220115
-0.00245815
-0.00274222
-0.00307522
-0.00347703
-0.00396389
-0.00454932
-0.00524503
-0.00606128
-0.00700703
-0.00808972
-0.00931507
-0.0106867
-0.0122058
-0.0138708
-0.0156773
-0.0176177
-0.0196816
-0.0218555
-0.0241231
-0.0264659
-0.0288633
-0.031293
-0.033732
-0.0361566
-0.0385433
-0.0408692
-0.0431125
-0.0452527
-0.0472712
-0.0491512
-0.0508781
-0.0524391
-0.0538234
-0.0550222
-0.0560283
-0.0568357
-0.0574402
-0.057839
-0.0580269
-0.0580045
-0.05777
-0.0573225
-0.0566618
-0.0557882
-0.0547025
-0.0534066
-0.0519036
-0.050198
-0.0482968
-0.0462097
-0.0439502
-0.0415365
-0.0389919
-0.0363461
-0.0336355
-0.0309028
-0.0281972
-0.0255722
-0.0230836
-0.0207866
-0.018731
-0.0169579
-0.0154955
-0.0143559
-0.0135344
-0.0130097
-0.0127469
-0.0127011
-0.0128231
-0.0130633
-0.0133758
-0.0137211
-0.0140661
-0.0143845
-0.0146694
-0.0149274
-0.00192158
-0.00239532
-0.00272339
-0.00298846
-0.00326076
-0.00356774
-0.00393239
-0.00437549
-0.00491401
-0.00556209
-0.00633194
-0.00723419
-0.008278
-0.00947081
-0.0108181
-0.0123229
-0.0139857
-0.0158038
-0.0177714
-0.0198793
-0.0221153
-0.0244638
-0.0269066
-0.0294231
-0.0319905
-0.0345849
-0.0371815
-0.0397552
-0.0422814
-0.0447366
-0.0470985
-0.0493467
-0.0514627
-0.0534305
-0.0552359
-0.0568672
-0.0583146
-0.0595703
-0.0606279
-0.0614826
-0.0621308
-0.06257
-0.0627976
-0.0628124
-0.0626134
-0.0621996
-0.0615704
-0.0607253
-0.0596641
-0.0583871
-0.0568953
-0.0551907
-0.0532772
-0.0511608
-0.0488509
-0.0463612
-0.0437108
-0.0409249
-0.0380364
-0.0350863
-0.0321232
-0.0292033
-0.0263879
-0.0237406
-0.0213232
-0.0191905
-0.0173852
-0.0159336
-0.0148424
-0.0140981
-0.0136687
-0.0135078
-0.0135606
-0.0137693
-0.0140789
-0.0144408
-0.0148139
-0.0151653
-0.0154861
-0.0157832
-0.00279668
-0.00326875
-0.00359965
-0.00387328
-0.00416113
-0.00449189
-0.00488951
-0.00537552
-0.00596754
-0.00668021
-0.00752614
-0.00851628
-0.00965985
-0.0109642
-0.0124344
-0.0140729
-0.0158791
-0.0178491
-0.0199756
-0.0222477
-0.024651
-0.0271682
-0.0297786
-0.0324596
-0.0351866
-0.0379336
-0.0406744
-0.0433827
-0.0460331
-0.0486016
-0.0510657
-0.0534052
-0.0556024
-0.0576418
-0.0595103
-0.0611973
-0.062694
-0.0639937
-0.0650913
-0.065983
-0.0666661
-0.0671387
-0.0673994
-0.0674472
-0.0672813
-0.0669009
-0.0663053
-0.0654935
-0.0644646
-0.0632175
-0.0617517
-0.060067
-0.0581644
-0.0560466
-0.0537189
-0.0511903
-0.0484747
-0.0455924
-0.0425711
-0.0394477
-0.0362684
-0.0330891
-0.029974
-0.0269933
-0.0242189
-0.0217189
-0.0195521
-0.0177608
-0.0163667
-0.0153676
-0.0147382
-0.0144332
-0.0143938
-0.0145545
-0.0148507
-0.0152236
-0.0156227
-0.0160076
-0.0163664
-0.0167063
-0.00377388
-0.00423987
-0.00457146
-0.00485296
-0.00515642
-0.00551153
-0.00594305
-0.00647314
-0.00711987
-0.00789832
-0.00882142
-0.00990027
-0.0111441
-0.01256
-0.0141526
-0.0159235
-0.017871
-0.0199898
-0.0222709
-0.0247016
-0.0272654
-0.0299426
-0.0327108
-0.035545
-0.0384187
-0.0413044
-0.0441743
-0.0470013
-0.0497594
-0.0524241
-0.0549734
-0.0573876
-0.0596495
-0.0617446
-0.0636611
-0.0653894
-0.0669222
-0.0682538
-0.0693803
-0.070299
-0.0710083
-0.0715069
-0.0717943
-0.0718701
-0.0717339
-0.0713852
-0.0708232
-0.0700469
-0.0690549
-0.0678453
-0.0664164
-0.0647662
-0.0628935
-0.0607979
-0.0584809
-0.0559471
-0.0532051
-0.0502693
-0.0471616
-0.043913
-0.0405651
-0.0371709
-0.0337945
-0.0305096
-0.0273958
-0.0245335
-0.021997
-0.0198465
-0.0181212
-0.0168343
-0.0159711
-0.0154909
-0.0153336
-0.0154272
-0.0156972
-0.0160739
-0.0164961
-0.0169143
-0.0173128
-0.0176992
-0.00484889
-0.00530441
-0.0056345
-0.00592303
-0.00624192
-0.00662166
-0.00708761
-0.00766237
-0.00836439
-0.00920903
-0.0102094
-0.0113768
-0.0127202
-0.0142464
-0.0159593
-0.0178596
-0.0199445
-0.022207
-0.0246364
-0.027218
-0.0299332
-0.0327601
-0.0356742
-0.0386484
-0.0416545
-0.0446635
-0.0476465
-0.0505755
-0.0534242
-0.0561683
-0.058786
-0.0612583
-0.0635692
-0.0657051
-0.0676555
-0.0694121
-0.0709687
-0.0723211
-0.0734664
-0.0744031
-0.0751303
-0.0756478
-0.0759557
-0.0760543
-0.0759437
-0.0756238
-0.0750939
-0.0743532
-0.0734
-0.0722322
-0.0708471
-0.0692417
-0.0674128
-0.0653577
-0.0630749
-0.0605645
-0.0578303
-0.0548809
-0.0517316
-0.0484065
-0.0449407
-0.0413818
-0.0377908
-0.0342418
-0.0308189
-0.0276121
-0.0247099
-0.0221907
-0.0201134
-0.0185099
-0.0173805
-0.0166936
-0.0163907
-0.0163956
-0.0166243
-0.0169958
-0.0174368
-0.0178875
-0.0183275
-0.0187637
-0.00601564
-0.00645638
-0.00678273
-0.0070773
-0.00741121
-0.00781548
-0.00831593
-0.00893541
-0.0096926
-0.010603
-0.0116799
-0.0129345
-0.0143755
-0.0160093
-0.017839
-0.0198643
-0.0220808
-0.0244803
-0.0270499
-0.0297729
-0.0326288
-0.0355934
-0.03864
-0.0417399
-0.0448631
-0.0479793
-0.0510588
-0.054073
-0.0569956
-0.0598026
-0.0624728
-0.064988
-0.0673333
-0.0694965
-0.0714682
-0.0732415
-0.0748114
-0.0761749
-0.0773303
-0.078277
-0.079015
-0.079545
-0.0798677
-0.0799841
-0.0798947
-0.0795999
-0.0790995
-0.0783927
-0.077478
-0.0763533
-0.0750154
-0.0734606
-0.0716847
-0.0696832
-0.0674519
-0.0649877
-0.0622898
-0.0593612
-0.0562108
-0.0528552
-0.0493218
-0.0456509
-0.0418977
-0.038133
-0.0344419
-0.0309207
-0.0276695
-0.0247837
-0.0223431
-0.0204009
-0.0189764
-0.0180517
-0.0175746
-0.017467
-0.0176375
-0.0179929
-0.0184474
-0.0189289
-0.0194113
-0.0199007
-0.00726633
-0.00768815
-0.0080085
-0.00830796
-0.0086562
-0.00908455
-0.00961908
-0.0102827
-0.0110943
-0.0120693
-0.013221
-0.0145603
-0.0160958
-0.0178332
-0.0197748
-0.021919
-0.0242602
-0.0267882
-0.0294884
-0.0323421
-0.0353265
-0.0384155
-0.0415805
-0.0447909
-0.0480154
-0.0512227
-0.0543823
-0.0574656
-0.0604462
-0.0633006
-0.0660086
-0.068553
-0.07092
-0.0730987
-0.0750809
-0.0768611
-0.0784355
-0.0798022
-0.0809604
-0.0819105
-0.0826534
-0.0831904
-0.0835229
-0.0836524
-0.0835799
-0.0833063
-0.0828318
-0.0821561
-0.0812779
-0.0801951
-0.0789049
-0.0774031
-0.0756849
-0.0737447
-0.0715766
-0.0691749
-0.0665351
-0.0636553
-0.0605382
-0.0571931
-0.0536392
-0.0499081
-0.0460468
-0.0421199
-0.0382099
-0.034415
-0.0308436
-0.0276059
-0.0248014
-0.0225068
-0.0207639
-0.0195731
-0.0188931
-0.0186482
-0.0187413
-0.0190683
-0.0195292
-0.020039
-0.0205644
-0.02111
-0.00859166
-0.00899062
-0.00930271
-0.00960575
-0.00996734
-0.0104189
-0.0109866
-0.0116933
-0.0125577
-0.0135953
-0.0148191
-0.0162399
-0.0178658
-0.0197016
-0.0217489
-0.0240048
-0.0264621
-0.029109
-0.031929
-0.0349013
-0.0380012
-0.0412007
-0.0444692
-0.0477748
-0.051085
-0.0543675
-0.0575916
-0.0607287
-0.0637526
-0.0666408
-0.0693736
-0.0719353
-0.0743131
-0.0764974
-0.0784813
-0.0802605
-0.0818324
-0.083196
-0.0843515
-0.0853
-0.086043
-0.0865826
-0.0869206
-0.087059
-0.0869995
-0.0867432
-0.0862909
-0.0856426
-0.0847975
-0.0837541
-0.0825095
-0.0810599
-0.0794004
-0.0775249
-0.0754264