/*--------------------------------*- C++ -*----------------------------------*\
  =========                 |
  \\      /  F ield         | OpenFOAM: The Open Source CFD Toolbox
   \\    /   O peration     | Website:  https://openfoam.org
    \\  /    A nd           | Version:  7
     \\/     M anipulation  |
\*---------------------------------------------------------------------------*/
FoamFile
{
    version     2.0;
    format      ascii;
    class       volVectorField;
    location    "3.425";
    object      U;
}
// * * * * * * * * * * * * * * * * * * * * * * * * * * * * * * * * * * * * * //

dimensions      [0 1 -1 0 0 0 0];

internalField   nonuniform List<vector> 
6400
(
(1.05912e-05 -1.06028e-05 0)
(7.21581e-05 -3.82667e-05 0)
(0.000186467 -5.01856e-05 0)
(0.000308368 -4.92091e-05 0)
(0.000412442 -4.12466e-05 0)
(0.000486124 -3.00835e-05 0)
(0.000523325 -1.78632e-05 0)
(0.000521885 -5.72808e-06 0)
(0.000481909 5.8012e-06 0)
(0.000404563 1.65752e-05 0)
(0.000291322 2.66508e-05 0)
(0.000143535 3.61856e-05 0)
(-3.77983e-05 4.5379e-05 0)
(-0.000252101 5.44305e-05 0)
(-0.000499211 6.35161e-05 0)
(-0.000779304 7.27745e-05 0)
(-0.00109278 8.23008e-05 0)
(-0.00144014 9.21423e-05 0)
(-0.00182185 0.000102299 0)
(-0.00223817 0.000112726 0)
(-0.00268907 0.000123335 0)
(-0.00317407 0.000133995 0)
(-0.00369213 0.000144539 0)
(-0.00424156 0.000154766 0)
(-0.0048199 0.00016444 0)
(-0.00542389 0.000173299 0)
(-0.00604937 0.000181056 0)
(-0.00669127 0.000187403 0)
(-0.00734355 0.000192022 0)
(-0.00799928 0.000194587 0)
(-0.0086506 0.000194776 0)
(-0.00928883 0.000192283 0)
(-0.00990456 0.000186823 0)
(-0.0104878 0.000178154 0)
(-0.011028 0.000166083 0)
(-0.0115147 0.000150482 0)
(-0.011937 0.000131303 0)
(-0.0122845 0.000108588 0)
(-0.0125475 8.24803e-05 0)
(-0.0127167 5.32306e-05 0)
(-0.0127846 2.12164e-05 0)
(-0.0127444 -1.30003e-05 0)
(-0.0125914 -4.89365e-05 0)
(-0.0123231 -8.58589e-05 0)
(-0.011939 -0.000122954 0)
(-0.011441 -0.00015935 0)
(-0.0108338 -0.000194131 0)
(-0.0101245 -0.000226366 0)
(-0.00932262 -0.000255144 0)
(-0.0084404 -0.00027961 0)
(-0.00749211 -0.000299007 0)
(-0.00649389 -0.00031271 0)
(-0.00546337 -0.000320262 0)
(-0.00441912 -0.000321399 0)
(-0.00338017 -0.000316075 0)
(-0.00236538 -0.000304463 0)
(-0.00139285 -0.000286952 0)
(-0.000479329 -0.000264148 0)
(0.000360136 -0.000236868 0)
(0.00111285 -0.000205916 0)
(0.00176884 -0.000172358 0)
(0.00232084 -0.000137237 0)
(0.00276458 -0.000101572 0)
(0.00309865 -6.63302e-05 0)
(0.00332439 -3.23762e-05 0)
(0.00344558 -4.37036e-07 0)
(0.00346811 2.89162e-05 0)
(0.00339961 5.52737e-05 0)
(0.00324903 7.83726e-05 0)
(0.00302633 9.80621e-05 0)
(0.00274222 0.000114247 0)
(0.00240814 0.0001268 0)
(0.00203641 0.000135438 0)
(0.00164076 0.000139551 0)
(0.00123723 0.000137971 0)
(0.000845549 0.00012874 0)
(0.00049066 0.000108988 0)
(0.000203304 7.50737e-05 0)
(1.93773e-05 2.5313e-05 0)
(-2.09773e-05 -2.11099e-05 0)
(3.90421e-05 -7.28149e-05 0)
(0.000179748 -0.000178503 0)
(0.000397823 -0.00021709 0)
(0.000614391 -0.000203444 0)
(0.000781876 -0.000157471 0)
(0.000873622 -9.37377e-05 0)
(0.000874041 -2.17667e-05 0)
(0.00077541 5.26533e-05 0)
(0.000575229 0.000126367 0)
(0.000273902 0.000197984 0)
(-0.000126892 0.000267217 0)
(-0.000625214 0.000334407 0)
(-0.00121946 0.000400205 0)
(-0.00190859 0.00046534 0)
(-0.00269221 0.000530467 0)
(-0.00357036 0.000596079 0)
(-0.00454334 0.000662441 0)
(-0.00561138 0.000729566 0)
(-0.0067743 0.000797203 0)
(-0.00803121 0.000864839 0)
(-0.00938016 0.000931713 0)
(-0.0108178 0.000996835 0)
(-0.0123392 0.001059 0)
(-0.0139376 0.00111683 0)
(-0.0156039 0.00116879 0)
(-0.0173272 0.0012132 0)
(-0.019094 0.00124833 0)
(-0.0208887 0.00127237 0)
(-0.0226932 0.00128354 0)
(-0.0244873 0.0012801 0)
(-0.0262489 0.00126042 0)
(-0.0279542 0.00122306 0)
(-0.029578 0.00116678 0)
(-0.0310939 0.00109067 0)
(-0.0324754 0.000994172 0)
(-0.0336958 0.000877162 0)
(-0.0347292 0.000739979 0)
(-0.035551 0.000583483 0)
(-0.0361385 0.000409085 0)
(-0.0364717 0.00021874 0)
(-0.0365339 1.5e-05 0)
(-0.0363124 -0.000198764 0)
(-0.0357986 -0.000419183 0)
(-0.0349893 -0.000642157 0)
(-0.0338868 -0.000863204 0)
(-0.0324988 -0.0010776 0)
(-0.0308388 -0.00128049 0)
(-0.0289265 -0.00146705 0)
(-0.0267867 -0.0016326 0)
(-0.02445 -0.00177284 0)
(-0.0219515 -0.00188398 0)
(-0.0193302 -0.00196291 0)
(-0.0166285 -0.00200736 0)
(-0.0138908 -0.00201603 0)
(-0.0111623 -0.00198864 0)
(-0.00848834 -0.00192603 0)
(-0.00591233 -0.00183009 0)
(-0.00347516 -0.00170376 0)
(-0.00121382 -0.00155094 0)
(0.000839566 -0.00137607 0)
(0.00265863 -0.00118432 0)
(0.00422336 -0.00098116 0)
(0.00552034 -0.00077208 0)
(0.0065429 -0.000562418 0)
(0.00729094 -0.000357141 0)
(0.00777051 -0.000160667 0)
(0.00799318 2.32472e-05 0)
(0.00797542 0.000191555 0)
(0.00773774 0.000341868 0)
(0.00730412 0.000472317 0)
(0.00670151 0.0005813 0)
(0.00595965 0.000667115 0)
(0.00511136 0.000727471 0)
(0.00419321 0.000758895 0)
(0.00324686 0.000756092 0)
(0.00232054 0.000711551 0)
(0.0014696 0.000615953 0)
(0.000754596 0.000460149 0)
(0.000245401 0.000244045 0)
(2.596e-05 1.95916e-05 0)
(5.20421e-05 -0.000189257 0)
(0.000219917 -0.000397572 0)
(0.000456172 -0.000455869 0)
(0.000664584 -0.000403051 0)
(0.000788104 -0.000276936 0)
(0.000793726 -0.000107035 0)
(0.000660701 8.58345e-05 0)
(0.000377482 0.000288121 0)
(-6.09993e-05 0.000491847 0)
(-0.000655936 0.000692993 0)
(-0.00140658 0.000890168 0)
(-0.0023115 0.00108358 0)
(-0.00336933 0.00127425 0)
(-0.00457907 0.00146347 0)
(-0.00594015 0.0016524 0)
(-0.00745223 0.00184181 0)
(-0.00911487 0.00203193 0)
(-0.0109271 0.00222233 0)
(-0.0128869 0.00241192 0)
(-0.0149909 0.00259892 0)
(-0.0172338 0.00278093 0)
(-0.0196079 0.00295496 0)
(-0.0221027 0.0031175 0)
(-0.024705 0.0032646 0)
(-0.0273982 0.00339198 0)
(-0.0301624 0.00349509 0)
(-0.0329742 0.0035693 0)
(-0.0358073 0.00360996 0)
(-0.0386319 0.00361254 0)
(-0.0414156 0.00357283 0)
(-0.0441235 0.00348704 0)
(-0.0467187 0.00335199 0)
(-0.0491632 0.00316523 0)
(-0.051418 0.00292522 0)
(-0.0534447 0.00263144 0)
(-0.0552055 0.00228455 0)
(-0.0566644 0.00188641 0)
(-0.0577882 0.00144025 0)
(-0.0585471 0.000950596 0)
(-0.0589159 0.000423336 0)
(-0.058874 -0.000134342 0)
(-0.0584072 -0.000713773 0)
(-0.0575076 -0.00130551 0)
(-0.0561743 -0.00189907 0)
(-0.0544137 -0.00248322 0)
(-0.05224 -0.00304626 0)
(-0.0496751 -0.00357631 0)
(-0.0467484 -0.0040617 0)
(-0.0434966 -0.00449126 0)
(-0.0399631 -0.00485472 0)
(-0.0361975 -0.0051431 0)
(-0.0322546 -0.00534906 0)
(-0.0281931 -0.0054672 0)
(-0.0240746 -0.00549436 0)
(-0.0199622 -0.00542982 0)
(-0.0159186 -0.00527538 0)
(-0.0120051 -0.00503538 0)
(-0.00827953 -0.0047166 0)
(-0.00479518 -0.00432803 0)
(-0.00159909 -0.00388051 0)
(0.00126888 -0.00338627 0)
(0.00377714 -0.00285857 0)
(0.005903 -0.00231107 0)
(0.00763287 -0.00175725 0)
(0.00896234 -0.00120997 0)
(0.00989586 -0.000681017 0)
(0.0104462 -0.000180828 0)
(0.0106337 0.000281684 0)
(0.0104854 0.000699055 0)
(0.0100343 0.00106501 0)
(0.0093186 0.00137392 0)
(0.00838163 0.00162012 0)
(0.00727164 0.00179687 0)
(0.00604246 0.00189539 0)
(0.00475435 0.00190392 0)
(0.00347501 0.00180755 0)
(0.00227879 0.00158988 0)
(0.00124361 0.00123776 0)
(0.000464778 0.00075464 0)
(7.67035e-05 0.000205625 0)
(5.14032e-05 -0.000313778 0)
(0.000202435 -0.000611947 0)
(0.000387572 -0.000661676 0)
(0.000506067 -0.000533887 0)
(0.000498607 -0.000286958 0)
(0.000330535 3.36079e-05 0)
(-2.04682e-05 0.000394982 0)
(-0.000567533 0.000775228 0)
(-0.00131724 0.00116096 0)
(-0.00227217 0.00154502 0)
(-0.00343276 0.0019245 0)
(-0.0047985 0.00229913 0)
(-0.00636864 0.00267001 0)
(-0.00814246 0.00303869 0)
(-0.0101192 0.00340647 0)
(-0.0122979 0.00377397 0)
(-0.0146767 0.00414082 0)
(-0.0172528 0.00450553 0)
(-0.0200214 0.00486538 0)
(-0.0229755 0.00521648 0)
(-0.026105 0.00555381 0)
(-0.0293968 0.00587134 0)
(-0.0328338 0.00616219 0)
(-0.0363951 0.00641876 0)
(-0.0400556 0.00663298 0)
(-0.0437862 0.00679649 0)
(-0.0475535 0.00690087 0)
(-0.0513203 0.00693794 0)
(-0.0550463 0.00689996 0)
(-0.0586879 0.00677994 0)
(-0.0621994 0.00657192 0)
(-0.0655336 0.00627117 0)
(-0.0686424 0.00587453 0)
(-0.0714781 0.00538055 0)
(-0.073994 0.00478974 0)
(-0.0761457 0.00410467 0)
(-0.0778916 0.00333015 0)
(-0.0791944 0.00247319 0)
(-0.0800217 0.00154312 0)
(-0.0803467 0.000551394 0)
(-0.080149 -0.000488486 0)
(-0.0794155 -0.00156099 0)
(-0.0781411 -0.00264893 0)
(-0.0763283 -0.00373385 0)
(-0.0739884 -0.00479625 0)
(-0.071141 -0.00581608 0)
(-0.0678145 -0.00677316 0)
(-0.0640455 -0.00764776 0)
(-0.0598785 -0.00842113 0)
(-0.0553657 -0.00907606 0)
(-0.0505659 -0.00959749 0)
(-0.0455436 -0.00997306 0)
(-0.0403681 -0.0101936 0)
(-0.0351119 -0.0102536 0)
(-0.0298495 -0.0101515 0)
(-0.0246558 -0.00988998 0)
(-0.019604 -0.00947582 0)
(-0.0147644 -0.00891995 0)
(-0.0102026 -0.0082371 0)
(-0.00597766 -0.00744526 0)
(-0.0021408 -0.00656508 0)
(0.00126576 -0.00561905 0)
(0.00420984 -0.00463076 0)
(0.00666988 -0.00362394 0)
(0.00863521 -0.00262159 0)
(0.010106 -0.00164533 0)
(0.0110929 -0.000714761 0)
(0.0116164 0.00015277 0)
(0.0117061 0.00094222 0)
(0.0113998 0.0016405 0)
(0.0107428 0.00223575 0)
(0.00978759 0.00271626 0)
(0.0085932 0.00306919 0)
(0.00722566 0.00327916 0)
(0.00575827 0.0033272 0)
(0.00427226 0.00319076 0)
(0.00285531 0.00284606 0)
(0.00159899 0.00227399 0)
(0.00062264 0.00147346 0)
(0.00011133 0.000497071 0)
(4.2048e-05 -0.000416981 0)
(0.00014247 -0.000763233 0)
(0.000218596 -0.000760541 0)
(0.000178035 -0.000513778 0)
(-3.4541e-05 -0.000102795 0)
(-0.00045194 0.000411194 0)
(-0.00109518 0.000983956 0)
(-0.00197693 0.00158575 0)
(-0.00310407 0.00219811 0)
(-0.00447997 0.00281087 0)
(-0.00610606 0.00341957 0)
(-0.00798277 0.00402321 0)
(-0.01011 0.00462262 0)
(-0.0124873 0.00521913 0)
(-0.0151137 0.00581362 0)
(-0.017987 0.00640586 0)
(-0.0211037 0.00699416 0)
(-0.0244581 0.00757509 0)
(-0.028042 0.0081434 0)
(-0.0318436 0.00869213 0)
(-0.0358473 0.00921267 0)
(-0.0400334 0.00969498 0)
(-0.0443774 0.0101279 0)
(-0.0488502 0.0104993 0)
(-0.0534177 0.0107966 0)
(-0.0580414 0.011007 0)
(-0.0626783 0.0111181 0)
(-0.0672816 0.0111179 0)
(-0.0718012 0.0109955 0)
(-0.0761845 0.0107415 0)
(-0.0803772 0.0103482 0)
(-0.0843243 0.00981028 0)
(-0.0879714 0.00912468 0)
(-0.0912649 0.00829122 0)
(-0.0941539 0.00731262 0)
(-0.0965907 0.00619471 0)
(-0.098532 0.00494648 0)
(-0.0999396 0.00358008 0)
(-0.100781 0.0021108 0)
(-0.101031 0.000556773 0)
(-0.100671 -0.0010613 0)
(-0.0996905 -0.00271988 0)
(-0.098087 -0.00439352 0)
(-0.0958666 -0.00605514 0)
(-0.0930442 -0.0076765 0)
(-0.0896435 -0.00922876 0)
(-0.0856965 -0.0106831 0)
(-0.0812443 -0.0120114 0)
(-0.0763357 -0.0131869 0)
(-0.0710278 -0.0141852 0)
(-0.0653842 -0.0149847 0)
(-0.0594752 -0.0155676 0)
(-0.053376 -0.0159204 0)
(-0.0471661 -0.0160348 0)
(-0.0409272 -0.0159077 0)
(-0.0347423 -0.0155421 0)
(-0.0286936 -0.0149468 0)
(-0.0228609 -0.0141366 0)
(-0.0173194 -0.0131317 0)
(-0.0121386 -0.0119572 0)
(-0.00737999 -0.0106424 0)
(-0.00309588 -0.00921964 0)
(0.000671928 -0.00772327 0)
(0.00389309 -0.0061884 0)
(0.00654928 -0.00464968 0)
(0.00863449 -0.00314025 0)
(0.0101549 -0.00169089 0)
(0.0111283 -0.000329459 0)
(0.0115839 0.000919225 0)
(0.011561 0.0020331 0)
(0.0111086 0.00299202 0)
(0.0102846 0.0037765 0)
(0.00915526 0.00436615 0)
(0.00779483 0.00473802 0)
(0.00628583 0.00486539 0)
(0.00471933 0.00471764 0)
(0.00319359 0.00426238 0)
(0.00181241 0.00347079 0)
(0.000716405 0.00232808 0)
(0.000130757 0.000856536 0)
(2.69947e-05 -0.000479834 0)
(5.08798e-05 -0.000808899 0)
(-2.98164e-05 -0.000696305 0)
(-0.000287973 -0.000278687 0)
(-0.000769181 0.000343548 0)
(-0.00150126 0.00109469 0)
(-0.00250147 0.0019205 0)
(-0.00378019 0.00278465 0)
(-0.0053434 0.00366452 0)
(-0.00719454 0.00454751 0)
(-0.00933561 0.00542777 0)
(-0.0117677 0.00630354 0)
(-0.0144914 0.00717502 0)
(-0.0175061 0.00804277 0)
(-0.0208102 0.00890653 0)
(-0.0244002 0.00976443 0)
(-0.0282701 0.0106125 0)
(-0.0324109 0.0114444 0)
(-0.0368099 0.0122514 0)
(-0.0414499 0.0130224 0)
(-0.046309 0.0137443 0)
(-0.0513602 0.0144022 0)
(-0.0565713 0.0149799 0)
(-0.0619046 0.0154601 0)
(-0.0673173 0.0158253 0)
(-0.0727621 0.0160583 0)
(-0.0781871 0.0161424 0)
(-0.0835372 0.0160622 0)
(-0.0887546 0.0158043 0)
(-0.0937799 0.0153576 0)
(-0.0985527 0.0147137 0)
(-0.103013 0.0138675 0)
(-0.107104 0.0128174 0)
(-0.110768 0.0115656 0)
(-0.113954 0.0101184 0)
(-0.116613 0.00848586 0)
(-0.118703 0.00668224 0)
(-0.120186 0.0047257 0)
(-0.121033 0.00263825 0)
(-0.12122 0.000445248 0)
(-0.120731 -0.00182541 0)
(-0.119558 -0.00414154 0)
(-0.117699 -0.00646938 0)
(-0.115165 -0.00877334 0)
(-0.11197 -0.0110165 0)
(-0.108141 -0.0131613 0)
(-0.10371 -0.0151703 0)
(-0.098721 -0.0170069 0)
(-0.0932227 -0.0186365 0)
(-0.0872741 -0.020027 0)
(-0.0809409 -0.0211499 0)
(-0.0742956 -0.0219814 0)
(-0.0674166 -0.0225032 0)
(-0.0603873 -0.0227032 0)
(-0.0532945 -0.0225762 0)
(-0.0462269 -0.0221245 0)
(-0.0392738 -0.0213582 0)
(-0.0325227 -0.020295 0)
(-0.0260579 -0.01896 0)
(-0.0199581 -0.0173851 0)
(-0.0142947 -0.015608 0)
(-0.00913032 -0.013671 0)
(-0.00451656 -0.0116196 0)
(-0.000493348 -0.00950107 0)
(0.00291228 -0.00736273 0)
(0.00568668 -0.00525063 0)
(0.00782978 -0.00320837 0)
(0.00935494 -0.00127614 0)
(0.0102884 0.000509526 0)
(0.0106689 0.00211559 0)
(0.0105461 0.00351178 0)
(0.00998093 0.00466915 0)
(0.00904378 0.00555838 0)
(0.00781455 0.0061479 0)
(0.00638233 0.00640235 0)
(0.00484582 0.00628202 0)
(0.00331207 0.00574408 0)
(0.00189581 0.0047463 0)
(0.000754244 0.00325382 0)
(0.000138282 0.00125054 0)
(7.89405e-06 -0.000488086 0)
(-6.52755e-05 -0.00071415 0)
(-0.000342281 -0.000421013 0)
(-0.00086732 0.000226949 0)
(-0.0016713 0.0011113 0)
(-0.00277407 0.0021442 0)
(-0.0041869 0.00326358 0)
(-0.00591621 0.00442832 0)
(-0.007966 0.00561305 0)
(-0.010339 0.00680361 0)
(-0.0130373 0.00799325 0)
(-0.0160625 0.00917941 0)
(-0.019415 0.0103614 0)
(-0.0230942 0.0115383 0)
(-0.0270974 0.012708 0)
(-0.031419 0.0138661 0)
(-0.0360502 0.0150052 0)
(-0.0409779 0.0161151 0)
(-0.0461843 0.0171826 0)
(-0.0516462 0.0181915 0)
(-0.057335 0.0191233 0)
(-0.0632163 0.0199576 0)
(-0.0692497 0.0206725 0)
(-0.0753896 0.0212456 0)
(-0.081585 0.0216543 0)
(-0.0877808 0.0218771 0)
(-0.0939178 0.0218936 0)
(-0.0999345 0.0216859 0)
(-0.105768 0.0212387 0)
(-0.111353 0.0205403 0)
(-0.116628 0.0195828 0)
(-0.121529 0.0183625 0)
(-0.125999 0.0168806 0)
(-0.129981 0.0151427 0)
(-0.133423 0.0131594 0)
(-0.13628 0.010946 0)
(-0.138511 0.0085226 0)
(-0.140081 0.00591365 0)
(-0.140962 0.00314803 0)
(-0.141132 0.000258379 0)
(-0.140578 -0.00272062 0)
(-0.139291 -0.00574819 0)
(-0.137272 -0.00878281 0)
(-0.13453 -0.0117808 0)
(-0.13108 -0.014697 0)
(-0.126947 -0.0174854 0)
(-0.122163 -0.0201002 0)
(-0.116768 -0.0224966 0)
(-0.110813 -0.0246316 0)
(-0.104353 -0.0264653 0)
(-0.0974542 -0.0279618 0)
(-0.0901893 -0.0290908 0)
(-0.0826379 -0.0298278 0)
(-0.0748852 -0.0301563 0)
(-0.0670215 -0.0300676 0)
(-0.0591405 -0.0295623 0)
(-0.0513372 -0.0286506 0)
(-0.0437068 -0.0273521 0)
(-0.0363417 -0.0256958 0)
(-0.0293304 -0.0237197 0)
(-0.0227543 -0.0214694 0)
(-0.0166865 -0.018997 0)
(-0.0111893 -0.0163593 0)
(-0.00631302 -0.0136163 0)
(-0.00209442 -0.0108289 0)
(0.00144405 -0.00805705 0)
(0.00429477 -0.00535863 0)
(0.00646504 -0.00278782 0)
(0.00797673 -0.000394611 0)
(0.00886575 0.00177521 0)
(0.00918123 0.00367945 0)
(0.0089846 0.0052781 0)
(0.00834871 0.00653149 0)
(0.00735711 0.00739822 0)
(0.00610376 0.00783316 0)
(0.0046934 0.00778625 0)
(0.00324044 0.00720248 0)
(0.00186871 0.00602363 0)
(0.000746578 0.0041917 0)
(0.000136943 0.00165133 0)
(-1.44363e-05 -0.000430489 0)
(-0.000201326 -0.000450224 0)
(-0.000707362 0.000105879 0)
(-0.00154077 0.00105054 0)
(-0.00271323 0.00225114 0)
(-0.00423393 0.0036111 0)
(-0.00610612 0.0050634 0)
(-0.00833091 0.00656451 0)
(-0.0109093 0.00808809 0)
(-0.0138426 0.00961961 0)
(-0.0171324 0.011152 0)
(-0.0207803 0.012682 0)
(-0.0247865 0.0142075 0)
(-0.0291496 0.0157259 0)
(-0.0338652 0.0172321 0)
(-0.0389255 0.018718 0)
(-0.044318 0.0201722 0)
(-0.050025 0.0215792 0)
(-0.0560232 0.0229205 0)
(-0.0622833 0.024174 0)
(-0.0687694 0.0253152 0)
(-0.0754399 0.0263177 0)
(-0.0822469 0.027154 0)
(-0.0891375 0.0277962 0)
(-0.0960536 0.0282173 0)
(-0.102934 0.028392 0)
(-0.109714 0.0282971 0)
(-0.116328 0.0279131 0)
(-0.122709 0.0272241 0)
(-0.128791 0.0262189 0)
(-0.134511 0.0248914 0)
(-0.139806 0.0232405 0)
(-0.144619 0.0212708 0)
(-0.148895 0.0189924 0)
(-0.152586 0.0164208 0)
(-0.155649 0.0135766 0)
(-0.158044 0.0104859 0)
(-0.159739 0.00717917 0)
(-0.160707 0.00369133 0)
(-0.16093 6.1677e-05 0)
(-0.160393 -0.00366494 0)
(-0.159086 -0.0074444 0)
(-0.15701 -0.0112274 0)
(-0.154171 -0.0149625 0)
(-0.150583 -0.0185967 0)
(-0.146266 -0.0220761 0)
(-0.141249 -0.0253467 0)
(-0.135569 -0.0283553 0)
(-0.129271 -0.0310506 0)
(-0.12241 -0.0333843 0)
(-0.115049 -0.0353127 0)
(-0.107257 -0.0367974 0)
(-0.0991153 -0.0378073 0)
(-0.090709 -0.0383196 0)
(-0.0821312 -0.038321 0)
(-0.0734794 -0.037809 0)
(-0.0648545 -0.036792 0)
(-0.0563588 -0.0352905 0)
(-0.0480937 -0.0333362 0)
(-0.0401572 -0.0309722 0)
(-0.0326419 -0.0282513 0)
(-0.025632 -0.0252352 0)
(-0.0192018 -0.0219921 0)
(-0.0134128 -0.0185949 0)
(-0.00831268 -0.0151186 0)
(-0.00393395 -0.0116387 0)
(-0.000292962 -0.00822832 0)
(0.00261026 -0.00495721 0)
(0.00479191 -0.00189051 0)
(0.00628394 0.000911565 0)
(0.00713325 0.00339316 0)
(0.00740072 0.00550162 0)
(0.00716022 0.00718549 0)
(0.0064977 0.00839219 0)
(0.00551079 0.00906564 0)
(0.00430902 0.0091442 0)
(0.00301276 0.00855942 0)
(0.0017529 0.00723595 0)
(0.000703898 0.00509236 0)
(0.000129327 0.00203749 0)
(-3.94817e-05 -0.000297782 0)
(-0.000354032 6.80332e-06 0)
(-0.00111641 0.00091815 0)
(-0.0022927 0.00223168 0)
(-0.00387149 0.00380536 0)
(-0.00584892 0.00553805 0)
(-0.00821856 0.00736138 0)
(-0.0109749 0.00923227 0)
(-0.014115 0.0111255 0)
(-0.0176383 0.0130276 0)
(-0.0215454 0.0149318 0)
(-0.0258373 0.0168343 0)
(-0.0305136 0.0187315 0)
(-0.0355715 0.0206179 0)
(-0.0410047 0.0224848 0)
(-0.0468023 0.0243196 0)
(-0.0529476 0.0261054 0)
(-0.0594182 0.0278211 0)
(-0.0661849 0.0294415 0)
(-0.0732119 0.0309383 0)
(-0.0804568 0.0322806 0)
(-0.0878709 0.0334357 0)
(-0.0953999 0.0343706 0)
(-0.102984 0.0350528 0)
(-0.110561 0.0354514 0)
(-0.118065 0.035538 0)
(-0.125427 0.0352881 0)
(-0.132579 0.0346815 0)
(-0.139455 0.033703 0)
(-0.145988 0.0323433 0)
(-0.152115 0.0305987 0)
(-0.157778 0.028472 0)
(-0.16292 0.0259717 0)
(-0.167491 0.0231126 0)
(-0.171445 0.0199152 0)
(-0.174741 0.0164056 0)
(-0.177343 0.0126152 0)
(-0.179219 0.00858008 0)
(-0.180344 0.00434073 0)
(-0.180697 -5.76753e-05 0)
(-0.180264 -0.00456369 0)
(-0.179036 -0.00912791 0)
(-0.177007 -0.0136945 0)
(-0.17418 -0.0182052 0)
(-0.170565 -0.0225998 0)
(-0.166176 -0.0268171 0)
(-0.161037 -0.030795 0)
(-0.15518 -0.0344721 0)
(-0.148644 -0.0377883 0)
(-0.14148 -0.0406864 0)
(-0.133744 -0.0431138 0)
(-0.125506 -0.0450232 0)
(-0.116842 -0.0463754 0)
(-0.107838 -0.0471397 0)
(-0.0985896 -0.0472966 0)
(-0.0891964 -0.0468384 0)
(-0.0797653 -0.0457705 0)
(-0.0704056 -0.0441121 0)
(-0.0612279 -0.0418965 0)
(-0.0523409 -0.0391704 0)
(-0.0438488 -0.0359932 0)
(-0.0358487 -0.0324355 0)
(-0.0284276 -0.028577 0)
(-0.0216599 -0.0245037 0)
(-0.0156058 -0.0203059 0)
(-0.010309 -0.016075 0)
(-0.00579602 -0.0119012 0)
(-0.00207544 -0.00787127 0)
(0.000862104 -0.00406712 0)
(0.0030435 -0.000565226 0)
(0.00451242 0.00256326 0)
(0.00532824 0.00525138 0)
(0.00556494 0.00743438 0)
(0.00531003 0.00904719 0)
(0.00466394 0.0100216 0)
(0.00374001 0.0102833 0)
(0.00266326 0.00974991 0)
(0.00156973 0.00832892 0)
(0.000635789 0.00591716 0)
(0.000117545 0.00239334 0)
(-6.69111e-05 -8.20516e-05 0)
(-0.000520905 0.000676892 0)
(-0.00156225 0.0020438 0)
(-0.00310958 0.0038029 0)
(-0.00512509 0.00580831 0)
(-0.00758994 0.00795924 0)
(-0.0104865 0.0101902 0)
(-0.0138016 0.0124618 0)
(-0.0175277 0.0147523 0)
(-0.0216619 0.0170509 0)
(-0.0262032 0.0193518 0)
(-0.0311516 0.0216509 0)
(-0.0365055 0.0239425 0)
(-0.0422605 0.0262178 0)
(-0.0484075 0.0284636 0)
(-0.0549322 0.0306616 0)
(-0.0618136 0.0327887 0)
(-0.0690239 0.0348171 0)
(-0.0765282 0.0367147 0)
(-0.0842845 0.0384464 0)
(-0.0922443 0.0399746 0)
(-0.100353 0.0412612 0)
(-0.10855 0.0422678 0)
(-0.116773 0.0429579 0)
(-0.124953 0.0432977 0)
(-0.133023 0.0432573 0)
(-0.140914 0.0428117 0)
(-0.148557 0.0419414 0)
(-0.155886 0.0406331 0)
(-0.162837 0.0388801 0)
(-0.16935 0.0366824 0)
(-0.17537 0.0340466 0)
(-0.180843 0.0309857 0)
(-0.185723 0.0275191 0)
(-0.189965 0.023672 0)
(-0.193532 0.0194755 0)
(-0.19639 0.0149654 0)
(-0.198507 0.0101828 0)
(-0.199859 0.00517319 0)
(-0.200421 -1.34752e-05 0)
(-0.200179 -0.00532379 0)
(-0.19912 -0.0106998 0)
(-0.197235 -0.0160808 0)
(-0.19452 -0.0214027 0)
(-0.190979 -0.0265992 0)
(-0.186622 -0.0316017 0)
(-0.181464 -0.0363407 0)
(-0.17553 -0.0407461 0)
(-0.168854 -0.0447491 0)
(-0.161478 -0.048283 0)
(-0.153454 -0.0512851 0)
(-0.144845 -0.0536984 0)
(-0.135726 -0.0554735 0)
(-0.126181 -0.0565707 0)
(-0.116303 -0.0569617 0)
(-0.106198 -0.0566319 0)
(-0.0959751 -0.0555814 0)
(-0.0857516 -0.0538263 0)
(-0.0756472 -0.0513992 0)
(-0.0657818 -0.0483494 0)
(-0.0562726 -0.0447414 0)
(-0.0472305 -0.0406542 0)
(-0.0387573 -0.0361785 0)
(-0.030942 -0.0314142 0)
(-0.0238589 -0.0264672 0)
(-0.0175649 -0.0214462 0)
(-0.0120983 -0.0164597 0)
(-0.00747782 -0.0116134 0)
(-0.0037021 -0.00700779 0)
(-0.000750434 -0.00273744 0)
(0.00141671 0.00110938 0)
(0.00285646 0.00444965 0)
(0.00364223 0.00720381 0)
(0.00386251 0.00929292 0)
(0.00361992 0.0106355 0)
(0.00303082 0.0111441 0)
(0.00222384 0.010722 0)
(0.00133864 0.00926052 0)
(0.000550621 0.00663758 0)
(0.00010331 0.00270814 0)
(-9.64396e-05 0.000223552 0)
(-0.000699712 0.00157662 0)
(-0.00203831 0.00350556 0)
(-0.00397881 0.00579007 0)
(-0.00645428 0.00828667 0)
(-0.0094292 0.0109006 0)
(-0.0128736 0.0135737 0)
(-0.0167659 0.0162743 0)
(-0.0210935 0.0189866 0)
(-0.0258503 0.0217038 0)
(-0.0310338 0.0244223 0)
(-0.0366422 0.0271374 0)
(-0.0426725 0.0298411 0)
(-0.0491178 0.0325206 0)
(-0.0559662 0.0351572 0)
(-0.0631994 0.0377262 0)
(-0.0707917 0.0401976 0)
(-0.0787102 0.042536 0)
(-0.0869144 0.0447024 0)
(-0.0953566 0.0466546 0)
(-0.103983 0.0483489 0)
(-0.112734 0.0497416 0)
(-0.121545 0.0507903 0)
(-0.13035 0.0514555 0)
(-0.13908 0.0517016 0)
(-0.147665 0.0514983 0)
(-0.156038 0.0508214 0)
(-0.164131 0.0496532 0)
(-0.171881 0.0479832 0)
(-0.179227 0.0458081 0)
(-0.186112 0.0431318 0)
(-0.192485 0.0399649 0)
(-0.198296 0.0363249 0)
(-0.203501 0.0322354 0)
(-0.208059 0.0277258 0)
(-0.211934 0.0228309 0)
(-0.215093 0.0175908 0)
(-0.217505 0.0120499 0)
(-0.219143 0.00625782 0)
(-0.219984 0.000267897 0)
(-0.220007 -0.00586274 0)
(-0.219196 -0.0120717 0)
(-0.217538 -0.0182937 0)
(-0.215024 -0.0244595 0)
(-0.21165 -0.0304971 0)
(-0.207419 -0.0363314 0)
(-0.202339 -0.0418854 0)
(-0.196426 -0.047081 0)
(-0.189705 -0.05184 0)
(-0.182211 -0.0560859 0)
(-0.173988 -0.0597452 0)
(-0.165093 -0.0627497 0)
(-0.155595 -0.0650386 0)
(-0.145573 -0.0665609 0)
(-0.135122 -0.0672779 0)
(-0.124344 -0.0671651 0)
(-0.113355 -0.066215 0)
(-0.102278 -0.0644381 0)
(-0.0912415 -0.0618641 0)
(-0.0803769 -0.0585426 0)
(-0.0698153 -0.0545419 0)
(-0.059683 -0.0499481 0)
(-0.0500982 -0.0448626 0)
(-0.0411668 -0.0393991 0)
(-0.0329796 -0.03368 0)
(-0.025609 -0.0278327 0)
(-0.0191072 -0.0219856 0)
(-0.0135049 -0.0162651 0)
(-0.00881049 -0.0107924 0)
(-0.00501078 -0.00568231 0)
(-0.00207144 -0.00104229 0)
(6.16492e-05 0.00302675 0)
(0.00146082 0.00642873 0)
(0.00221505 0.0090695 0)
(0.00242873 0.0108533 0)
(0.00222072 0.0116789 0)
(0.0017225 0.0114355 0)
(0.00107646 0.00999995 0)
(0.000455441 0.00723403 0)
(8.79947e-05 0.00297529 0)
(-0.000127818 0.00062476 0)
(-0.000888273 0.00271932 0)
(-0.00253809 0.00532106 0)
(-0.00488797 0.00821252 0)
(-0.00783956 0.0112596 0)
(-0.0113394 0.0143797 0)
(-0.0153442 0.0175275 0)
(-0.0198234 0.0206823 0)
(-0.024759 0.0238375 0)
(-0.0301415 0.0269919 0)
(-0.0359661 0.0301444 0)
(-0.0422292 0.0332903 0)
(-0.0489257 0.0364188 0)
(-0.056046 0.0395122 0)
(-0.0635747 0.0425457 0)
(-0.0714894 0.0454875 0)
(-0.0797599 0.0482998 0)
(-0.088348 0.0509399 0)
(-0.0972081 0.0533611 0)
(-0.106288 0.0555147 0)
(-0.115528 0.0573514 0)
(-0.124867 0.0588228 0)
(-0.134237 0.0598835 0)
(-0.14357 0.0604919 0)
(-0.152797 0.0606121 0)
(-0.16185 0.0602145 0)
(-0.170661 0.0592766 0)
(-0.179168 0.0577835 0)
(-0.18731 0.0557282 0)
(-0.195029 0.053111 0)
(-0.202274 0.0499399 0)
(-0.208995 0.0462295 0)
(-0.215147 0.0420012 0)
(-0.220689 0.0372822 0)
(-0.225582 0.0321054 0)
(-0.22979 0.0265088 0)
(-0.233282 0.0205353 0)
(-0.236027 0.0142324 0)
(-0.237996 0.0076522 0)
(-0.239165 0.000850848 0)
(-0.239509 -0.00611153 0)
(-0.23901 -0.0131694 0)
(-0.237648 -0.0202538 0)
(-0.23541 -0.0272913 0)
(-0.232285 -0.0342049 0)
(-0.228268 -0.0409138 0)
(-0.223358 -0.0473342 0)
(-0.217563 -0.0533801 0)
(-0.210898 -0.0589642 0)
(-0.203388 -0.0639999 0)
(-0.195068 -0.0684025 0)
(-0.185985 -0.0720913 0)
(-0.176201 -0.0749929 0)
(-0.165788 -0.077043 0)
(-0.154837 -0.0781897 0)
(-0.14345 -0.0783967 0)
(-0.131742 -0.0776455 0)
(-0.119842 -0.0759379 0)
(-0.107886 -0.0732981 0)
(-0.0960181 -0.0697729 0)
(-0.0843821 -0.0654324 0)
(-0.0731218 -0.0603682 0)
(-0.0623736 -0.0546914 0)
(-0.0522627 -0.0485293 0)
(-0.042899 -0.0420215 0)
(-0.0343735 -0.0353152 0)
(-0.0267551 -0.0285607 0)
(-0.0200889 -0.0219073 0)
(-0.0143957 -0.0154994 0)
(-0.00967133 -0.00947438 0)
(-0.00588805 -0.00396142 0)
(-0.00299579 0.000918577 0)
(-0.00092395 0.0050511 0)
(0.000416547 0.00832528 0)
(0.00113154 0.0106301 0)
(0.0013421 0.0118501 0)
(0.0011823 0.0118609 0)
(0.000796894 0.0105261 0)
(0.0003559 0.00769449 0)
(7.26694e-05 0.00319158 0)
(-0.000160677 0.00112612 0)
(-0.00108414 0.004115 0)
(-0.00305481 0.00750282 0)
(-0.00582433 0.0110831 0)
(-0.00926114 0.0147388 0)
(-0.0132929 0.0184063 0)
(-0.0178624 0.0220583 0)
(-0.02293 0.0256896 0)
(-0.0284715 0.0293053 0)
(-0.0344739 0.0329115 0)
(-0.0409299 0.0365106 0)
(-0.0478338 0.0400976 0)
(-0.0551776 0.0436584 0)
(-0.062949 0.0471701 0)
(-0.0711289 0.050601 0)
(-0.0796905 0.0539116 0)
(-0.0885991 0.0570561 0)
(-0.0978117 0.0599841 0)
(-0.107278 0.0626418 0)
(-0.116942 0.0649743 0)
(-0.126742 0.0669275 0)
(-0.136612 0.0684494 0)
(-0.146485 0.0694924 0)
(-0.156291 0.0700143 0)
(-0.165964 0.0699799 0)
(-0.175436 0.0693612 0)
(-0.184644 0.0681384 0)
(-0.193527 0.0663002 0)
(-0.202029 0.0638429 0)
(-0.210097 0.0607709 0)
(-0.217682 0.0570959 0)
(-0.224738 0.0528364 0)
(-0.231223 0.048017 0)
(-0.237099 0.0426681 0)
(-0.242328 0.0368253 0)
(-0.246876 0.0305292 0)
(-0.250713 0.0238248 0)
(-0.253807 0.0167616 0)
(-0.256131 0.00939365 0)
(-0.257656 0.00177901 0)
(-0.258359 -0.00601987 0)
(-0.258215 -0.0139355 0)
(-0.257203 -0.0218963 0)
(-0.255303 -0.0298256 0)
(-0.252498 -0.0376425 0)
(-0.248776 -0.0452614 0)
(-0.244127 -0.0525926 0)
(-0.23855 -0.0595431 0)
(-0.232048 -0.0660171 0)
(-0.224634 -0.0719179 0)
(-0.216333 -0.0771494 0)
(-0.207181 -0.081618 0)
(-0.197227 -0.0852362 0)
(-0.186535 -0.0879246 0)
(-0.175188 -0.0896162 0)
(-0.163283 -0.0902592 0)
(-0.150934 -0.0898213 0)
(-0.138272 -0.088292 0)
(-0.125438 -0.085686 0)
(-0.112586 -0.0820443 0)
(-0.0998764 -0.0774351 0)
(-0.0874684 -0.0719534 0)
(-0.075519 -0.0657182 0)
(-0.0641753 -0.0588699 0)
(-0.0535695 -0.0515654 0)
(-0.0438144 -0.043973 0)
(-0.0349994 -0.0362667 0)
(-0.0271876 -0.0286212 0)
(-0.0204147 -0.0212072 0)
(-0.0146884 -0.0141875 0)
(-0.00998963 -0.00771589 0)
(-0.00627354 -0.0019359 0)
(-0.00347225 0.00301734 0)
(-0.00149706 0.00701451 0)
(-0.000240935 0.00992815 0)
(0.0004194 0.0116281 0)
(0.000620653 0.0119767 0)
(0.000510288 0.0108255 0)
(0.000256201 0.0080129 0)
(5.81087e-05 0.00335641 0)
(-0.000194587 0.00173094 0)
(-0.00128463 0.00577021 0)
(-0.00358119 0.0100582 0)
(-0.00677456 0.0144082 0)
(-0.0106987 0.0187287 0)
(-0.0152617 0.022982 0)
(-0.0203924 0.0271648 0)
(-0.0260412 0.0312916 0)
(-0.0321783 0.0353818 0)
(-0.0387866 0.0394507 0)
(-0.045856 0.0435047 0)
(-0.0533783 0.0475384 0)
(-0.0613426 0.0515344 0)
(-0.0697334 0.0554637 0)
(-0.0785275 0.0592872 0)
(-0.0876942 0.0629575 0)
(-0.0971941 0.0664206 0)
(-0.10698 0.0696186 0)
(-0.116999 0.0724909 0)
(-0.127191 0.0749775 0)
(-0.137491 0.0770199 0)
(-0.147833 0.078564 0)
(-0.15815 0.0795609 0)
(-0.168374 0.0799691 0)
(-0.178438 0.0797547 0)
(-0.188279 0.0788925 0)
(-0.197837 0.0773659 0)
(-0.207055 0.075167 0)
(-0.215879 0.0722961 0)
(-0.224261 0.0687613 0)
(-0.232154 0.064578 0)
(-0.239517 0.0597679 0)
(-0.24631 0.0543586 0)
(-0.252496 0.0483832 0)
(-0.258042 0.0418796 0)
(-0.262914 0.0348902 0)
(-0.267084 0.027462 0)
(-0.270521 0.0196458 0)
(-0.273198 0.0114968 0)
(-0.275087 0.0030745 0)
(-0.276163 -0.00555747 0)
(-0.2764 -0.0143305 0)
(-0.275773 -0.0231713 0)
(-0.274259 -0.0320016 0)
(-0.271836 -0.0407375 0)
(-0.268483 -0.0492903 0)
(-0.264183 -0.0575657 0)
(-0.258924 -0.0654646 0)
(-0.252698 -0.0728841 0)
(-0.245506 -0.0797181 0)
(-0.237357 -0.0858592 0)
(-0.228275 -0.0912011 0)
(-0.218293 -0.0956411 0)
(-0.207464 -0.0990834 0)
(-0.195857 -0.101443 0)
(-0.183562 -0.102651 0)
(-0.170686 -0.102657 0)
(-0.157358 -0.101433 0)
(-0.143724 -0.0989817 0)
(-0.129944 -0.0953323 0)
(-0.116191 -0.0905478 0)
(-0.102642 -0.0847225 0)
(-0.0894753 -0.077981 0)
(-0.0768621 -0.0704751 0)
(-0.0649604 -0.0623785 0)
(-0.0539086 -0.0538815 0)
(-0.0438207 -0.0451839 0)
(-0.0347825 -0.0364885 0)
(-0.0268484 -0.0279954 0)
(-0.0200416 -0.0198967 0)
(-0.014354 -0.0123741 0)
(-0.00974842 -0.00559712 0)
(-0.00616087 0.000275785 0)
(-0.00350381 0.00509467 0)
(-0.00166923 0.00871415 0)
(-0.000531576 0.0109886 0)
(4.89709e-05 0.0117672 0)
(0.00022343 0.0108902 0)
(0.000159085 0.00818744 0)
(4.48008e-05 0.00347101 0)
(-0.000229054 0.00244106 0)
(-0.00148679 0.00768775 0)
(-0.00410951 0.012989 0)
(-0.00772477 0.0181877 0)
(-0.0121314 0.0232263 0)
(-0.0172176 0.0281008 0)
(-0.0228979 0.0328377 0)
(-0.0291133 0.0374755 0)
(-0.0358275 0.0420507 0)
(-0.0430197 0.0465894 0)
(-0.0506766 0.0511025 0)
(-0.0587872 0.0555843 0)
(-0.0673375 0.0600136 0)
(-0.0763083 0.0643549 0)