/*--------------------------------*- C++ -*----------------------------------*\
  =========                 |
  \\      /  F ield         | OpenFOAM: The Open Source CFD Toolbox
   \\    /   O peration     | Website:  https://openfoam.org
    \\  /    A nd           | Version:  7
     \\/     M anipulation  |
\*---------------------------------------------------------------------------*/
FoamFile
{
    version     2.0;
    format      ascii;
    class       volScalarField;
    location    "1.7";
    object      p;
}
// * * * * * * * * * * * * * * * * * * * * * * * * * * * * * * * * * * * * * //

dimensions      [0 2 -2 0 0 0 0];

internalField   nonuniform List<scalar> 
6400
(
-1.65333e-08
7.76892e-06
-5.88205e-06
-4.21786e-05
-9.81189e-05
-0.000170422
-0.000255947
-0.000352035
-0.000456657
-0.000568361
-0.000686155
-0.000809376
-0.000937553
-0.0010703
-0.00120723
-0.00134786
-0.0014916
-0.00163767
-0.00178511
-0.00193275
-0.00207918
-0.0022228
-0.00236179
-0.00249415
-0.00261768
-0.00273005
-0.00282885
-0.00291157
-0.00297573
-0.00301893
-0.00303891
-0.00303367
-0.00300154
-0.0029413
-0.00285226
-0.00273439
-0.00258836
-0.00241564
-0.00221858
-0.00200035
-0.00176501
-0.00151752
-0.00126351
-0.00100927
-0.000761597
-0.00052757
-0.000314348
-0.000128923
2.21306e-05
0.000132916
0.000198453
0.000214899
0.000179724
9.1837e-05
-4.83458e-05
-0.0002389
-0.00047646
-0.000756354
-0.00107279
-0.00141907
-0.00178791
-0.00217167
-0.00256266
-0.0029534
-0.00333683
-0.00370653
-0.0040568
-0.00438278
-0.0046804
-0.00494639
-0.00517815
-0.00537369
-0.00553151
-0.00565061
-0.00573052
-0.00577174
-0.00577658
-0.0057509
-0.00570602
-0.00565893
-8.27959e-06
-5.7702e-07
-1.43624e-05
-4.78012e-05
-9.77515e-05
-0.000162025
-0.000238436
-0.000324974
-0.000419997
-0.000522248
-0.0006308
-0.000744968
-0.000864227
-0.00098813
-0.00111623
-0.00124803
-0.00138292
-0.00152017
-0.00165888
-0.00179797
-0.00193617
-0.00207203
-0.00220391
-0.00232999
-0.0024483
-0.00255672
-0.00265304
-0.00273499
-0.0028003
-0.00284674
-0.00287224
-0.00287494
-0.00285325
-0.00280602
-0.00273256
-0.00263277
-0.00250722
-0.00235719
-0.00218478
-0.00199288
-0.0017852
-0.00156614
-0.00134096
-0.00111545
-0.000895851
-0.000688693
-0.000500589
-0.000337998
-0.000206993
-0.00011302
-6.06678e-05
-5.34679e-05
-9.3726e-05
-0.000182406
-0.000319073
-0.000501891
-0.000727692
-0.000992103
-0.00128972
-0.00161435
-0.00195923
-0.0023173
-0.00268149
-0.00304495
-0.00340122
-0.00374444
-0.00406945
-0.00437186
-0.00464804
-0.00489511
-0.00511088
-0.00529376
-0.00544273
-0.0055573
-0.00563758
-0.00568455
-0.00570067
-0.00569053
-0.00565894
-0.00561178
5.32074e-06
1.24878e-05
-1.87045e-06
-3.42846e-05
-8.12718e-05
-0.000141003
-0.000211766
-0.000291931
-0.00038016
-0.000475413
-0.00057689
-0.00068398
-0.0007962
-0.000913125
-0.00103433
-0.00115935
-0.00128762
-0.00141846
-0.00155104
-0.0016844
-0.00181737
-0.00194863
-0.00207668
-0.00219984
-0.00231629
-0.00242406
-0.00252108
-0.00260519
-0.00267423
-0.00272605
-0.00275864
-0.00277013
-0.00275896
-0.00272388
-0.00266413
-0.00257948
-0.00247032
-0.00233776
-0.00218363
-0.00201059
-0.00182202
-0.00162216
-0.00141589
-0.00120873
-0.00100663
-0.000815856
-0.000642772
-0.000493608
-0.000374237
-0.000289927
-0.000245127
-0.000243256
-0.000286545
-0.000375914
-0.000510921
-0.000689759
-0.000909328
-0.00116536
-0.0014526
-0.00176502
-0.00209609
-0.00243902
-0.00278702
-0.00313356
-0.00347253
-0.00379842
-0.00410644
-0.00439258
-0.00465358
-0.00488693
-0.00509083
-0.00526405
-0.00540592
-0.00551626
-0.00559536
-0.00564407
-0.00566432
-0.00565913
-0.00562752
-0.00556694
4.31035e-05
4.58114e-05
2.86985e-05
-4.65804e-06
-5.09394e-05
-0.000108493
-0.000175832
-0.000251636
-0.000334843
-0.000424636
-0.000520399
-0.000621665
-0.000728057
-0.000839237
-0.000954859
-0.00107453
-0.00119777
-0.00132397
-0.00145243
-0.00158225
-0.0017124
-0.00184167
-0.00196868
-0.00209186
-0.0022095
-0.00231972
-0.00242052
-0.0025098
-0.00258541
-0.00264521
-0.00268711
-0.00270918
-0.00270975
-0.00268742
-0.00264126
-0.00257084
-0.00247634
-0.00235863
-0.00221934
-0.0020609
-0.00188643
-0.00170004
-0.00150643
-0.00131093
-0.00111942
-0.000938079
-0.000773203
-0.000631007
-0.000517361
-0.000437553
-0.000396061
-0.00039634
-0.000440656
-0.000529959
-0.000663825
-0.00084046
-0.00105676
-0.00130845
-0.00159026
-0.00189618
-0.00221967
-0.002554
-0.00289246
-0.0032286
-0.0035565
-0.00387085
-0.00416712
-0.00444157
-0.00469128
-0.0049141
-0.00510856
-0.0052738
-0.00540943
-0.00551546
-0.00559219
-0.00564016
-0.0056606
-0.00565508
-0.00561832
-0.00554204
0.000103004
9.67569e-05
7.42227e-05
3.80754e-05
-9.16793e-06
-6.60179e-05
-0.000131248
-0.00020385
-0.000283053
-0.000368297
-0.000459186
-0.000555437
-0.00065683
-0.00076316
-0.0008742
-0.000989666
-0.00110918
-0.00123228
-0.00135833
-0.00148659
-0.00161612
-0.00174585
-0.00187448
-0.00200056
-0.00212245
-0.00223831
-0.00234617
-0.00244392
-0.00252935
-0.00260024
-0.00265438
-0.00268969
-0.00270428
-0.00269654
-0.00266531
-0.00260988
-0.0025302
-0.00242686
-0.00230129
-0.00215571
-0.00199302
-0.0018172
-0.00163284
-0.00144522
-0.00126018
-0.00108394
-0.000922871
-0.000783271
-0.000671138
-0.000591904
-0.000550193
-0.000549601
-0.000592523
-0.000680012
-0.000811712
-0.000985859
-0.00119934
-0.00144784
-0.00172602
-0.00202778
-0.00234649
-0.00267532
-0.00300752
-0.00333664
-0.00365676
-0.0039627
-0.00425008
-0.00451538
-0.00475596
-0.00496998
-0.00515631
-0.00531442
-0.0054442
-0.00554585
-0.00561966
-0.00566591
-0.00568528
-0.0056783
-0.00563682
-0.00554906
0.000182088
0.000163121
0.000132787
9.21654e-05
4.24636e-05
-1.50212e-05
-7.93428e-05
-0.000149841
-0.00022607
-0.000307761
-0.000394772
-0.000487041
-0.000584542
-0.00068724
-0.000795062
-0.000907867
-0.00102542
-0.00114739
-0.00127328
-0.00140248
-0.00153417
-0.00166738
-0.00180093
-0.00193342
-0.00206324
-0.00218858
-0.00230742
-0.00241758
-0.00251671
-0.00260244
-0.00267235
-0.00272411
-0.00275556
-0.00276481
-0.00275037
-0.00271126
-0.00264711
-0.00255823
-0.00244583
-0.0023121
-0.00215925
-0.00199159
-0.00181356
-0.00163042
-0.00144807
-0.00127282
-0.0011112
-0.000969712
-0.000854583
-0.000771495
-0.000725329
-0.000719934
-0.000757932
-0.000840571
-0.000967643
-0.00113747
-0.00134697
-0.0015918
-0.00186652
-0.0021649
-0.00248016
-0.0028053
-0.00313341
-0.00345791
-0.00377281
-0.00407292
-0.0043539
-0.00461238
-0.00484592
-0.00505293
-0.0052326
-0.00538466
-0.0055093
-0.00560691
-0.00567782
-0.00572219
-0.00574033
-0.00573213
-0.0056879
-0.00559413
0.000276719
0.000242206
0.000202144
0.000155461
0.000101998
4.2711e-05
-2.17859e-05
-9.12261e-05
-0.000165532
-0.000244758
-0.00032905
-0.000418599
-0.000513603
-0.000614232
-0.000720597
-0.000832733
-0.000950573
-0.00107393
-0.00120248
-0.00133573
-0.00147301
-0.00161343
-0.00175589
-0.00189903
-0.00204124
-0.00218065
-0.00231516
-0.00244241
-0.00255988
-0.00266494
-0.00275488
-0.00282704
-0.00287892
-0.00290827
-0.00291324
-0.00289248
-0.0028453
-0.0027717
-0.00267274
-0.00255077
-0.00240611
-0.00224471
-0.00207056
-0.00188888
-0.00170564
-0.00152732
-0.00136068
-0.00121249
-0.0010893
-0.000997158
-0.000941306
-0.000925969
-0.000954117
-0.00102731
-0.0011456
-0.0013075
-0.00151002
-0.00174885
-0.00201849
-0.00231258
-0.00262416
-0.00294599
-0.00327094
-0.0035922
-0.0039036
-0.00419982
-0.00447649
-0.00473024
-0.00495875
-0.00516061
-0.00533523
-0.00548261
-0.00560319
-0.00569755
-0.00576615
-0.00580913
-0.00582664
-0.00581825
-0.00577375
-0.00567918
0.000383031
0.000330589
0.000279076
0.000225234
0.000166987
0.00010494
3.93342e-05
-3.00155e-05
-0.00010344
-0.000181356
-0.000264227
-0.000352529
-0.000446711
-0.000547172
-0.000654238
-0.000768146
-0.000889017
-0.00101685
-0.00115147
-0.00129254
-0.00143952
-0.0015916
-0.00174773
-0.00190656
-0.00206642
-0.00222534
-0.00238104
-0.00253095
-0.00267228
-0.00280203
-0.00291716
-0.0030146
-0.00309141
-0.00314493
-0.00317287
-0.00317348
-0.00314568
-0.00308917
-0.00300443
-0.00289266
-0.00275767
-0.0026018
-0.00242976
-0.00224698
-0.00205956
-0.00187418
-0.00169786
-0.00153774
-0.00140076
-0.00129341
-0.00122146
-0.00118961
-0.00120134
-0.00125867
-0.00136205
-0.00151034
-0.00170077
-0.00192916
-0.00219003
-0.00247693
-0.00278274
-0.00309997
-0.0034212
-0.00373933
-0.00404792
-0.0043414
-0.00461522
-0.00486594
-0.00509123
-0.00528976
-0.00546107
-0.00560537
-0.0057233
-0.00581565
-0.00588304
-0.00592569
-0.00594374
-0.00593667
-0.00589448
-0.00580367
0.000496825
0.000424542
0.000360329
0.000298378
0.000234529
0.000168945
0.000101413
3.1237e-05
-4.2373e-05
-0.000120229
-0.000203148
-0.000291914
-0.000387254
-0.000489822
-0.000600185
-0.000718802
-0.000846009
-0.000981995
-0.00112678
-0.00128016
-0.00144171
-0.00161071
-0.00178612
-0.00196655
-0.00215023
-0.00233503
-0.00251842
-0.00269753
-0.00286922
-0.00303008
-0.00317661
-0.00330526
-0.00341262
-0.0034955
-0.00355112
-0.00357727
-0.00357243
-0.00353589
-0.00346778
-0.003369
-0.00324293
-0.00309203
-0.00292087
-0.00273485
-0.00254018
-0.00234372
-0.00215281
-0.00197495
-0.0018176
-0.00168781
-0.00159193
-0.00153536
-0.00152222
-0.0015552
-0.00163535
-0.00176202
-0.00193289
-0.00214404
-0.00239016
-0.0026648
-0.00296071
-0.00327022
-0.00358555
-0.00389928
-0.00420459
-0.00449556
-0.00476735
-0.0050163
-0.00523993
-0.00543688
-0.00560671
-0.00574975
-0.00586677
-0.00595875
-0.00602647
-0.00607029
-0.00609045
-0.00608646
-0.00604902
-0.00596569
0.000613626
0.000519956
0.000442061
0.000371305
0.000301237
0.000231477
0.000161286
8.93795e-05
1.44609e-05
-6.4718e-05
-0.000149352
-0.000240561
-0.000339378
-0.000446735
-0.000563462
-0.000690264
-0.000827711
-0.000976205
-0.00113595
-0.00130691
-0.00148874
-0.00168079
-0.001882
-0.00209091
-0.00230558
-0.00252364
-0.00274227
-0.00295822
-0.00316791
-0.00336744
-0.00355278
-0.00371983
-0.00386459
-0.00398331
-0.00407264
-0.00412981
-0.00415277
-0.00414035
-0.00409224
-0.00400904
-0.0038935
-0.00374815
-0.00357735
-0.00338643
-0.00318167
-0.00297011
-0.00275939
-0.00255743
-0.00237225
-0.00221154
-0.00208243
-0.00199114
-0.00194267
-0.00194056
-0.0019867
-0.00208122
-0.00222243
-0.00240694
-0.00262976
-0.00288461
-0.00316425
-0.0034608
-0.00376624
-0.00407272
-0.00437298
-0.00466064
-0.00493044
-0.00517834
-0.00540157
-0.00559857
-0.00576879
-0.00591256
-0.00603069
-0.00612427
-0.00619423
-0.00624108
-0.00626516
-0.00626609
-0.00623559
-0.00616263
0.00072858
0.000612305
0.000519998
0.000439955
0.000363212
0.000288746
0.000215202
0.000140638
6.31974e-05
-1.88424e-05
-0.000107085
-0.000203014
-0.000307988
-0.000423246
-0.0005499
-0.000688929
-0.000841152
-0.0010072
-0.00118747
-0.00138208
-0.00159078
-0.00181293
-0.00204744
-0.0022927
-0.00254658
-0.0028064
-0.00306897
-0.00333058
-0.00358713
-0.00383418
-0.00406706
-0.00428105
-0.0044715
-0.00463398
-0.00476449
-0.00485961
-0.00491668
-0.00493392
-0.00491051
-0.00484673
-0.00474442
-0.00460617
-0.00443603
-0.00423919
-0.00402189
-0.00379131
-0.00355538
-0.00332247
-0.00310118
-0.00289997
-0.00272686
-0.00258907
-0.00249269
-0.00244239
-0.00244119
-0.00249027
-0.0025889
-0.00273446
-0.00292258
-0.00314738
-0.00340175
-0.00367778
-0.00396718
-0.00426171
-0.00455361
-0.00483593
-0.00510282
-0.0053497
-0.00557334
-0.00577179
-0.00594424
-0.00609082
-0.00621229
-0.00630971
-0.00638409
-0.00643607
-0.00646606
-0.00647379
-0.00645215
-0.00639171
0.0008365
0.000696667
0.000589435
0.000499794
0.000416046
0.000336409
0.000258821
0.000180615
9.93158e-05
1.26909e-05
-8.13049e-05
-0.000184544
-0.000298739
-0.000425456
-0.000566118
-0.000721997
-0.000894183
-0.00108355
-0.00129069
-0.00151586
-0.0017589
-0.00201916
-0.00229546
-0.00258602
-0.00288843
-0.00319966
-0.00351606
-0.00383341
-0.004147
-0.00445176
-0.00474233
-0.00501326
-0.00525915
-0.00547482
-0.00565551
-0.00579705
-0.00589604
-0.00594998
-0.00595742
-0.00591805
-0.00583303
-0.00570457
-0.00553635
-0.0053333
-0.00510157
-0.0048484
-0.00458193
-0.00431096
-0.00404473
-0.00379252
-0.00356337
-0.00336567
-0.00320684
-0.00309297
-0.00302849
-0.003016
-0.0030561
-0.00314731
-0.0032862
-0.00346759
-0.00368476
-0.00392994
-0.00419469
-0.00447041
-0.00474878
-0.00502217
-0.00528403
-0.00552904
-0.00575329
-0.00595422
-0.00613054
-0.00628202
-0.00640915
-0.00651284
-0.00659405
-0.00665344
-0.00669143
-0.00670783
-0.00669669
-0.00665029
0.000931778
0.000767712
0.000645242
0.000545831
0.000454833
0.000369588
0.000287233
0.000204303
0.000117659
2.45137e-05
-7.7651e-05
-0.000191124
-0.000317996
-0.000460188
-0.000619462
-0.000797404
-0.000995396
-0.00121456
-0.0014557
-0.00171919
-0.00200494
-0.00231227
-0.00263986
-0.00298572
-0.00334709
-0.00372053
-0.00410187
-0.0044863
-0.00486844
-0.00524248
-0.00560229
-0.0059416
-0.00625417
-0.00653397
-0.00677535
-0.00697328
-0.00712348
-0.00722263
-0.00726846
-0.00725995
-0.00719747
-0.00708269
-0.00691874
-0.00671019
-0.00646296
-0.00618422
-0.00588227
-0.00556629
-0.00524613
-0.00493192
-0.00463382
-0.00436157
-0.00412411
-0.0039292
-0.00378309
-0.00369016
-0.00365273
-0.00367094
-0.00374273
-0.00386397
-0.00402873
-0.00422961
-0.00445822
-0.00470567
-0.0049631
-0.00522214
-0.00547534
-0.00571646
-0.00594066
-0.00614454
-0.00632606
-0.00648437
-0.00661947
-0.00673194
-0.0068225
-0.00689169
-0.00693985
-0.00696675
-0.00696757
-0.00693624
0.00100842
0.000819725
0.000681893
0.000572648
0.000474207
0.000382907
0.000294995
0.00020614
0.000112484
1.06493e-05
-0.000102385
-0.000229353
-0.000372757
-0.0005349
-0.000717908
-0.000923709
-0.00115399
-0.00141014
-0.00169316
-0.00200355
-0.00234126
-0.00270554
-0.0030949
-0.00350707
-0.00393892
-0.0043865
-0.00484506
-0.00530911
-0.00577253
-0.00622869
-0.0066706
-0.00709107
-0.00748291
-0.0078391
-0.00815302
-0.00841863
-0.00863067
-0.00878483
-0.00887791
-0.008908
-0.00887457
-0.00877856
-0.00862245
-0.00841024
-0.0081475
-0.00784121
-0.00749968
-0.00713239
-0.00674971
-0.00636264
-0.00598246
-0.00562037
-0.00528701
-0.0049921
-0.004744
-0.00454929
-0.00441251
-0.00433589
-0.00431927
-0.00436009
-0.00445363
-0.00459327
-0.00477095
-0.00497768
-0.00520411
-0.00544107
-0.00568011
-0.00591383
-0.00613621
-0.00634271
-0.00653022
-0.00669698
-0.00684223
-0.00696595
-0.00706842
-0.00714987
-0.0072104
-0.00724959
-0.00726367
-0.0072481
0.00106006
0.000846654
0.000693512
0.000574456
0.000468398
0.000370559
0.000276204
0.000180071
7.75379e-05
-3.53973e-05
-0.000162293
-0.000306361
-0.000470541
-0.000657556
-0.000869922
-0.00110993
-0.0013796
-0.00168059
-0.00201409
-0.00238073
-0.00278045
-0.00321242
-0.00367493
-0.00416537
-0.00468016
-0.00521481
-0.00576388
-0.00632115
-0.00687966
-0.00743186
-0.00796978
-0.00848523
-0.00896994
-0.00941582
-0.00981513
-0.0101607
-0.0104462
-0.0106662
-0.0108164
-0.0108939
-0.0108971
-0.0108261
-0.0106826
-0.0104699
-0.010193
-0.00985852
-0.00947464
-0.00905097
-0.0085983
-0.00812839
-0.00765362
-0.00718665
-0.00673994
-0.00632535
-0.00595365
-0.00563404
-0.00537373
-0.00517761
-0.00504801
-0.00498457
-0.00498435
-0.00504204
-0.00515033
-0.00530043
-0.00548267
-0.00568712
-0.00590418
-0.00612514
-0.00634247
-0.00655015
-0.00674369
-0.00692003
-0.00707732
-0.00721461
-0.00733149
-0.00742764
-0.00750272
-0.007556
-0.00758454
-0.00758522
0.00108008
0.000842175
0.000673945
0.000545169
0.000431317
0.000326387
0.000224582
0.000119651
6.17016e-06
-0.000120525
-0.000264562
-0.000429662
-0.00061924
-0.000836466
-0.00108428
-0.00136537
-0.00168208
-0.00203636
-0.00242959
-0.00286249
-0.00333499
-0.00384612
-0.00439391
-0.00497535
-0.00558636
-0.00622178
-0.00687546
-0.00754031
-0.00820843
-0.00887128
-0.0095198
-0.0101447
-0.0107364
-0.0112858
-0.0117839
-0.0122222
-0.0125932
-0.0128904
-0.0131082
-0.0132425
-0.0132908
-0.0132522
-0.0131272
-0.0129184
-0.0126302
-0.0122685
-0.0118413
-0.0113581
-0.0108298
-0.0102689
-0.00968867
-0.00910312
-0.00852655
-0.00797306
-0.00745603
-0.00698759
-0.00657809
-0.00623565
-0.00596574
-0.00577092
-0.00565075
-0.00560191
-0.00561841
-0.00569215
-0.00581343
-0.0059717
-0.00615622
-0.00635671
-0.00656393
-0.00676998
-0.00696855
-0.00715487
-0.00732561
-0.00747853
-0.00761215
-0.00772538
-0.00781719
-0.00788632
-0.0079305
-0.00794788
0.00106166
0.000799793
0.000616858
0.000478498
0.000356652
0.000243993
0.000133596
1.81751e-05
-0.000108536
-0.000251892
-0.000416624
-0.000606996
-0.000826931
-0.00108008
-0.00136985
-0.00169931
-0.0020712
-0.00248772
-0.00295046
-0.00346019
-0.0040168
-0.00461913
-0.0052649
-0.00595062
-0.00667161
-0.007422
-0.00819479
-0.00898194
-0.00977451
-0.0105628
-0.0113366
-0.0120853
-0.0127983
-0.0134649
-0.0140748
-0.0146185
-0.015087
-0.0154725
-0.0157683
-0.0159692
-0.0160714
-0.0160729
-0.0159733
-0.0157741
-0.0154789
-0.015093
-0.0146236
-0.0140801
-0.0134734
-0.012816
-0.0121222
-0.011407
-0.0106864
-0.00997662
-0.00929382
-0.00865323
-0.00806871
-0.00755212
-0.00711273
-0.0067568
-0.00648725
-0.00630356
-0.0062019
-0.00617547
-0.00621508
-0.00630983
-0.00644794
-0.00661752
-0.00680727
-0.00700707
-0.00720832
-0.00740408
-0.00758902
-0.00775918
-0.00791166
-0.00804421
-0.00815486
-0.0082416
-0.00830265
-0.00833726
0.000997909
0.000712949
0.000515847
0.000368076
0.000237993
0.000116871
-3.40094e-06
-0.000131179
-0.000273601
-0.000436745
-0.00062597
-0.000846122
-0.00110167
-0.00139678
-0.00173532
-0.00212084
-0.0025564
-0.0030445
-0.00358688
-0.00418438
-0.00483678
-0.00554268
-0.00629939
-0.00710289
-0.0079478
-0.00882743
-0.0097338
-0.0106578
-0.0115894
-0.0125175
-0.0134307
-0.014317
-0.0151644
-0.0159609
-0.0166949
-0.0173555
-0.0179324
-0.0184166
-0.0188003
-0.0190769
-0.0192416
-0.0192911
-0.0192242
-0.0190414
-0.018745
-0.0183396
-0.0178318
-0.0172301
-0.0165451
-0.0157896
-0.0149777
-0.0141257
-0.0132506
-0.0123708
-0.0115048
-0.0106711
-0.00988726
-0.00916926
-0.0085308
-0.0079826
-0.00753184
-0.00718183
-0.00693186
-0.00677737
-0.00671039
-0.00672025
-0.00679437
-0.00691927
-0.00708146
-0.00726819
-0.00746809
-0.00767149
-0.00787051
-0.00805896
-0.00823203
-0.00838594
-0.00851746
-0.0086236
-0.00870283
-0.0087554
0.000881994
0.000575159
0.000364576
0.000207586
6.89774e-05
-6.14431e-05
-0.000193011
-0.000335177
-0.000495973
-0.000682223
-0.000899948
-0.00115461
-0.00145124
-0.00179457
-0.00218897
-0.00263843
-0.00314639
-0.00371561
-0.00434798
-0.00504434
-0.0058043
-0.00662616
-0.00750673
-0.00844135
-0.00942383
-0.0104465
-0.0115003
-0.012575
-0.0136591
-0.0147402
-0.0158056
-0.0168417
-0.0178352
-0.0187726
-0.019641
-0.0204282
-0.0211227
-0.0217143
-0.0221941
-0.0225543
-0.0227892
-0.0228944
-0.0228675
-0.0227081
-0.0224175
-0.0219992
-0.0214588
-0.0208041
-0.0200449
-0.0191935
-0.018264
-0.0172729
-0.0162381
-0.0151795
-0.0141177
-0.0130743
-0.0120704
-0.0111263
-0.0102606
-0.00948918
-0.00882441
-0.00827449
-0.00784301
-0.0075288
-0.00732617
-0.00722546
-0.0072139
-0.00727663
-0.0073979
-0.00756206
-0.00775447
-0.00796215
-0.00817403
-0.00838105
-0.00857599
-0.00875305
-0.00890738
-0.00903469
-0.00913357
-0.00920513
0.000707315
0.000380157
0.000156921
-9.08044e-06
-0.000156556
-0.000297206
-0.000441616
-0.000600344
-0.000782326
-0.000995154
-0.00124554
-0.00153957
-0.00188292
-0.00228086
-0.0027383
-0.0032597
-0.00384885
-0.00450875
-0.00524141
-0.00604759
-0.00692668
-0.00787656
-0.00889346
-0.00997192
-0.0111048
-0.0122834
-0.0134973
-0.0147349
-0.0159834
-0.0172289
-0.018457
-0.0196528
-0.0208014
-0.0218881
-0.0228987
-0.0238196
-0.0246383
-0.0253436
-0.0259254
-0.0263753
-0.0266865
-0.0268536
-0.0268736
-0.0267447
-0.0264674
-0.0260441
-0.0254792
-0.0247794
-0.0239537
-0.0230131
-0.0219715
-0.0208448
-0.0196513
-0.0184117
-0.0171481
-0.0158845
-0.0146455
-0.0134555
-0.0123381
-0.0113149
-0.0104043
-0.00962036
-0.00897232
-0.00846379
-0.00809269
-0.00785155
-0.00772827
-0.00770721
-0.00777051
-0.00789945
-0.00807572
-0.00828238
-0.00850449
-0.00872945
-0.00894692
-0.00914859
-0.00932752
-0.00947783
-0.00959798
-0.00968993
0.000467652
0.000122057
-0.000112867
-0.00028766
-0.000444395
-0.000596292
-0.000755196
-0.00093277
-0.00113886
-0.00138183
-0.00166912
-0.00200747
-0.00240319
-0.00286215
-0.00338981
-0.00399106
-0.00467005
-0.00542999
-0.00627291
-0.00719946
-0.0082087
-0.00929796
-0.0104627
-0.0116967
-0.0129915
-0.0143372
-0.015722
-0.0171327
-0.0185551
-0.0199735
-0.0213721
-0.0227345
-0.0240442
-0.0252852
-0.0264422
-0.0275006
-0.0284469
-0.029269
-0.0299561
-0.0304992
-0.0308906
-0.0311242
-0.0311966
-0.0311047
-0.0308482
-0.0304284
-0.0298485
-0.0291141
-0.0282326
-0.027214
-0.0260707
-0.024818
-0.0234736
-0.0220581
-0.0205945
-0.0191084
-0.0176268
-0.0161782
-0.0147909
-0.0134923
-0.0123072
-0.0112568
-0.0103571
-0.00961804
-0.00904278
-0.00862758
-0.00836232
-0.0082315
-0.0082157
-0.0082932
-0.0084417
-0.00863974
-0.00886777
-0.00910884
-0.00934878
-0.0095761
-0.00978127
-0.00995638
-0.0100996
-0.0102138
0.000157348
-0.000204485
-0.000450002
-0.000633353
-0.000799778
-0.000964008
-0.00113913
-0.00133791
-0.00157108
-0.0018478
-0.00217624
-0.00256382
-0.00301751
-0.00354378
-0.00414863
-0.00483738
-0.00561452
-0.00648338
-0.00744597
-0.0085027
-0.00965217
-0.010891
-0.0122139
-0.0136133
-0.0150797
-0.0166015
-0.0181656
-0.019757
-0.0213596
-0.0229565
-0.0245298
-0.0260618
-0.0275348
-0.0289315
-0.0302355
-0.0314313
-0.0325049
-0.0334435
-0.034236
-0.0348727
-0.0353456
-0.0356486
-0.0357766
-0.0357269
-0.035498
-0.0350902
-0.0345056
-0.0337484
-0.0328244
-0.0317422
-0.0305126
-0.029149
-0.0276681
-0.0260895
-0.0244362
-0.022734
-0.0210118
-0.019301
-0.0176339
-0.0160435
-0.0145615
-0.0132164
-0.0120322
-0.0110269
-0.0102104
-0.00958469
-0.00914344
-0.00887267
-0.00875235
-0.00875822
-0.00886393
-0.00904302
-0.00927062
-0.00952456
-0.009786
-0.0100395
-0.0102723
-0.010474
-0.0106424
-0.010781
-0.000228522
-0.000604097
-0.000858995
-0.00105065
-0.00122722
-0.00140491
-0.00159803
-0.00182037
-0.0020836
-0.00239764
-0.00277138
-0.00321297
-0.00373002
-0.00432962
-0.00501828
-0.00580175
-0.00668474
-0.00767069
-0.00876146
-0.00995709
-0.0112556
-0.0126528
-0.0141422
-0.015715
-0.0173602
-0.0190646
-0.0208133
-0.0225896
-0.0243756
-0.0261525
-0.0279011
-0.029602
-0.0312364
-0.0327859
-0.0342334
-0.0355629
-0.0367597
-0.037811
-0.0387053
-0.039433
-0.0399859
-0.0403578
-0.0405432
-0.040539
-0.0403432
-0.0399552
-0.0393761
-0.0386086
-0.037657
-0.0365281
-0.0352305
-0.0337759
-0.0321788
-0.030457
-0.0286322
-0.0267298
-0.0247789
-0.0228125
-0.0208662
-0.0189776
-0.0171846
-0.0155235
-0.0140272
-0.0127225
-0.0116285
-0.0107547
-0.0101006
-0.00965598
-0.00940154
-0.00931143
-0.00935557
-0.00950228
-0.00972071
-0.00998258
-0.0102634
-0.010543
-0.0108046
-0.0110347
-0.0112304
-0.011396
-0.000693995
-0.00108055
-0.0013435
-0.0015432
-0.00173037
-0.00192265
-0.00213551
-0.00238377
-0.00267994
-0.00303474
-0.00345778
-0.0039579
-0.00454337
-0.00522189
-0.00600046
-0.00688517
-0.00788093
-0.00899114
-0.0102174
-0.0115593
-0.013014
-0.0145763
-0.0162384
-0.0179901
-0.0198187
-0.0217092
-0.0236447
-0.0256065
-0.0275751
-0.0295299
-0.0314502
-0.0333153
-0.0351052
-0.0368009
-0.0383846
-0.0398401
-0.0411526
-0.0423092
-0.0432989
-0.0441119
-0.0447405
-0.0451784
-0.0454205
-0.0454632
-0.0453042
-0.0449424
-0.0443779
-0.0436121
-0.0426479
-0.0414901
-0.0401452
-0.0386224
-0.0369336
-0.0350942
-0.0331235
-0.0310451
-0.0288871
-0.0266826
-0.0244689
-0.0222868
-0.0201797
-0.018191
-0.0163626
-0.0147313
-0.0133266
-0.0121679
-0.0112632
-0.010608
-0.010186
-0.00997151
-0.00993137
-0.0100288
-0.0102266
-0.0104895
-0.0107863
-0.0110911
-0.0113822
-0.0116423
-0.0118677
-0.0120633
-0.00124206
-0.00163659
-0.00190617
-0.00211359
-0.00231181
-0.00251979
-0.0027541
-0.00303052
-0.00336239
-0.00376117
-0.0042372
-0.00480001
-0.00545851
-0.00622095
-0.00709479
-0.00808641
-0.0092008
-0.0104412
-0.0118089
-0.0133026
-0.0149188
-0.0166508
-0.0184895
-0.0204229
-0.0224363
-0.024513
-0.0266338
-0.0287785
-0.0309252
-0.033052
-0.0351366
-0.0371573
-0.0390932
-0.0409248
-0.042634
-0.0442046
-0.0456222
-0.0468741
-0.0479497
-0.0488399
-0.0495375
-0.0500364
-0.050332
-0.0504208
-0.0503003
-0.0499692
-0.0494267
-0.0486733
-0.0477106
-0.0465413
-0.04517
-0.0436031
-0.0418496
-0.0399219
-0.037836
-0.0356127
-0.0332777
-0.0308625
-0.0284043
-0.0259455
-0.0235332
-0.0212171
-0.0190471
-0.0170704
-0.015328
-0.0138513
-0.0126589
-0.0117551
-0.0111296
-0.0107585
-0.0106075
-0.0106352
-0.0107977
-0.0110524
-0.0113602
-0.0116883
-0.0120091
-0.0123009
-0.0125583
-0.0127873
-0.00187454
-0.00227385
-0.00254854
-0.00276333
-0.00297298
-0.00319769
-0.00345505
-0.00376172
-0.0041318
-0.0045775
-0.00510983
-0.005739
-0.00647452
-0.00732517
-0.00829877
-0.0094019
-0.0106395
-0.0120147
-0.0135279
-0.0151773
-0.0169579
-0.0188619
-0.0208782
-0.0229931
-0.0251899
-0.0274496
-0.0297511
-0.0320721
-0.0343891
-0.0366784
-0.0389166
-0.041081
-0.0431503
-0.0451046
-0.046926
-0.0485984
-0.050108
-0.0514428
-0.052593
-0.0535503
-0.0543081
-0.0548611
-0.0552052
-0.0553373
-0.0552551
-0.054957
-0.054442
-0.0537097
-0.0527605
-0.0515957
-0.0502175
-0.0486299
-0.046839
-0.0448537
-0.0426862
-0.0403535
-0.0378778
-0.0352874
-0.0326176
-0.0299103
-0.0272143
-0.0245835
-0.0220747
-0.0197449
-0.0176469
-0.0158252
-0.0143117
-0.0131224
-0.0122559
-0.0116933
-0.0114011
-0.0113348
-0.0114444
-0.011679
-0.011991
-0.0123394
-0.0126896
-0.0130142
-0.013306
-0.013572
-0.00259198
-0.0029927
-0.00327089
-0.00349263
-0.00371403
-0.00395639
-0.00423823
-0.00457701
-0.00498754
-0.0054827
-0.00607417
-0.00677278
-0.00758859
-0.00853084
-0.00960765
-0.0108257
-0.0121898
-0.0137025
-0.0153637
-0.0171704
-0.0191162
-0.0211918
-0.0233842
-0.0256775
-0.028053
-0.0304894
-0.0329638
-0.0354515
-0.0379277
-0.0403671
-0.0427454
-0.0450393
-0.0472269
-0.0492887
-0.0512068
-0.0529661
-0.0545533
-0.0559575
-0.0571697
-0.0581827
-0.0589908
-0.0595897
-0.0599759
-0.0601469
-0.0601009
-0.0598362
-0.0593518
-0.0586467
-0.0577206
-0.0565733
-0.0552054
-0.0536184
-0.0518157
-0.0498025
-0.0475872
-0.0451824
-0.0426057
-0.0398812
-0.0370402
-0.0341223
-0.0311754
-0.0282553
-0.0254238
-0.0227458
-0.0202856
-0.0181012
-0.0162396
-0.0147312
-0.0135868
-0.0127963
-0.0123299
-0.0121421
-0.0121776
-0.0123774
-0.0126847
-0.013049
-0.0134274
-0.0137857
-0.0141145
-0.0144209
-0.00339355
-0.00379223
-0.00407223
-0.00430042
-0.00453378
-0.00479456
-0.0051021
-0.00547456
-0.00592739
-0.00647411
-0.00712698
-0.0078974
-0.00879594
-0.00983219
-0.0110145
-0.0123495
-0.0138417
-0.0154931
-0.0173027
-0.0192661
-0.0213757
-0.0236199
-0.0259841
-0.02845
-0.0309968
-0.0336009
-0.0362373
-0.0388796
-0.0415014
-0.0440763
-0.0465792
-0.0489863
-0.0512759
-0.0534286
-0.0554274
-0.0572578
-0.0589077
-0.0603671
-0.0616284
-0.0626853
-0.0635334
-0.0641693
-0.0645903
-0.0647948
-0.0647813
-0.0645487
-0.0640958
-0.0634217
-0.0625252
-0.0614054
-0.0600614
-0.0584929
-0.0567005
-0.0546864
-0.052455
-0.0500143
-0.0473769
-0.0445615
-0.0415944
-0.0385106
-0.035355
-0.0321825
-0.029057
-0.0260494
-0.0232332
-0.0206799
-0.0184522
-0.0165971
-0.0151412
-0.0140867
-0.0134112
-0.0130715
-0.0130086
-0.0131563
-0.0134476
-0.0138219
-0.0142264
-0.0146188
-0.0149866
-0.0153374
-0.00427705
-0.00467016
-0.00495023
-0.00518429
-0.00542966
-0.00570942
-0.00604363
-0.006451
-0.00694757
-0.00754738
-0.00826326
-0.00910709
-0.0100899
-0.0112215
-0.0125103
-0.0139629
-0.0155833
-0.0173727
-0.019329
-0.0214466
-0.0237159
-0.0261236
-0.0286527
-0.0312829
-0.033991
-0.0367513
-0.0395368
-0.0423195
-0.0450716
-0.0477658
-0.0503765
-0.0528799
-0.0552545
-0.0574814
-0.0595446
-0.0614305
-0.0631283
-0.0646293
-0.065927
-0.0670165
-0.0678944
-0.0685583
-0.0690067
-0.0692386
-0.0692531
-0.0690497
-0.0686274
-0.0679855
-0.0671224
-0.0660367
-0.0647265
-0.0631901
-0.0614259
-0.0594334
-0.0572134
-0.0547696
-0.0521094
-0.0492458
-0.0461989
-0.0429976
-0.0396817
-0.0363025
-0.0329231
-0.0296169
-0.0264646
-0.0235492
-0.0209487
-0.0187283
-0.0169327
-0.0155805
-0.0146612
-0.0141372
-0.0139491
-0.0140242
-0.0142861
-0.0146625
-0.0150898
-0.0155161
-0.0159249
-0.0163237
-0.00523887
-0.00562289
-0.00590122
-0.00614045
-0.00639774
-0.00669683
-0.00705833
-0.00750146
-0.0080427
-0.00869656
-0.00947633
-0.0103943
-0.0114618
-0.012689
-0.014084
-0.0156533
-0.0174003
-0.0193253
-0.0214249
-0.0236918
-0.0261148
-0.0286785
-0.0313636
-0.0341476
-0.037005
-0.0399081
-0.0428281
-0.0457356
-0.0486016
-0.0513983
-0.0540998
-0.0566823
-0.059125
-0.06141
-0.063522
-0.0654488
-0.0671808
-0.0687107
-0.0700332
-0.0711448
-0.072043
-0.0727266
-0.0731951
-0.0734481
-0.0734857
-0.0733077
-0.0729138
-0.0723032
-0.0714747
-0.0704265
-0.0691563
-0.0676612
-0.0659382
-0.0639846
-0.0617983
-0.0593791
-0.0567296
-0.0538568
-0.0507743
-0.0475042
-0.0440792
-0.0405446
-0.0369596
-0.0333971
-0.0299413
-0.026684
-0.0237169
-0.0211232
-0.018968
-0.0172894
-0.0160933
-0.0153522
-0.0150098
-0.0149896
-0.015206
-0.0155752
-0.0160207
-0.01648
-0.0169313
-0.0173817
-0.00627405
-0.0066455
-0.00692025
-0.00716384
-0.00743274
-0.00775122
-0.00814033
-0.00861961
-0.00920592
-0.00991415
-0.0107579
-0.01175
-0.0129017
-0.0142233
-0.0157231
-0.0174068
-0.0192771
-0.0213334
-0.0235709
-0.0259806
-0.0285494
-0.0312596
-0.0340899
-0.0370154
-0.0400086
-0.0430399
-0.0460789
-0.0490949
-0.0520581
-0.0549403
-0.0577157
-0.060361
-0.0628561
-0.0651839
-0.0673306
-0.0692851
-0.0710392
-0.0725868
-0.073924
-0.0750483
-0.0759585
-0.0766544
-0.0771363
-0.0774047
-0.0774602
-0.0773034
-0.0769345
-0.0763531
-0.0755582
-0.0745482
-0.0733205
-0.0718718
-0.0701983
-0.0682956
-0.0661595
-0.0637864
-0.0611747
-0.0583263
-0.0552482
-0.0519548
-0.048471
-0.0448344
-0.0410974
-0.037329
-0.0336132
-0.0300468
-0.0267325
-0.0237701
-0.0212455
-0.0192192
-0.0177172
-0.0167274
-0.0162008
-0.0160604
-0.0162132
-0.0165634
-0.0170214
-0.0175117
-0.0180066
-0.018512
-0.00737634
-0.00773182
-0.00800113
-0.00824813
-0.00852815
-0.00886579
-0.00928241
-0.00979778
-0.010429
-0.0111912
-0.0120984
-0.0131634
-0.0143978
-0.0158118
-0.0174133
-0.0192076
-0.0211966
-0.0233784
-0.0257467
-0.0282909
-0.0309957
-0.0338416
-0.0368048
-0.0398584
-0.042973
-0.0461171
-0.049259
-0.0523671
-0.0554112
-0.0583627
-0.0611963
-0.0638892
-0.0664222
-0.0687795
-0.0709484
-0.0729192