/*--------------------------------*- C++ -*----------------------------------*\
  =========                 |
  \\      /  F ield         | OpenFOAM: The Open Source CFD Toolbox
   \\    /   O peration     | Website:  https://openfoam.org
    \\  /    A nd           | Version:  7
     \\/     M anipulation  |
\*---------------------------------------------------------------------------*/
FoamFile
{
    version     2.0;
    format      ascii;
    class       surfaceScalarField;
    location    "0.025";
    object      phi;
}
// * * * * * * * * * * * * * * * * * * * * * * * * * * * * * * * * * * * * * //

dimensions      [0 3 -1 0 0 0 0];

internalField   nonuniform List<scalar> 
12640
(
6.67396e-11
-6.67811e-11
-1.97632e-10
2.64375e-10
-8.39784e-10
6.42153e-10
-1.73412e-09
8.9434e-10
-2.78207e-09
1.04796e-09
-3.91168e-09
1.12962e-09
-5.0764e-09
1.16472e-09
-6.24944e-09
1.17305e-09
-7.41682e-09
1.16738e-09
-8.57147e-09
1.15465e-09
-9.70966e-09
1.13818e-09
-1.08291e-08
1.11947e-09
-1.19282e-08
1.09909e-09
-1.30054e-08
1.07721e-09
-1.40593e-08
1.05383e-09
-1.50882e-08
1.02893e-09
-1.60907e-08
1.00243e-09
-1.7065e-08
9.74335e-10
-1.80096e-08
9.44658e-10
-1.89231e-08
9.1345e-10
-1.98038e-08
8.80748e-10
-2.06504e-08
8.46582e-10
-2.14614e-08
8.11001e-10
-2.22355e-08
7.74073e-10
-2.29714e-08
7.35866e-10
-2.36678e-08
6.96434e-10
-2.43236e-08
6.55828e-10
-2.49377e-08
6.14107e-10
-2.55091e-08
5.71339e-10
-2.60367e-08
5.27594e-10
-2.65196e-08
4.8294e-10
-2.69571e-08
4.37437e-10
-2.73482e-08
3.91146e-10
-2.76923e-08
3.44132e-10
-2.79888e-08
2.9647e-10
-2.82371e-08
2.48235e-10
-2.84366e-08
1.99496e-10
-2.85869e-08
1.50323e-10
-2.86877e-08
1.0078e-10
-2.87386e-08
5.09399e-11
-2.87395e-08
8.61776e-13
-2.86901e-08
-4.93323e-11
-2.85905e-08
-9.96034e-11
-2.84407e-08
-1.49858e-10
-2.82407e-08
-2.00021e-10
-2.79907e-08
-2.50016e-10
-2.76909e-08
-2.99761e-10
-2.73417e-08
-3.49171e-10
-2.69436e-08
-3.98158e-10
-2.6497e-08
-4.46635e-10
-2.60024e-08
-4.94516e-10
-2.54607e-08
-5.41714e-10
-2.48726e-08
-5.88143e-10
-2.42389e-08
-6.33714e-10
-2.35605e-08
-6.78334e-10
-2.28386e-08
-7.21915e-10
-2.20743e-08
-7.64365e-10
-2.12687e-08
-8.05594e-10
-2.04231e-08
-8.45513e-10
-1.95391e-08
-8.8404e-10
-1.8618e-08
-9.2109e-10
-1.76614e-08
-9.56586e-10
-1.6671e-08
-9.90456e-10
-1.56483e-08
-1.02264e-09
-1.45952e-08
-1.05309e-09
-1.35134e-08
-1.08179e-09
-1.24047e-08
-1.10871e-09
-1.12709e-08
-1.13386e-09
-1.01137e-08
-1.15718e-09
-8.93522e-09
-1.17847e-09
-7.73816e-09
-1.19706e-09
-6.52686e-09
-1.21129e-09
-5.30936e-09
-1.2175e-09
-4.10085e-09
-1.20852e-09
-2.92913e-09
-1.17172e-09
-1.84164e-09
-1.08749e-09
-9.11813e-10
-9.2983e-10
-2.40619e-10
-6.71197e-10
6.20702e-11
-3.02692e-10
6.20754e-11
-3.03469e-10
2.36691e-10
-1.33692e-09
1.29783e-09
-3.04846e-09
2.35371e-09
-5.27978e-09
3.12566e-09
-7.85398e-09
3.62217e-09
-1.06297e-08
3.90536e-09
-1.35072e-08
4.04225e-09
-1.64225e-08
4.08832e-09
-1.93371e-08
4.08193e-09
-2.22287e-08
4.04628e-09
-2.50845e-08
3.994e-09
-2.78964e-08
3.93137e-09
-3.06586e-08
3.86126e-09
-3.33663e-08
3.78486e-09
-3.6015e-08
3.7026e-09
-3.86007e-08
3.61458e-09
-4.11191e-08
3.52083e-09
-4.35662e-08
3.42142e-09
-4.59379e-08
3.31644e-09
-4.82305e-08
3.20605e-09
-5.04402e-08
3.09037e-09
-5.25632e-08
2.96959e-09
-5.45961e-08
2.84388e-09
-5.65354e-08
2.71345e-09
-5.83781e-08
2.57853e-09
-6.0121e-08
2.43932e-09
-6.17612e-08
2.29602e-09
-6.3296e-08
2.14887e-09
-6.47227e-08
1.99809e-09
-6.6039e-08
1.84391e-09
-6.72427e-08
1.68658e-09
-6.83316e-08
1.52631e-09
-6.93038e-08
1.36336e-09
-7.01576e-08
1.19796e-09
-7.08915e-08
1.03035e-09
-7.1504e-08
8.60792e-10
-7.19941e-08
6.89531e-10
-7.23606e-08
5.16812e-10
-7.26027e-08
3.42885e-10
-7.27198e-08
1.68004e-10
-7.27113e-08
-7.57062e-12
-7.25771e-08
-1.8356e-10
-7.2317e-08
-3.59699e-10
-7.19312e-08
-5.35717e-10
-7.14199e-08
-7.11341e-10
-7.07836e-08
-8.86293e-10
-7.00231e-08
-1.06029e-09
-6.91392e-08
-1.23304e-09
-6.81331e-08
-1.40426e-09
-6.70061e-08
-1.57364e-09
-6.57597e-08
-1.7409e-09
-6.43957e-08
-1.90572e-09
-6.29161e-08
-2.06781e-09
-6.13229e-08
-2.22686e-09
-5.96187e-08
-2.38256e-09
-5.7806e-08
-2.53462e-09
-5.58876e-08
-2.68271e-09
-5.38667e-08
-2.82653e-09
-5.17464e-08
-2.96579e-09
-4.95303e-08
-3.10018e-09
-4.7222e-08
-3.22943e-09
-4.48253e-08
-3.35327e-09
-4.23443e-08
-3.47144e-09
-3.97832e-08
-3.58372e-09
-3.71464e-08
-3.68991e-09
-3.44383e-08
-3.78984e-09
-3.16637e-08
-3.88333e-09
-2.88274e-08
-3.97014e-09
-2.59349e-08
-4.04968e-09
-2.29928e-08
-4.12059e-09
-2.00102e-08
-4.1797e-09
-1.70012e-08
-4.22027e-09
-1.39896e-08
-4.22913e-09
-1.10155e-08
-4.1826e-09
-8.14514e-09
-4.04208e-09
-5.48087e-09
-3.75177e-09
-3.16714e-09
-3.24357e-09
-1.38266e-09
-2.45568e-09
-3.02497e-10
-1.38284e-09
-2.40431e-10
-6.39635e-10
8.76328e-10
-2.36835e-09
3.02655e-09
-4.96869e-09
4.95405e-09
-8.22237e-09
6.37935e-09
-1.19167e-08
7.3165e-09
-1.58786e-08
7.86724e-09
-1.99824e-08
8.14612e-09
-2.41442e-08
8.25012e-09
-2.83108e-08
8.24855e-09
-3.24498e-08
8.1852e-09
-3.6541e-08
8.08518e-09
-4.05713e-08
7.96174e-09
-4.45315e-08
7.8214e-09
-4.84138e-08
7.66713e-09
-5.22114e-08
7.50022e-09
-5.5918e-08
7.3212e-09
-5.95275e-08
7.13036e-09
-6.3034e-08
6.92794e-09
-6.64318e-08
6.7142e-09
-6.97152e-08
6.48945e-09
-7.28789e-08
6.25403e-09
-7.59176e-08
6.00828e-09
-7.88263e-08
5.75261e-09
-8.16003e-08
5.48744e-09
-8.4235e-08
5.2132e-09
-8.6726e-08
4.93033e-09
-8.90692e-08
4.63926e-09
-9.12608e-08
4.34046e-09
-9.32971e-08
4.03439e-09
-9.51747e-08
3.72152e-09
-9.68905e-08
3.40234e-09
-9.84415e-08
3.07732e-09
-9.98251e-08
2.74695e-09
-1.01039e-07
2.41172e-09
-1.02081e-07
2.07214e-09
-1.02949e-07
1.72869e-09
-1.03641e-07
1.38189e-09
-1.04156e-07
1.03223e-09
-1.04494e-07
6.80237e-10
-1.04652e-07
3.26415e-10
-1.04631e-07
-2.87008e-11
-1.0443e-07
-3.84574e-10
-1.04049e-07
-7.40659e-10
-1.03488e-07
-1.09641e-09
-1.02748e-07
-1.45128e-09
-1.0183e-07
-1.80471e-09
-1.00734e-07
-2.15613e-09
-9.94622e-08
-2.50496e-09
-9.80159e-08
-2.85063e-09
-9.6397e-08
-3.19252e-09
-9.46078e-08
-3.53006e-09
-9.26509e-08
-3.86265e-09
-9.0529e-08
-4.18967e-09
-8.82454e-08
-4.51052e-09
-8.58034e-08
-4.82459e-09
-8.32067e-08
-5.13126e-09
-8.04595e-08
-5.42992e-09
-7.75661e-08
-5.71996e-09
-7.45311e-08
-6.00077e-09
-7.13595e-08
-6.27178e-09
-6.80565e-08
-6.53241e-09
-6.46277e-08
-6.78211e-09
-6.10787e-08
-7.02037e-09
-5.74158e-08
-7.24669e-09
-5.3645e-08
-7.46064e-09
-4.97731e-08
-7.66176e-09
-4.58069e-08
-7.84953e-09
-4.17539e-08
-8.02315e-09
-3.76226e-08
-8.18103e-09
-3.34233e-08
-8.31982e-09
-2.91706e-08
-8.43248e-09
-2.48858e-08
-8.50503e-09
-2.06034e-08
-8.5115e-09
-1.63788e-08
-8.40722e-09
-1.22988e-08
-8.12207e-09
-8.4926e-09
-7.55798e-09
-5.1375e-09
-6.59867e-09
-2.45218e-09
-5.14098e-09
-6.6902e-10
-3.16601e-09
-9.09445e-10
-8.93417e-10
1.76975e-09
-3.14408e-09
5.27722e-09
-6.41274e-09
8.22271e-09
-1.04147e-08
1.03813e-08
-1.4906e-08
1.18078e-08
-1.96956e-08
1.26568e-08
-2.46457e-08
1.30962e-08
-2.96628e-08
1.32673e-08
-3.46868e-08
1.32725e-08
-3.96795e-08
1.31779e-08
-4.46166e-08
1.30223e-08
-4.94818e-08
1.28269e-08
-5.42629e-08
1.26025e-08
-5.89502e-08
1.23545e-08
-6.35352e-08
1.20852e-08
-6.801e-08
1.17959e-08
-7.23669e-08
1.14873e-08
-7.65989e-08
1.11599e-08
-8.06988e-08
1.08142e-08
-8.466e-08
1.04506e-08
-8.84759e-08
1.00699e-08
-9.21403e-08
9.67263e-09
-9.56471e-08
9.2594e-09
-9.89905e-08
8.83092e-09
-1.02165e-07
8.3879e-09
-1.05166e-07
7.93105e-09
-1.07988e-07
7.46109e-09
-1.10626e-07
6.97877e-09
-1.13077e-07
6.48484e-09
-1.15335e-07
5.98008e-09
-1.17398e-07
5.46525e-09
-1.19262e-07
4.94114e-09
-1.20923e-07
4.40852e-09
-1.2238e-07
3.8682e-09
-1.23629e-07
3.32097e-09
-1.24668e-07
2.76765e-09
-1.25495e-07
2.20905e-09
-1.26109e-07
1.64596e-09
-1.26508e-07
1.07923e-09
-1.26691e-07
5.09676e-10
-1.26658e-07
-6.18443e-11
-1.26408e-07
-6.34474e-10
-1.25941e-07
-1.20735e-09
-1.25258e-07
-1.77959e-09
-1.24359e-07
-2.35031e-09
-1.23245e-07
-2.91862e-09
-1.21918e-07
-3.48362e-09
-1.20378e-07
-4.04438e-09
-1.18629e-07
-4.59997e-09
-1.16672e-07
-5.14944e-09
-1.1451e-07
-5.69185e-09
-1.12146e-07
-6.22625e-09
-1.09584e-07
-6.75166e-09
-1.06828e-07
-7.26711e-09
-1.03881e-07
-7.77164e-09
-1.00748e-07
-8.26425e-09
-9.74338e-08
-8.74396e-09
-9.3944e-08
-9.20982e-09
-9.02839e-08
-9.66086e-09
-8.64595e-08
-1.00961e-08
-8.24772e-08
-1.05147e-08
-7.83436e-08
-1.09158e-08
-7.40656e-08
-1.12984e-08
-6.96506e-08
-1.16617e-08
-6.51062e-08
-1.2005e-08
-6.04404e-08
-1.23275e-08
-5.56619e-08
-1.26281e-08
-5.07798e-08
-1.29052e-08
-4.5805e-08
-1.31559e-08
-4.07504e-08
-1.33744e-08
-3.56339e-08
-1.3549e-08
-3.04814e-08
-1.36575e-08
-2.5333e-08
-1.36599e-08
-2.02513e-08
-1.34889e-08
-1.53328e-08
-1.30406e-08
-1.0719e-08
-1.21718e-08
-6.60576e-09
-1.07119e-08
-3.24354e-09
-8.5032e-09
-9.27332e-10
-5.48222e-09
-1.83677e-09
-1.05357e-09
2.82333e-09
-3.66419e-09
7.88784e-09
-7.40108e-09
1.19596e-08
-1.19241e-08
1.49043e-08
-1.69619e-08
1.68456e-08
-2.23102e-08
1.80052e-08
-2.78246e-08
1.86106e-08
-3.3408e-08
1.88507e-08
-3.89971e-08
1.88617e-08
-4.45515e-08
1.87323e-08
-5.00447e-08
1.85154e-08
-5.54584e-08
1.82406e-08
-6.0779e-08
1.79231e-08
-6.59954e-08
1.75709e-08
-7.10978e-08
1.71876e-08
-7.60773e-08
1.67754e-08
-8.09252e-08
1.63353e-08
-8.56335e-08
1.58682e-08
-9.01944e-08
1.5375e-08
-9.46002e-08
1.48565e-08
-9.88438e-08
1.43135e-08
-1.02918e-07
1.3747e-08
-1.06817e-07
1.31579e-08
-1.10533e-07
1.25472e-08
-1.14061e-07
1.19159e-08
-1.17395e-07
1.1265e-08
-1.20529e-07
1.05956e-08
-1.23459e-07
9.90869e-09
-1.2618e-07
9.20543e-09
-1.28687e-07
8.48688e-09
-1.30976e-07
7.75415e-09
-1.33043e-07
7.00835e-09
-1.34885e-07
6.25059e-09
-1.36499e-07
5.48202e-09
-1.37882e-07
4.70376e-09
-1.39031e-07
3.91697e-09
-1.39945e-07
3.1228e-09
-1.40621e-07
2.32239e-09
-1.41059e-07
1.51692e-09
-1.41257e-07
7.07577e-10
-1.41214e-07
-1.04441e-10
-1.40931e-07
-9.17921e-10
-1.40406e-07
-1.73164e-09
-1.39642e-07
-2.54436e-09
-1.38637e-07
-3.35483e-09
-1.37394e-07
-4.16179e-09
-1.35914e-07
-4.96395e-09
-1.34198e-07
-5.76002e-09
-1.32249e-07
-6.54869e-09
-1.3007e-07
-7.32861e-09
-1.27663e-07
-8.09847e-09
-1.25033e-07
-8.85689e-09
-1.22182e-07
-9.60252e-09
-1.19115e-07
-1.0334e-08
-1.15837e-07
-1.10499e-08
-1.12352e-07
-1.17489e-08
-1.08666e-07
-1.24296e-08
-1.04786e-07
-1.30907e-08
-1.00716e-07
-1.37307e-08
-9.64635e-08
-1.43483e-08
-9.2036e-08
-1.49423e-08
-8.74405e-08
-1.55112e-08
-8.26848e-08
-1.60541e-08
-7.77771e-08
-1.65695e-08
-7.27259e-08
-1.70563e-08
-6.75402e-08
-1.75132e-08
-6.22297e-08
-1.79386e-08
-5.6805e-08
-1.83299e-08
-5.1278e-08
-1.86828e-08
-4.56636e-08
-1.89888e-08
-3.99813e-08
-1.92313e-08
-3.42592e-08
-1.93796e-08
-2.85398e-08
-1.93793e-08
-2.28888e-08
-1.91399e-08
-1.74065e-08
-1.8523e-08
-1.22413e-08
-1.7337e-08
-7.60251e-09
-1.53507e-08
-3.76824e-09
-1.23375e-08
-1.08836e-09
-8.16209e-09
-2.92513e-09
-1.14711e-09
3.97045e-09
-3.98765e-09
1.07284e-08
-8.03456e-09
1.60065e-08
-1.2906e-08
1.97757e-08
-1.8308e-08
2.22476e-08
-2.40254e-08
2.37226e-08
-2.99089e-08
2.44941e-08
-3.58595e-08
2.48013e-08
-4.18131e-08
2.48153e-08
-4.77285e-08
2.46476e-08
-5.35783e-08
2.43652e-08
-5.93436e-08
2.40058e-08
-6.50098e-08
2.35893e-08
-7.05649e-08
2.31261e-08
-7.59986e-08
2.26213e-08
-8.1301e-08
2.20778e-08
-8.64631e-08
2.14973e-08
-9.14761e-08
2.08812e-08
-9.63316e-08
2.02306e-08
-1.01022e-07
1.95466e-08
-1.05538e-07
1.88304e-08
-1.09875e-07
1.80832e-08
-1.14023e-07
1.73064e-08
-1.17977e-07
1.65013e-08
-1.2173e-07
1.56691e-08
-1.25277e-07
1.48112e-08
-1.2861e-07
1.39291e-08
-1.31726e-07
1.30242e-08
-1.34618e-07
1.20978e-08
-1.37283e-07
1.11515e-08
-1.39715e-07
1.01866e-08
-1.41911e-07
9.20466e-09
-1.43868e-07
8.20715e-09
-1.45582e-07
7.19555e-09
-1.47049e-07
6.17135e-09
-1.48268e-07
5.13606e-09
-1.49237e-07
4.09119e-09
-1.49952e-07
3.03826e-09
-1.50414e-07
1.97881e-09
-1.50621e-07
9.14383e-10
-1.50572e-07
-1.5344e-10
-1.50267e-07
-1.22308e-09
-1.49706e-07
-2.29292e-09
-1.48889e-07
-3.36136e-09
-1.47817e-07
-4.42676e-09
-1.46491e-07
-5.48746e-09
-1.44913e-07
-6.54179e-09
-1.43085e-07
-7.58805e-09
-1.41009e-07
-8.62452e-09
-1.38689e-07
-9.64947e-09
-1.36126e-07
-1.06611e-08
-1.33325e-07
-1.16578e-08
-1.3029e-07
-1.26376e-08
-1.27025e-07
-1.35987e-08
-1.23536e-07
-1.45395e-08
-1.19827e-07
-1.5458e-08
-1.15904e-07
-1.63525e-08
-1.11773e-07
-1.72211e-08
-1.07442e-07
-1.80621e-08
-1.02917e-07
-1.88737e-08
-9.82047e-08
-1.96542e-08
-9.33141e-08
-2.04018e-08
-8.82531e-08
-2.11151e-08
-8.30304e-08
-2.17922e-08
-7.76551e-08
-2.24315e-08
-7.2137e-08
-2.30313e-08
-6.64863e-08
-2.35892e-08
-6.07144e-08
-2.41019e-08
-5.48341e-08
-2.45632e-08
-4.88609e-08
-2.49619e-08
-4.28153e-08
-2.52769e-08
-3.67261e-08
-2.54688e-08
-3.06367e-08
-2.54688e-08
-2.46136e-08
-2.5163e-08
-1.87593e-08
-2.43773e-08
-1.32271e-08
-2.28691e-08
-8.23757e-09
-2.03403e-08
-4.09177e-09
-1.64833e-08
-1.1809e-09
-1.1073e-08
-4.10605e-09
-1.19908e-09
5.16953e-09
-4.18083e-09
1.37102e-08
-8.42723e-09
2.02529e-08
-1.3528e-08
2.48765e-08
-1.91715e-08
2.78911e-08
-2.51333e-08
2.96843e-08
-3.12599e-08
3.06207e-08
-3.74506e-08
3.09921e-08
-4.36412e-08
3.10058e-08
-4.97901e-08
3.07966e-08
-5.587e-08
3.04452e-08
-6.18616e-08
2.99974e-08
-6.775e-08
2.94777e-08
-7.35229e-08
2.88989e-08
-7.91693e-08
2.82677e-08
-8.46791e-08
2.75876e-08
-9.00428e-08
2.6861e-08
-9.52512e-08
2.60896e-08
-1.00296e-07
2.52751e-08
-1.05168e-07
2.44188e-08
-1.0986e-07
2.35222e-08
-1.14364e-07
2.25871e-08
-1.18672e-07
2.1615e-08
-1.22778e-07
2.06075e-08
-1.26676e-07
1.95663e-08
-1.30358e-07
1.84932e-08
-1.33818e-07
1.73899e-08
-1.37052e-07
1.62582e-08
-1.40055e-07
1.50999e-08
-1.4282e-07
1.39168e-08
-1.45344e-07
1.27107e-08
-1.47623e-07
1.14835e-08
-1.49653e-07
1.02369e-08
-1.5143e-07
8.97284e-09
-1.52952e-07
7.69322e-09
-1.54215e-07
6.39989e-09
-1.55219e-07
5.09472e-09
-1.5596e-07
3.77962e-09
-1.56438e-07
2.45651e-09
-1.56651e-07
1.1273e-09
-1.56598e-07
-2.06034e-10
-1.5628e-07
-1.54154e-09
-1.55696e-07
-2.87722e-09
-1.54846e-07
-4.21107e-09
-1.53732e-07
-5.54105e-09
-1.52354e-07
-6.86512e-09
-1.50715e-07
-8.18118e-09
-1.48816e-07
-9.48713e-09
-1.46659e-07
-1.07808e-08
-1.44249e-07
-1.20601e-08
-1.41587e-07
-1.33229e-08
-1.38678e-07
-1.45668e-08
-1.35526e-07
-1.57898e-08
-1.32135e-07
-1.69895e-08
-1.28511e-07
-1.81637e-08
-1.24658e-07
-1.93102e-08
-1.20584e-07
-2.04268e-08
-1.16294e-07
-2.15111e-08
-1.11795e-07
-2.25609e-08
-1.07095e-07
-2.35741e-08
-1.022e-07
-2.45485e-08
-9.71204e-08
-2.54819e-08
-9.18632e-08
-2.63722e-08
-8.6438e-08
-2.72174e-08
-8.08542e-08
-2.80153e-08
-7.51219e-08
-2.87636e-08
-6.9252e-08
-2.94592e-08
-6.3256e-08
-3.00979e-08
-5.71472e-08
-3.06719e-08
-5.09416e-08
-3.11675e-08
-4.46598e-08
-3.15586e-08
-3.83309e-08
-3.17977e-08
-3.19983e-08
-3.18014e-08
-2.57292e-08
-3.14321e-08
-1.96276e-08
-3.04788e-08
-1.38513e-08
-2.86454e-08
-8.63034e-09
-2.55612e-08
-4.28391e-09
-2.08297e-08
-1.2315e-09
-1.41254e-08
-5.33754e-09
-1.22819e-09
6.39773e-09
-4.29782e-09
1.67798e-08
-8.67481e-09
2.46299e-08
-1.39305e-08
3.01322e-08
-1.97397e-08
3.37004e-08
-2.58702e-08
3.58148e-08
-3.21646e-08
3.69152e-08
-3.85208e-08
3.73482e-08
-4.48737e-08
3.73587e-08
-5.11821e-08
3.71049e-08
-5.74186e-08
3.66816e-08
-6.35637e-08
3.61426e-08
-6.96026e-08
3.55166e-08
-7.55228e-08
3.48191e-08
-8.13129e-08
3.40578e-08
-8.69627e-08
3.32374e-08
-9.24624e-08
3.23607e-08
-9.78027e-08
3.14299e-08
-1.02975e-07
3.04469e-08
-1.0797e-07
2.94137e-08
-1.12779e-07
2.8332e-08
-1.17396e-07
2.72038e-08
-1.21812e-07
2.60312e-08
-1.26021e-07
2.4816e-08
-1.30015e-07
2.35604e-08
-1.33788e-07
2.22664e-08
-1.37334e-07
2.09363e-08
-1.40648e-07
1.9572e-08
-1.43724e-07
1.81759e-08
-1.46557e-07
1.675e-08
-1.49143e-07
1.52966e-08
-1.51478e-07
1.38179e-08
-1.53557e-07
1.23161e-08
-1.55377e-07
1.07934e-08
-1.56936e-07
9.25208e-09
-1.58231e-07
7.69438e-09
-1.59259e-07
6.12257e-09
-1.60018e-07
4.53892e-09
-1.60507e-07
2.94574e-09
-1.60725e-07
1.34534e-09
-1.60671e-07
-2.59951e-10
-1.60345e-07
-1.86777e-09
-1.59747e-07
-3.47573e-09
-1.58876e-07
-5.08144e-09
-1.57735e-07
-6.68245e-09
-1.56324e-07
-8.27631e-09
-1.54644e-07
-9.86052e-09
-1.52699e-07
-1.14326e-08
-1.5049e-07
-1.29899e-08
-1.4802e-07
-1.45298e-08
-1.45293e-07
-1.60499e-08
-1.42313e-07
-1.75474e-08
-1.39083e-07
-1.90196e-08
-1.35608e-07
-2.0464e-08
-1.31894e-07
-2.18777e-08
-1.27946e-07
-2.32581e-08
-1.23771e-07
-2.46025e-08
-1.19373e-07
-2.59082e-08
-1.14762e-07
-2.71724e-08
-1.09944e-07
-2.83925e-08
-1.04926e-07
-2.9566e-08
-9.97179e-08
-3.06901e-08
-9.43278e-08
-3.17623e-08
-8.87651e-08
-3.27801e-08
-8.30395e-08
-3.37409e-08
-7.71613e-08
-3.46417e-08
-7.11416e-08
-3.54789e-08
-6.49923e-08
-3.62472e-08
-5.87268e-08
-3.69374e-08
-5.23612e-08
-3.75331e-08
-4.59162e-08
-3.80036e-08
-3.94209e-08
-3.8293e-08
-3.29188e-08
-3.83035e-08
-2.64777e-08
-3.78732e-08
-2.02035e-08
-3.67531e-08
-1.4258e-08
-3.45908e-08
-8.87962e-09
-3.09397e-08
-4.40088e-09
-2.53084e-08
-1.25988e-09
-1.72664e-08
-6.59741e-09
-1.2467e-09
7.64444e-09
-4.37616e-09
1.99093e-08
-8.84572e-09
2.90995e-08
-1.42145e-08
3.5501e-08
-2.01473e-08
3.96331e-08
-2.64051e-08
4.20727e-08
-3.28271e-08
4.33371e-08
-3.9309e-08
4.38302e-08
-4.57855e-08
4.38352e-08
-5.22148e-08
4.35342e-08
-5.85696e-08
4.30365e-08
-6.48307e-08
4.24036e-08
-7.0983e-08
4.16689e-08
-7.70138e-08
4.08499e-08
-8.29119e-08
3.99559e-08
-8.86668e-08
3.89923e-08
-9.42685e-08
3.79624e-08
-9.97075e-08
3.68689e-08
-1.04975e-07
3.57142e-08
-1.10061e-07
3.45004e-08
-1.14959e-07
3.32299e-08
-1.1966e-07
3.19049e-08
-1.24157e-07
3.05278e-08
-1.28442e-07
2.9101e-08
-1.32508e-07
2.76268e-08
-1.3635e-07
2.61079e-08
-1.3996e-07
2.45466e-08
-1.43334e-07
2.29455e-08
-1.46465e-07
2.13072e-08
-1.49349e-07
1.96342e-08
-1.51981e-07
1.7929e-08
-1.54358e-07
1.61944e-08
-1.56475e-07
1.44328e-08
-1.58328e-07
1.26469e-08
-1.59915e-07
1.08393e-08
-1.61233e-07
9.0126e-09
-1.6228e-07
7.16952e-09
-1.63054e-07
5.31268e-09
-1.63553e-07
3.44477e-09
-1.63776e-07
1.56848e-09
-1.63723e-07
-3.13468e-10
-1.63392e-07
-2.19832e-09
-1.62785e-07
-4.0833e-09
-1.619e-07
-5.96562e-09
-1.6074e-07
-7.84242e-09
-1.59306e-07
-9.71084e-09
-1.57598e-07
-1.1568e-08
-1.5562e-07
-1.34109e-08
-1.53373e-07
-1.52365e-08
-1.50861e-07
-1.7042e-08
-1.48087e-07
-1.88241e-08
-1.45054e-07
-2.05799e-08
-1.41768e-07
-2.23062e-08
-1.38232e-07
-2.39999e-08
-1.34452e-07
-2.56577e-08
-1.30433e-07
-2.72767e-08
-1.26183e-07
-2.88534e-08
-1.21706e-07
-3.03849e-08
-1.1701e-07
-3.18679e-08
-1.12104e-07
-3.32992e-08
-1.06994e-07
-3.46759e-08
-1.01689e-07
-3.59947e-08
-9.61986e-08
-3.72528e-08
-9.05318e-08
-3.8447e-08
-8.46985e-08
-3.95742e-08
-7.87093e-08
-4.06309e-08
-7.25753e-08
-4.1613e-08
-6.63086e-08
-4.25139e-08
-5.99227e-08
-4.33233e-08
-5.34338e-08
-4.4022e-08
-4.68627e-08
-4.45748e-08
-4.02384e-08
-4.49173e-08
-3.36049e-08
-4.4937e-08
-2.70308e-08
-4.44473e-08
-2.0624e-08
-4.31599e-08
-1.45504e-08
-4.06645e-08
-9.05509e-09
-3.64349e-08
-4.48104e-09
-2.98825e-08
-1.27855e-09
-2.04689e-08
-7.87597e-09
-1.26182e-09
8.90626e-09
-4.4391e-09
2.30865e-08
-8.98357e-09
3.3644e-08
-1.44455e-08
4.09629e-08
-2.04819e-08
4.56695e-08
-2.68481e-08
4.84388e-08
-3.33794e-08
4.98684e-08
-3.99699e-08
5.04207e-08
-4.65531e-08
5.04184e-08
-5.30871e-08
5.00682e-08
-5.95444e-08
4.94938e-08
-6.59055e-08
4.87648e-08
-7.21556e-08
4.79189e-08
-7.82817e-08
4.69761e-08
-8.42727e-08
4.59468e-08
-9.01178e-08
4.48373e-08
-9.58069e-08
4.36515e-08
-1.01331e-07
4.23925e-08
-1.06679e-07
4.10631e-08
-1.11845e-07
3.96657e-08
-1.16818e-07
3.82032e-08
-1.21591e-07
3.66781e-08
-1.26157e-07
3.50932e-08
-1.30507e-07
3.34513e-08
-1.34636e-07
3.17552e-08
-1.38535e-07
3.00077e-08
-1.422e-07
2.82117e-08
-1.45625e-07
2.63701e-08
-1.48804e-07
2.4486e-08
-1.51732e-07
2.25621e-08
-1.54404e-07
2.06015e-08
-1.56817e-07
1.86071e-08
-1.58966e-07
1.6582e-08
-1.60848e-07
1.45291e-08
-1.6246e-07
1.24514e-08
-1.638e-07
1.03519e-08
-1.64864e-07
8.23372e-09
-1.65651e-07
6.09982e-09
-1.6616e-07
3.95329e-09
-1.66388e-07
1.79721e-09
-1.66336e-07
-3.65319e-10
-1.66004e-07
-2.53116e-09
-1.6539e-07
-4.69714e-09
-1.64495e-07
-6.86006e-09
-1.63321e-07
-9.01668e-09
-1.61868e-07
-1.11637e-08
-1.60138e-07
-1.32978e-08
-1.58133e-07
-1.54157e-08
-1.55856e-07
-1.75139e-08
-1.53309e-07
-1.95889e-08
-1.50496e-07
-2.16373e-08
-1.4742e-07
-2.36555e-08
-1.44087e-07
-2.564e-08
-1.40499e-07
-2.75871e-08
-1.36664e-07
-2.94933e-08
-1.32586e-07
-3.13548e-08
-1.28271e-07
-3.31681e-08
-1.23727e-07
-3.49294e-08
-1.18959e-07
-3.66351e-08
-1.13977e-07
-3.82816e-08
-1.08788e-07
-3.98653e-08
-1.034e-07
-4.13826e-08
-9.78225e-08
-4.283e-08
-9.20654e-08
-4.42041e-08
-8.61384e-08
-4.55011e-08
-8.00523e-08
-4.67171e-08
-7.38183e-08
-4.7847e-08
-6.74485e-08
-4.88836e-08
-6.09568e-08
-4.9815e-08
-5.43593e-08
-5.06195e-08
-4.76768e-08
-5.12572e-08
-4.09388e-08
-5.16552e-08
-3.41897e-08
-5.16861e-08
-2.74992e-08
-5.11379e-08
-2.09774e-08
-4.96817e-08
-1.47942e-08
-4.68477e-08
-9.20055e-09
-4.20285e-08
-4.54755e-09
-3.45355e-08
-1.29451e-09
-2.37219e-08
-9.17049e-09
-1.2772e-09
1.01835e-08
-4.49954e-09
2.63089e-08
-9.1137e-09
3.82581e-08
-1.46626e-08
4.65118e-08
-2.07964e-08
5.18033e-08
-2.72654e-08
5.49078e-08
-3.39014e-08
5.65044e-08
-4.05964e-08
5.71158e-08
-4.72829e-08
5.71048e-08
-5.39183e-08
5.67036e-08
-6.04748e-08
5.60504e-08
-6.69331e-08
5.5223e-08
-7.32778e-08
5.42637e-08
-7.94964e-08
5.31946e-08
-8.55771e-08
5.20276e-08
-9.15094e-08
5.07696e-08
-9.72831e-08
4.94252e-08
-1.02888e-07
4.79979e-08
-1.08316e-07
4.64907e-08
-1.13557e-07
4.49068e-08
-1.18603e-07
4.32492e-08
-1.23446e-07
4.15209e-08
-1.28078e-07
3.9725e-08
-1.32491e-07
3.78646e-08
-1.36679e-07
3.59431e-08
-1.40635e-07
3.39637e-08
-1.44353e-07
3.19296e-08
-1.47827e-07
2.98441e-08
-1.51051e-07
2.77106e-08
-1.54021e-07
2.55323e-08
-1.56733e-07
2.33127e-08
-1.59181e-07
2.10551e-08
-1.61362e-07
1.87629e-08
-1.63272e-07
1.64394e-08
-1.64909e-07
1.4088e-08
-1.66269e-07
1.17122e-08
-1.6735e-07
9.31522e-09
-1.68151e-07
6.90063e-09
-1.6867e-07
4.47182e-09
-1.68905e-07
2.03226e-09
-1.68855e-07
-4.14563e-10
-1.68521e-07
-2.86513e-09
-1.67903e-07
-5.31587e-09
-1.67e-07
-7.7632e-09
-1.65813e-07
-1.02035e-08
-1.64343e-07
-1.2633e-08
-1.62593e-07
-1.5048e-08
-1.60564e-07
-1.74448e-08
-1.58259e-07
-1.98194e-08
-1.55679e-07
-2.21681e-08
-1.5283e-07
-2.44868e-08
-1.49714e-07
-2.67715e-08
-1.46336e-07
-2.90183e-08
-1.427e-07
-3.1223e-08
-1.38812e-07
-3.33815e-08
-1.34677e-07
-3.54898e-08
-1.30301e-07
-3.75436e-08
-1.25692e-07
-3.95388e-08
-1.20856e-07
-4.14712e-08
-1.158e-07
-4.33368e-08
-1.10534e-07
-4.51314e-08
-1.05066e-07
-4.68511e-08
-9.9404e-08
-4.84917e-08
-9.35589e-08
-5.00492e-08
-8.75405e-08
-5.15195e-08
-8.13596e-08
-5.2898e-08
-7.50276e-08
-5.4179e-08
-6.85567e-08
-5.53545e-08
-6.19609e-08
-5.64109e-08
-5.52565e-08
-5.73239e-08
-4.84646e-08
-5.80491e-08
-4.1615e-08
-5.85048e-08
-3.47528e-08
-5.85483e-08
-2.79492e-08
-5.79415e-08
-2.13164e-08
-5.63145e-08
-1.50282e-08
-5.31359e-08
-9.34113e-09
-4.77157e-08
-4.61308e-09
-3.92636e-08
-1.31122e-09
-2.70238e-08
-1.04817e-08
-1.2944e-09
1.14779e-08
-4.56403e-09
2.95785e-08
-9.2497e-09
4.29438e-08
-1.48872e-08
5.21494e-08
-2.11204e-08
5.80366e-08
-2.76947e-08
6.1482e-08
-3.44384e-08
6.32482e-08
-4.12416e-08
6.39189e-08
-4.80351e-08
6.38984e-08
-5.4776e-08
6.34444e-08
-6.14359e-08
6.27103e-08
-6.79953e-08
6.17824e-08
-7.44387e-08
6.07072e-08
-8.07534e-08
5.95092e-08
-8.69277e-08
5.82019e-08
-9.29507e-08
5.67927e-08
-9.88122e-08
5.52867e-08
-1.04502e-07
5.36881e-08
-1.10012e-07
5.20002e-08
-1.15332e-07
5.02266e-08
-1.20453e-07
4.83706e-08
-1.25368e-07
4.64357e-08
-1.30068e-07
4.44253e-08
-1.34547e-07
4.23432e-08
-1.38797e-07
4.01929e-08
-1.42811e-07
3.79779e-08
-1.46583e-07
3.57021e-08
-1.50108e-07
3.33691e-08
-1.53381e-07
3.09827e-08
-1.56395e-07
2.85465e-08
-1.59146e-07
2.60642e-08
-1.61631e-07
2.35398e-08
-1.63845e-07
2.09768e-08
-1.65784e-07
1.83791e-08
-1.67447e-07
1.57504e-08
-1.68829e-07
1.30944e-08
-1.69929e-07
1.04151e-08
-1.70744e-07
7.71607e-09
-1.71274e-07
5.00125e-09
-1.71516e-07
2.27445e-09
-1.7147e-07
-4.60455e-10
-1.71136e-07
-3.19957e-09
-1.70513e-07
-5.93894e-09
-1.69601e-07
-8.67458e-09
-1.68402e-07
-1.14024e-08
-1.66917e-07
-1.41184e-08
-1.65146e-07
-1.68184e-08
-1.63093e-07
-1.94982e-08
-1.60759e-07
-2.21535e-08
-1.58147e-07
-2.47799e-08
-1.55261e-07
-2.73731e-08
-1.52104e-07
-2.99286e-08
-1.4868e-07
-3.2442e-08
-1.44994e-07
-3.49086e-08
-1.41052e-07
-3.73239e-08
-1.36859e-07
-3.96832e-08
-1.3242e-07
-4.19819e-08
-1.27744e-07
-4.42153e-08
-1.22836e-07
-4.63788e-08
-1.17705e-07
-4.84677e-08
-1.12359e-07
-5.04775e-08
-1.06807e-07
-5.24035e-08
-1.01057e-07
-5.42412e-08
-9.51204e-08
-5.59861e-08
-8.90064e-08
-5.76335e-08
-8.27262e-08
-5.91782e-08
-7.62913e-08
-6.06139e-08
-6.97143e-08
-6.19315e-08
-6.30092e-08
-6.3116e-08
-5.61926e-08
-6.41406e-08
-4.92859e-08
-6.49558e-08
-4.23195e-08
-6.54713e-08
-3.53393e-08
-6.55285e-08
-2.8418e-08
-6.48629e-08
-2.16704e-08
-6.30621e-08
-1.52738e-08
-5.95324e-08
-9.49012e-09
-5.34994e-08
-4.684e-09
-4.40697e-08
-1.33017e-09
-3.03776e-08
-1.18119e-08
-1.31399e-09
1.27919e-08
-4.63559e-09
3.29001e-08
-9.39834e-09
4.77066e-08
-1.51306e-08
5.78816e-08
-2.14698e-08
6.43758e-08
-2.81564e-08
6.81685e-08
-3.50153e-08
7.01071e-08
-4.19342e-08
7.08378e-08
-4.88428e-08
7.08069e-08
-5.5697e-08
7.02986e-08
-6.24683e-08
6.94816e-08
-6.91366e-08
6.84507e-08
-7.56865e-08
6.7257e-08
-8.21048e-08
6.59275e-08
-8.83798e-08
6.44768e-08
-9.45005e-08
6.29134e-08
-1.00457e-07
6.12429e-08
-1.06238e-07
5.94696e-08
-1.11836e-07
5.75977e-08
-1.1724e-07
5.56308e-08
-1.22442e-07
5.35729e-08
-1.27434e-07
5.14278e-08
-1.32209e-07
4.91995e-08
-1.36757e-07
4.68918e-08
-1.41073e-07
4.45089e-08
-1.4515e-07
4.20547e-08
-1.48981e-07
3.95334e-08
-1.52561e-07
3.6949e-08
-1.55884e-07
3.43058e-08
-1.58945e-07
3.16078e-08
-1.6174e-07
2.88591e-08
-1.64264e-07
2.60639e-08
-1.66514e-07
2.32263e-08
-1.68485e-07
2.03504e-08
-1.70175e-07
1.74405e-08
-1.71581e-07
1.45006e-08
-1.72701e-07
1.15348e-08
-1.73533e-07
8.5475e-09
-1.74074e-07
5.5427e-09
-1.74324e-07
2.52466e-09
-1.74282e-07
-5.02357e-10
-1.73948e-07
-3.53409e-09
-1.73321e-07
-6.56619e-09
-1.72401e-07
-9.5943e-09
-1.71189e-07
-1.2614e-08
-1.69687e-07
-1.56207e-08
-1.67895e-07
-1.861e-08
-1.65817e-07
-2.15771e-08
-1.63453e-07
-2.45174e-08
-1.60806e-07
-2.74262e-08
-1.57881e-07
-3.02985e-08
-1.5468e-07
-3.31294e-08
-1.51208e-07
-3.5914e-08
-1.4747e-07
-3.86472e-08
-1.4347e-07
-4.13239e-08
-1.39214e-07
-4.3939e-08
-1.34708e-07
-4.64873e-08
-1.2996e-07
-4.89637e-08
-1.24976e-07
-5.1363e-08
-1.19764e-07
-5.36799e-08
-1.14332e-07
-5.59094e-08
-1.08689e-07
-5.80463e-08
-1.02844e-07
-6.00856e-08
-9.68084e-08
-6.20222e-08
-9.0591e-08
-6.38508e-08
-8.42035e-08
-6.55658e-08
-7.76574e-08
-6.71599e-08
-7.09656e-08
-6.86233e-08
-6.41422e-08
-6.99394e-08
-5.72042e-08
-7.10786e-08
-5.01734e-08
-7.19865e-08
-4.30809e-08
-7.25639e-08
-3.59736e-08
-7.26358e-08
-2.89257e-08
-7.19107e-08
-2.20548e-08
-6.9933e-08
-1.55419e-08
-6.60454e-08
-9.65413e-09
-5.93871e-08
-4.76319e-09
-4.89606e-08
-1.35187e-09
-3.37889e-08
-1.31637e-08
-1.33617e-09
1.4128e-08
-4.71552e-09
3.62795e-08
-9.56288e-09
5.25539e-08
-1.53984e-08
6.37171e-08
-2.18527e-08
7.08301e-08
-2.86611e-08
7.49769e-08
-3.56451e-08
7.70911e-08
-4.26898e-08
7.78825e-08
-4.97235e-08
7.78406e-08
-5.67012e-08
7.72764e-08
-6.35938e-08
7.63743e-08
-7.0381e-08
7.52378e-08
-7.70468e-08
7.39228e-08
-8.35781e-08
7.24588e-08
-8.99629e-08
7.08617e-08
-9.61901e-08
6.91407e-08
-1.02249e-07
6.7302e-08
-1.0813e-07
6.53506e-08
-1.13823e-07
6.32909e-08
-1.1932e-07
6.11271e-08
-1.2461e-07
5.88634e-08
-1.29686e-07
5.65042e-08
-1.34541e-07
5.40537e-08
-1.39165e-07
5.15165e-08
-1.43553e-07
4.88968e-08
-1.47698e-07
4.61993e-08
-1.51593e-07
4.34283e-08
-1.55232e-07
4.05885e-08
-1.58611e-07
3.76842e-08
-1.61723e-07
3.47202e-08
-1.64565e-07
3.17008e-08
-1.67132e-07
2.86307e-08
-1.6942e-07
2.55143e-08
-1.71425e-07
2.23562e-08
-1.73146e-07
1.91608e-08
-1.74578e-07
1.59327e-08
-1.75719e-07
1.26764e-08
-1.76568e-07
9.39642e-09
-1.77123e-07
6.09737e-09
-1.77382e-07
2.7838e-09
-1.77345e-07
-5.3968e-10
-1.7701e-07
-3.86841e-09
-1.76379e-07
-7.19769e-09
-1.75451e-07
-1.05228e-08
-1.74226e-07
-1.38388e-08
-1.72706e-07
-1.71409e-08
-1.70891e-07
-2.04241e-08
-1.68785e-07
-2.36834e-08
-1.66389e-07
-2.69136e-08
-1.63706e-07
-3.01095e-08
-1.60738e-07
-3.32658e-08
-1.57491e-07
-3.63771e-08
-1.53967e-07
-3.9438e-08
-1.50171e-07
-4.24429e-08
-1.46108e-07
-4.53863e-08
-1.41785e-07
-4.82624e-08
-1.37207e-07
-5.10656e-08
-1.3238e-07
-5.37901e-08
-1.27313e-07
-5.64303e-08
-1.22013e-07
-5.89804e-08
-1.16487e-07
-6.14347e-08
-1.10746e-07
-6.37876e-08
-1.04798e-07
-6.60334e-08
-9.86541e-08
-6.81664e-08
-9.2324e-08
-7.01809e-08
-8.58192e-08
-7.20706e-08
-7.91516e-08
-7.38275e-08
-7.23343e-08
-7.54406e-08
-6.53817e-08
-7.6892e-08
-5.8311e-08
-7.81492e-08
-5.11448e-08
-7.91528e-08
-4.39146e-08
-7.9794e-08
-3.66687e-08
-7.98817e-08
-2.94831e-08
-7.90964e-08
-2.24778e-08
-7.69383e-08
-1.5838e-08
-7.26852e-08
-9.83631e-09
-6.53888e-08
-4.85191e-09
-5.3945e-08
-1.3765e-09
-3.72643e-08
-1.45403e-08
-1.36102e-09
1.5489e-08
-4.80441e-09
3.97228e-08
-9.74484e-09
5.74943e-08
-1.56934e-08
6.96657e-08
-2.22734e-08
7.74101e-08
-2.92147e-08
8.19182e-08
-3.63349e-08
8.42113e-08
-4.35168e-08
8.50643e-08
-5.06869e-08
8.50107e-08
-5.77994e-08
8.43889e-08
-6.48245e-08
8.33994e-08
-7.17413e-08
8.21546e-08
-7.85338e-08
8.07153e-08
-8.51885e-08
7.91135e-08
-9.16931e-08
7.73664e-08
-9.80366e-08
7.54841e-08
-1.04208e-07
7.34736e-08
-1.10198e-07
7.13401e-08
-1.15995e-07
6.90885e-08
-1.21592e-07
6.67235e-08
-1.26978e-07
6.42498e-08
-1.32146e-07
6.16721e-08
-1.37087e-07
5.89951e-08
-1.41795e-07
5.62238e-08
-1.46261e-07
5.3363e-08
-1.50479e-07
5.04175e-08
-1.54443e-07
4.73924e-08
-1.58147e-07
4.42925e-08
-1.61586e-07
4.11227e-08
-1.64753e-07
3.78881e-08
-1.67646e-07
3.45936e-08
-1.70259e-07
3.1244e-08
-1.72589e-07
2.78442e-08
-1.74632e-07
2.43992e-08
-1.76386e-07
2.09139e-08
-1.77846e-07
1.7393e-08
-1.79011e-07
1.38416e-08
-1.79879e-07
1.02644e-08
-1.80448e-07
6.66653e-09
-1.80717e-07
3.05278e-09
-1.80685e-07
-5.71833e-10
-1.80351e-07
-4.2023e-09
-1.79715e-07
-7.83353e-09
-1.78778e-07
-1.14604e-08
-1.77539e-07
-1.50777e-08
-1.76e-07
-1.86802e-08
-1.74161e-07