/*--------------------------------*- C++ -*----------------------------------*\
  =========                 |
  \\      /  F ield         | OpenFOAM: The Open Source CFD Toolbox
   \\    /   O peration     | Website:  https://openfoam.org
    \\  /    A nd           | Version:  7
     \\/     M anipulation  |
\*---------------------------------------------------------------------------*/
FoamFile
{
    version     2.0;
    format      ascii;
    class       surfaceScalarField;
    location    "0.775";
    object      phi;
}
// * * * * * * * * * * * * * * * * * * * * * * * * * * * * * * * * * * * * * //

dimensions      [0 3 -1 0 0 0 0];

internalField   nonuniform List<scalar> 
12640
(
2.02533e-10
-2.00795e-10
5.66699e-10
-3.6422e-10
8.71349e-10
-3.04664e-10
9.91924e-10
-1.20568e-10
8.70316e-10
1.21615e-10
4.84614e-10
3.85693e-10
-1.66663e-10
6.51259e-10
-1.07342e-09
9.06738e-10
-2.21909e-09
1.14566e-09
-3.58358e-09
1.36451e-09
-5.1451e-09
1.56153e-09
-6.88119e-09
1.7361e-09
-8.76942e-09
1.88824e-09
-1.07878e-08
2.01841e-09
-1.29151e-08
2.12731e-09
-1.5131e-08
2.21582e-09
-1.74158e-08
2.28486e-09
-1.97512e-08
2.33537e-09
-2.21195e-08
2.3683e-09
-2.4504e-08
2.38452e-09
-2.6889e-08
2.3849e-09
-2.92592e-08
2.3702e-09
-3.16003e-08
2.34115e-09
-3.38987e-08
2.29839e-09
-3.61412e-08
2.24251e-09
-3.83152e-08
2.17401e-09
-4.04086e-08
2.0934e-09
-4.24097e-08
2.00112e-09
-4.43073e-08
1.89761e-09
-4.60907e-08
1.78331e-09
-4.77493e-08
1.65863e-09
-4.92733e-08
1.524e-09
-5.06532e-08
1.37987e-09
-5.18799e-08
1.22673e-09
-5.2945e-08
1.06515e-09
-5.38408e-08
8.95726e-10
-5.45599e-08
7.1916e-10
-5.50961e-08
5.36202e-10
-5.54438e-08
3.47687e-10
-5.55983e-08
1.54542e-10
-5.55561e-08
-4.22082e-11
-5.53147e-08
-2.41445e-10
-5.48727e-08
-4.4196e-10
-5.42303e-08
-6.42459e-10
-5.33887e-08
-8.41567e-10
-5.23509e-08
-1.03784e-09
-5.11211e-08
-1.22975e-09
-4.97054e-08
-1.41575e-09
-4.81111e-08
-1.59423e-09
-4.63476e-08
-1.76355e-09
-4.44255e-08
-1.9221e-09
-4.23573e-08
-2.06823e-09
-4.01569e-08
-2.20036e-09
-3.784e-08
-2.31696e-09
-3.54234e-08
-2.41657e-09
-3.29255e-08
-2.49785e-09
-3.0366e-08
-2.55953e-09
-2.77655e-08
-2.60052e-09
-2.51457e-08
-2.61985e-09
-2.25289e-08
-2.61675e-09
-1.99383e-08
-2.59064e-09
-1.73971e-08
-2.54114e-09
-1.49291e-08
-2.46807e-09
-1.25576e-08
-2.37152e-09
-1.03058e-08
-2.25178e-09
-8.19634e-09
-2.10944e-09
-6.25098e-09
-1.94535e-09
-4.4903e-09
-1.76068e-09
-2.93334e-09
-1.55696e-09
-1.59722e-09
-1.33612e-09
-4.96542e-10
-1.10069e-09
3.57381e-10
-8.53938e-10
9.57606e-10
-6.00237e-10
1.30327e-09
-3.45673e-10
1.40244e-09
-9.91653e-11
1.2766e-09
1.25837e-10
9.6819e-10
3.08422e-10
5.53532e-10
4.14678e-10
1.65758e-10
3.87794e-10
1.65754e-10
3.66194e-10
-5.67036e-10
8.52761e-10
-8.50791e-10
1.10482e-09
-5.56695e-10
9.01284e-10
8.29694e-11
1.12441e-10
9.10443e-10
-1.32469e-09
1.8228e-09
-3.42754e-09
2.75411e-09
-6.18356e-09
3.66278e-09
-9.56094e-09
4.52306e-09
-1.35158e-08
5.31936e-09
-1.7997e-08
6.04272e-09
-2.29494e-08
6.68855e-09
-2.83164e-08
7.25514e-09
-3.40407e-08
7.7427e-09
-4.00661e-08
8.15268e-09
-4.63376e-08
8.48733e-09
-5.28021e-08
8.74938e-09
-5.94085e-08
8.94177e-09
-6.61078e-08
9.06757e-09
-7.28531e-08
9.12978e-09
-7.95995e-08
9.13131e-09
-8.63042e-08
9.07491e-09
-9.29261e-08
8.96313e-09
-9.94261e-08
8.79837e-09
-1.05766e-07
8.58281e-09
-1.11911e-07
8.3185e-09
-1.17825e-07
8.00736e-09
-1.23475e-07
7.65119e-09
-1.28829e-07
7.25173e-09
-1.33857e-07
6.81068e-09
-1.38528e-07
6.32977e-09
-1.42814e-07
5.81078e-09
-1.4669e-07
5.25562e-09
-1.5013e-07
4.66634e-09
-1.5311e-07
4.04517e-09
-1.55609e-07
3.39457e-09
-1.57607e-07
2.71726e-09
-1.59087e-07
2.01623e-09
-1.60034e-07
1.29478e-09
-1.60436e-07
5.56528e-10
-1.60283e-07
-1.94566e-10
-1.59571e-07
-9.54225e-10
-1.58295e-07
-1.71784e-09
-1.56457e-07
-2.48051e-09
-1.54061e-07
-3.23702e-09
-1.51117e-07
-3.98191e-09
-1.47637e-07
-4.70951e-09
-1.43639e-07
-5.41394e-09
-1.39144e-07
-6.08922e-09
-1.34178e-07
-6.72927e-09
-1.28773e-07
-7.32805e-09
-1.22961e-07
-7.87955e-09
-1.16784e-07
-8.37792e-09
-1.10283e-07
-8.81752e-09
-1.03507e-07
-9.19299e-09
-9.65051e-08
-9.49936e-09
-8.93325e-08
-9.73209e-09
-8.20459e-08
-9.88716e-09
-7.47046e-08
-9.96116e-09
-6.737e-08
-9.95133e-09
-6.0105e-08
-9.85564e-09
-5.29733e-08
-9.67284e-09
-4.60388e-08
-9.40255e-09
-3.9365e-08
-9.04526e-09
-3.30144e-08
-8.60246e-09
-2.70472e-08
-8.07665e-09
-2.1521e-08
-7.47149e-09
-1.64898e-08
-6.79192e-09
-1.20024e-08
-6.04434e-09
-8.10157e-09
-5.23697e-09
-4.82203e-09
-4.38023e-09
-2.18837e-09
-3.48758e-09
-2.12006e-10
-2.5766e-09
1.11316e-09
-1.67084e-09
1.81661e-09
-8.02612e-10
1.95991e-09
-1.74459e-11
1.64826e-09
6.20089e-10
1.04542e-09
1.0175e-09
3.86955e-10
1.04618e-09
5.52728e-10
3.09501e-10
-8.76554e-10
5.66157e-10
-1.10743e-09
3.70581e-10
-3.61115e-10
-5.33008e-10
9.86561e-10
-2.30426e-09
2.6817e-09
-5.02772e-09
4.54626e-09
-8.73172e-09
6.45811e-09
-1.34044e-08
8.33548e-09
-1.90059e-08
1.01245e-08
-2.54772e-08
1.17907e-08
-3.27471e-08
1.33125e-08
-4.07363e-08
1.46778e-08
-4.93618e-08
1.58806e-08
-5.85385e-08
1.69194e-08
-6.81814e-08
1.77956e-08
-7.82066e-08
1.85125e-08
-8.85322e-08
1.9075e-08
-9.90787e-08
1.94883e-08
-1.09769e-07
1.97582e-08
-1.2053e-07
1.98907e-08
-1.31291e-07
1.98916e-08
-1.41982e-07
1.97663e-08
-1.52539e-07
1.95202e-08
-1.62899e-07
1.91584e-08
-1.73002e-07
1.86855e-08
-1.82789e-07
1.81059e-08
-1.92206e-07
1.74238e-08
-2.01198e-07
1.66432e-08
-2.09714e-07
1.5768e-08
-2.17705e-07
1.48021e-08
-2.25125e-07
1.37494e-08
-2.31928e-07
1.2614e-08
-2.38073e-07
1.14003e-08
-2.43519e-07
1.01128e-08
-2.48231e-07
8.75659e-09
-2.52173e-07
7.33728e-09
-2.55317e-07
5.86087e-09
-2.57635e-07
4.33404e-09
-2.59104e-07
2.76408e-09
-2.59707e-07
1.15894e-09
-2.59428e-07
-4.72737e-10
-2.58261e-07
-2.12162e-09
-2.56201e-07
-3.77773e-09
-2.53251e-07
-5.43044e-09
-2.4942e-07
-7.06852e-09
-2.44721e-07
-8.68024e-09
-2.39177e-07
-1.02534e-08
-2.32816e-07
-1.17755e-08
-2.25671e-07
-1.32337e-08
-2.17786e-07
-1.46151e-08
-2.09207e-07
-1.59068e-08
-1.9999e-07
-1.70962e-08
-1.90197e-07
-1.81707e-08
-1.79896e-07
-1.91186e-08
-1.69161e-07
-1.99284e-08
-1.5807e-07
-2.05898e-08
-1.46709e-07
-2.10931e-08
-1.35167e-07
-2.14301e-08
-1.23534e-07
-2.15936e-08
-1.11907e-07
-2.15779e-08
-1.00384e-07
-2.13791e-08
-8.90622e-08
-2.09946e-08
-7.80407e-08
-2.04241e-08
-6.74171e-08
-1.96689e-08
-5.72869e-08
-1.87327e-08
-4.77421e-08
-1.76214e-08
-3.88702e-08
-1.63434e-08
-3.07519e-08
-1.49102e-08
-2.346e-08
-1.33363e-08
-1.70568e-08
-1.16402e-08
-1.15916e-08
-9.8454e-09
-7.09759e-09
-7.98161e-09
-3.58736e-09
-6.08683e-09
-1.0477e-09
-4.21051e-09
5.67593e-10
-2.41792e-09
1.34657e-09
-7.96425e-10
1.43046e-09
5.36204e-10
1.02562e-09
1.42234e-09
4.16024e-10
1.65578e-09
9.68771e-10
1.29265e-10
-1.0058e-09
-6.64506e-11
-9.11712e-10
-9.6933e-10
5.41768e-10
-2.83279e-09
2.85005e-09
-5.81857e-09
5.66749e-09
-1.00147e-08
8.74239e-09
-1.54512e-08
1.18945e-08
-2.21138e-08
1.49981e-08
-2.99557e-08
1.79664e-08
-3.89066e-08
2.07416e-08
-4.88798e-08
2.32857e-08
-5.97779e-08
2.5576e-08
-7.14971e-08
2.75997e-08
-8.39297e-08
2.9352e-08
-9.69673e-08
3.08331e-08
-1.10502e-07
3.20469e-08
-1.24426e-07
3.29997e-08
-1.38637e-07
3.36994e-08
-1.53034e-07
3.41546e-08
-1.67518e-07
3.43747e-08
-1.81995e-07
3.43686e-08
-1.96374e-07
3.41456e-08
-2.10568e-07
3.37142e-08
-2.24493e-07
3.30828e-08
-2.38066e-07
3.22593e-08
-2.51212e-07
3.12512e-08
-2.63854e-07
3.00658e-08
-2.7592e-07
2.871e-08
-2.87343e-07
2.71906e-08
-2.98056e-07
2.55146e-08
-3.07995e-07
2.3689e-08
-3.17102e-07
2.1721e-08
-3.2532e-07
1.96185e-08
-3.32597e-07
1.73896e-08
-3.38884e-07
1.50434e-08
-3.44136e-07
1.25896e-08
-3.48314e-07
1.00389e-08
-3.51383e-07
7.40292e-09
-3.53314e-07
4.69443e-09
-3.54082e-07
1.92723e-09
-3.53671e-07
-8.83732e-10
-3.5207e-07
-3.72237e-09
-3.49276e-07
-6.57152e-09
-3.45294e-07
-9.41295e-09
-3.40135e-07
-1.22275e-08
-3.3382e-07
-1.49951e-08
-3.26378e-07
-1.76951e-08
-3.17848e-07
-2.03062e-08
-3.08275e-07
-2.28066e-08
-2.97715e-07
-2.51745e-08
-2.86234e-07
-2.73882e-08
-2.73904e-07
-2.94263e-08
-2.60807e-07
-3.12677e-08
-2.47033e-07
-3.28926e-08
-2.32679e-07
-3.42818e-08
-2.17851e-07
-3.54179e-08
-2.02659e-07
-3.6285e-08
-1.8722e-07
-3.68691e-08
-1.71656e-07
-3.71585e-08
-1.5609e-07
-3.71439e-08
-1.4065e-07
-3.68187e-08
-1.25465e-07
-3.61794e-08
-1.10664e-07
-3.52255e-08
-9.63726e-08
-3.39601e-08
-8.27154e-08
-3.23899e-08
-6.98111e-08
-3.05256e-08
-5.7772e-08
-2.83825e-08
-4.67014e-08
-2.59808e-08
-3.66913e-08
-2.33463e-08
-2.78201e-08
-2.05114e-08
-2.01486e-08
-1.75169e-08
-1.37169e-08
-1.44133e-08
-8.53916e-09
-1.12646e-08
-4.59829e-09
-8.15143e-09
-1.83891e-09
-5.17734e-09
-1.59352e-10
-2.47599e-09
5.97849e-10
-2.20988e-10
6.56156e-10
1.36404e-09
3.17874e-10
1.99409e-09
1.28665e-09
-1.10949e-10
-8.9484e-10
-8.95994e-10
-1.26678e-10
-2.67891e-09
2.32468e-09
-5.68285e-09
5.85401e-09
-1.00517e-08
1.00363e-08
-1.58627e-08
1.45534e-08
-2.31381e-08
1.91699e-08
-3.18564e-08
2.37163e-08
-4.19621e-08
2.80722e-08
-5.33743e-08
3.21537e-08
-6.59933e-08
3.59048e-08
-7.97067e-08
3.92893e-08
-9.43934e-08
4.22865e-08
-1.09928e-07
4.48862e-08
-1.26181e-07
4.70865e-08
-1.43025e-07
4.88909e-08
-1.60332e-07
5.03069e-08
-1.77977e-07
5.13447e-08
-1.95839e-07
5.20158e-08
-2.13797e-07
5.23328e-08
-2.31737e-07
5.23086e-08
-2.49547e-07
5.1956e-08
-2.67121e-07
5.12876e-08
-2.84353e-07
5.03156e-08
-3.01146e-07
4.90517e-08
-3.17402e-07
4.75071e-08
-3.33029e-07
4.56928e-08
-3.47938e-07
4.36193e-08
-3.62045e-07
4.12974e-08
-3.75268e-07
3.87376e-08
-3.8753e-07
3.59509e-08
-3.98758e-07
3.29487e-08
-4.08882e-07
2.97431e-08
-4.17839e-07
2.63468e-08
-4.2557e-07
2.27738e-08
-4.3202e-07
1.90394e-08
-4.3714e-07
1.51599e-08
-4.40891e-07
1.11532e-08
-4.43235e-07
7.03883e-09
-4.44146e-07
2.83792e-09
-4.43603e-07
-1.42682e-09
-4.41594e-07
-5.73102e-09
-4.38117e-07
-1.00487e-08
-4.33177e-07
-1.43524e-08
-4.26792e-07
-1.86132e-08
-4.18986e-07
-2.28011e-08
-4.09796e-07
-2.68849e-08
-3.99269e-07
-3.08328e-08
-3.87464e-07
-3.46124e-08
-3.74447e-07
-3.81912e-08
-3.60299e-07
-4.15366e-08
-3.45108e-07
-4.46168e-08
-3.28975e-07
-4.74007e-08
-3.12009e-07
-4.98586e-08
-2.94329e-07
-5.19623e-08
-2.7606e-07
-5.36859e-08
-2.57339e-07
-5.5006e-08
-2.38306e-07
-5.59021e-08
-2.19108e-07
-5.63569e-08
-1.99895e-07
-5.6357e-08
-1.8082e-07
-5.58931e-08
-1.6204e-07
-5.49603e-08
-1.43707e-07
-5.35585e-08
-1.25974e-07
-5.1693e-08
-1.08989e-07
-4.93744e-08
-9.28948e-08
-4.66199e-08
-7.78243e-08
-4.34531e-08
-6.39e-08
-3.9905e-08
-5.12309e-08
-3.60154e-08
-3.99089e-08
-3.18335e-08
-3.00053e-08
-2.74204e-08
-2.15672e-08
-2.28514e-08
-1.46123e-08
-1.82194e-08
-9.12393e-09
-1.36398e-08
-5.04465e-09
-9.25661e-09
-2.26974e-09
-5.25088e-09
-6.39613e-10
-1.85112e-09
6.83994e-11
6.56025e-10
1.50364e-10
1.91216e-09
1.43702e-09
-3.7771e-10
-5.17134e-10
-1.82869e-09
1.32429e-09
-4.5985e-09
5.09449e-09
-8.86183e-09
1.01173e-08
-1.47302e-08
1.59047e-08
-2.22586e-08
2.20818e-08
-3.14534e-08
2.83647e-08
-4.22802e-08
3.45432e-08
-5.46721e-08
4.0464e-08
-6.85363e-08
4.60179e-08
-8.37607e-08
5.11292e-08
-1.00219e-07
5.57479e-08
-1.17776e-07
5.98435e-08
-1.3629e-07
6.33998e-08
-1.55615e-07
6.64117e-08
-1.75606e-07
6.88817e-08
-1.96117e-07
7.08178e-08
-2.17004e-07
7.22322e-08
-2.38128e-07
7.31391e-08
-2.59349e-07
7.35546e-08
-2.80536e-07
7.34954e-08
-3.01558e-07
7.29782e-08
-3.22291e-07
7.202e-08
-3.42612e-07
7.0637e-08
-3.62406e-07
6.88453e-08
-3.81559e-07
6.66604e-08
-3.99964e-07
6.40975e-08
-4.17516e-07
6.11716e-08
-4.34116e-07
5.78976e-08
-4.49669e-07
5.42907e-08
-4.64085e-07
5.03666e-08
-4.77278e-07
4.61415e-08
-4.89167e-07
4.16325e-08
-4.99679e-07
3.68583e-08
-5.08743e-07
3.18385e-08
-5.16299e-07
2.65948e-08
-5.22289e-07
2.11505e-08
-5.26667e-07
1.55309e-08
-5.29392e-07
9.76352e-09
-5.30432e-07
3.87796e-09
-5.29765e-07
-2.09389e-09
-5.27378e-07
-8.11796e-09
-5.23268e-07
-1.4158e-08
-5.17445e-07
-2.01759e-08
-5.09927e-07
-2.61314e-08
-5.00745e-07
-3.1983e-08
-4.89942e-07
-3.76874e-08
-4.77574e-07
-4.32008e-08
-4.63708e-07
-4.84784e-08
-4.48424e-07
-5.34753e-08
-4.31814e-07
-5.81468e-08
-4.13982e-07
-6.24491e-08
-3.95043e-07
-6.63394e-08
-3.75124e-07
-6.9777e-08
-3.54363e-07
-7.27234e-08
-3.32906e-07
-7.5143e-08
-3.10908e-07
-7.70038e-08
-2.88533e-07
-7.8278e-08
-2.65947e-07
-7.89421e-08
-2.43326e-07
-7.89781e-08
-2.20846e-07
-7.83736e-08
-1.98684e-07
-7.71224e-08
-1.77017e-07
-7.52251e-08
-1.56021e-07
-7.26895e-08
-1.35864e-07
-6.95314e-08
-1.16708e-07
-6.57751e-08
-9.87073e-08
-6.14541e-08
-8.20001e-08
-5.66123e-08
-6.67105e-08
-5.1305e-08
-5.29434e-08
-4.56007e-08
-4.07807e-08
-3.95832e-08
-3.02775e-08
-3.33545e-08
-2.1458e-08
-2.7039e-08
-1.431e-08
-2.07877e-08
-8.78071e-09
-1.47859e-08
-4.77067e-09
-9.26091e-09
-2.12887e-09
-4.49295e-09
-6.46901e-10
-8.25955e-10
-5.29352e-11
1.31821e-09
1.38409e-09
-6.53092e-10
1.35941e-10
-2.80698e-09
3.47819e-09
-6.62301e-09
8.91052e-09
-1.22174e-08
1.57118e-08
-1.96597e-08
2.3347e-08
-2.89741e-08
3.13962e-08
-4.01441e-08
3.95347e-08
-5.31175e-08
4.75166e-08
-6.7812e-08
5.51586e-08
-8.41215e-08
6.23274e-08
-1.01921e-07
6.89284e-08
-1.2107e-07
7.48975e-08
-1.41421e-07
8.0194e-08
-1.62816e-07
8.47953e-08
-1.85097e-07
8.86923e-08
-2.08101e-07
9.1886e-08
-2.31668e-07
9.43847e-08
-2.55638e-07
9.6202e-08
-2.79854e-07
9.7355e-08
-3.04162e-07
9.78628e-08
-3.28413e-07
9.7746e-08
-3.5246e-07
9.70257e-08
-3.76163e-07
9.57231e-08
-3.99385e-07
9.3859e-08
-4.21994e-07
9.14542e-08
-4.43863e-07
8.85288e-08
-4.64868e-07
8.51029e-08
-4.84893e-07
8.11963e-08
-5.03824e-07
7.68288e-08
-5.21554e-07
7.2021e-08
-5.37981e-07
6.67936e-08
-5.53008e-07
6.11686e-08
-5.66545e-07
5.51693e-08
-5.78507e-07
4.88204e-08
-5.88817e-07
4.21486e-08
-5.97405e-07
3.51829e-08
-6.04209e-07
2.79544e-08
-6.09175e-07
2.04969e-08
-6.12259e-07
1.2847e-08
-6.13425e-07
5.04403e-09
-6.12649e-07
-2.86981e-09
-6.09917e-07
-1.08495e-08
-6.05228e-07
-1.88473e-08
-5.98591e-07
-2.68129e-08
-5.90029e-07
-3.46937e-08
-5.79577e-07
-4.24348e-08
-5.67284e-07
-4.998e-08
-5.53213e-07
-5.72716e-08
-5.37441e-07
-6.42512e-08
-5.20056e-07
-7.08602e-08
-5.01162e-07
-7.70403e-08
-4.80877e-07
-8.27344e-08
-4.5933e-07
-8.78867e-08
-4.36662e-07
-9.24443e-08
-4.13029e-07
-9.63572e-08
-3.88592e-07
-9.95792e-08
-3.63527e-07
-1.02069e-07
-3.38015e-07
-1.0379e-07
-3.12245e-07
-1.04713e-07
-2.8641e-07
-1.04813e-07
-2.60706e-07
-1.04077e-07
-2.35333e-07
-1.02495e-07
-2.10488e-07
-1.0007e-07
-1.86366e-07
-9.68123e-08
-1.63154e-07
-9.27431e-08
-1.41034e-07
-8.78952e-08
-1.20175e-07
-8.23129e-08
-1.00733e-07
-7.60543e-08
-8.2846e-08
-6.91919e-08
-6.66317e-08
-6.18149e-08
-5.21835e-08
-5.40314e-08
-3.95666e-08
-4.59715e-08
-2.8814e-08
-3.77915e-08
-1.99228e-08
-2.96789e-08
-1.28499e-08
-2.18588e-08
-7.50816e-09
-1.46027e-08
-3.76307e-09
-8.23806e-09
-1.43004e-09
-3.15899e-09
-2.72449e-10
1.60625e-10
1.11164e-09
-9.27549e-10
1.06348e-09
-3.79651e-09
6.34718e-09
-8.68544e-09
1.37995e-08
-1.5648e-08
2.26744e-08
-2.47059e-08
3.24048e-08
-3.58468e-08
4.25372e-08
-4.9026e-08
5.27139e-08
-6.41687e-08
6.26593e-08
-8.11744e-08
7.21643e-08
-9.99209e-08
8.10739e-08
-1.20269e-07
8.92761e-08
-1.42065e-07
9.66935e-08
-1.65146e-07
1.03276e-07
-1.89344e-07
1.08993e-07
-2.14484e-07
1.13833e-07
-2.40392e-07
1.17794e-07
-2.66893e-07
1.20885e-07
-2.93812e-07
1.23121e-07
-3.20978e-07
1.24521e-07
-3.48224e-07
1.25108e-07
-3.75384e-07
1.24906e-07
-4.02299e-07
1.23941e-07
-4.28813e-07
1.22238e-07
-4.54777e-07
1.19822e-07
-4.80043e-07
1.16721e-07
-5.04472e-07
1.12958e-07
-5.27929e-07
1.08559e-07
-5.50282e-07
1.03549e-07
-5.71407e-07
9.79545e-08
-5.91187e-07
9.18002e-08
-6.09506e-07
8.51134e-08
-6.2626e-07
7.79225e-08
-6.41348e-07
7.02573e-08
-6.54678e-07
6.21499e-08
-6.66164e-07
5.36344e-08
-6.75729e-07
4.47479e-08
-6.83305e-07
3.55306e-08
-6.88833e-07
2.60255e-08
-6.92266e-07
1.62792e-08
-6.93564e-07
6.34197e-09
-6.92701e-07
-3.73274e-09
-6.89662e-07
-1.38878e-08
-6.84447e-07
-2.40629e-08
-6.77065e-07
-3.41943e-08
-6.67543e-07
-4.42156e-08
-6.5592e-07
-5.4058e-08
-6.4225e-07
-6.36504e-08
-6.26601e-07
-7.29204e-08
-6.09058e-07
-8.17945e-08
-5.89719e-07
-9.01993e-08
-5.68698e-07
-9.80616e-08
-5.46122e-07
-1.0531e-07
-5.22135e-07
-1.11874e-07
-4.96891e-07
-1.17688e-07
-4.70559e-07
-1.22689e-07
-4.43319e-07
-1.2682e-07
-4.15359e-07
-1.30028e-07
-3.8688e-07
-1.32269e-07
-3.58087e-07
-1.33506e-07
-3.29192e-07
-1.33708e-07
-3.00411e-07
-1.32858e-07
-2.7196e-07
-1.30946e-07
-2.44055e-07
-1.27975e-07
-2.1691e-07
-1.23958e-07
-1.9073e-07
-1.18923e-07
-1.65713e-07
-1.12912e-07
-1.42046e-07
-1.0598e-07
-1.199e-07
-9.82009e-08
-9.94264e-08
-8.96653e-08
-8.07574e-08
-8.0484e-08
-6.39987e-08
-7.07901e-08
-4.92278e-08
-6.07424e-08
-3.64898e-08
-5.05295e-08
-2.57944e-08
-4.03743e-08
-1.71129e-08
-3.05403e-08
-1.03757e-08
-2.13399e-08
-5.47065e-09
-1.31431e-08
-2.24299e-09
-6.38664e-09
-4.96812e-10
-1.58555e-09
6.14825e-10
-1.19625e-09
2.25972e-09
-4.77738e-09
9.92834e-09
-1.07441e-08
1.97662e-08
-1.90872e-08
3.10174e-08
-2.97777e-08
4.30954e-08
-4.27633e-08
5.55227e-08
-5.79668e-08
6.79174e-08
-7.52878e-08
7.99802e-08
-9.46042e-08
9.14807e-08
-1.15776e-07
1.02246e-07
-1.38647e-07
1.12147e-07
-1.63051e-07
1.21097e-07
-1.88811e-07
1.29035e-07
-2.15744e-07
1.35926e-07
-2.43665e-07
1.41754e-07
-2.72385e-07
1.46514e-07
-3.01717e-07
1.50217e-07
-3.31474e-07
1.52878e-07
-3.61472e-07
1.54519e-07
-3.91529e-07
1.55165e-07
-4.21468e-07
1.54846e-07
-4.51118e-07
1.5359e-07
-4.8031e-07
1.51429e-07
-5.0888e-07
1.48393e-07
-5.36671e-07
1.44512e-07
-5.63531e-07
1.39818e-07
-5.89312e-07
1.3434e-07
-6.13874e-07
1.28111e-07
-6.37081e-07
1.21161e-07
-6.58803e-07
1.13523e-07
-6.78919e-07
1.05229e-07
-6.97313e-07
9.63163e-08
-7.13876e-07
8.68205e-08
-7.28508e-07
7.67819e-08
-7.41117e-07
6.62431e-08
-7.51619e-07
5.525e-08
-7.59941e-07
4.38523e-08
-7.66019e-07
3.21034e-08
-7.698e-07
2.00608e-08
-7.71244e-07
7.78627e-09
-7.70323e-07
-4.6543e-09
-7.6702e-07
-1.71908e-08
-7.61334e-07
-2.97491e-08
-7.53276e-07
-4.22514e-08
-7.42876e-07
-5.46164e-08
-7.30174e-07
-6.67598e-08
-7.15229e-07
-7.8595e-08
-6.98116e-07
-9.00336e-08
-6.78925e-07
-1.00986e-07
-6.57761e-07
-1.11363e-07
-6.34748e-07
-1.21074e-07
-6.10024e-07
-1.30034e-07
-5.83741e-07
-1.38157e-07
-5.56067e-07
-1.45362e-07
-5.27182e-07
-1.51573e-07
-4.97282e-07
-1.56721e-07
-4.66569e-07
-1.60741e-07
-4.35258e-07
-1.6358e-07
-4.03572e-07
-1.65192e-07
-3.71739e-07
-1.65541e-07
-3.39992e-07
-1.64606e-07
-3.08563e-07
-1.62375e-07
-2.77688e-07
-1.5885e-07
-2.47594e-07
-1.54051e-07
-2.18507e-07
-1.4801e-07
-1.9064e-07
-1.40779e-07
-1.64196e-07
-1.32424e-07
-1.3936e-07
-1.23036e-07
-1.16302e-07
-1.12724e-07
-9.5166e-08
-1.0162e-07
-7.60732e-08
-8.98829e-08
-5.9115e-08
-7.77007e-08
-4.43514e-08
-6.52931e-08
-3.18081e-08
-5.29176e-08
-2.14745e-08
-4.0874e-08
-1.33022e-08
-2.95121e-08
-7.20557e-09
-1.92397e-08
-3.0626e-09
-1.05296e-08
-7.19694e-10
-3.92845e-09
-1.04879e-10
-1.45687e-09
3.71659e-09
-5.73849e-09
1.421e-08
-1.27738e-08
2.68015e-08
-2.24926e-08
4.07361e-08
-3.48147e-08
5.54175e-08
-4.96457e-08
7.03537e-08
-6.68738e-08
8.51455e-08
-8.63697e-08
9.94762e-08
-1.07988e-07
1.13099e-07
-1.31568e-07
1.25826e-07
-1.56937e-07
1.37517e-07
-1.83913e-07
1.48073e-07
-2.12304e-07
1.57427e-07
-2.41916e-07
1.65538e-07
-2.7255e-07
1.72387e-07
-3.04005e-07
1.7797e-07
-3.36082e-07
1.82294e-07
-3.68583e-07
1.85379e-07
-4.01312e-07
1.87247e-07
-4.34075e-07
1.87929e-07
-4.66685e-07
1.87456e-07
-4.98958e-07
1.85863e-07
-5.30714e-07
1.83185e-07
-5.61778e-07
1.79457e-07
-5.91983e-07
1.74717e-07
-6.21165e-07
1.69e-07
-6.49168e-07
1.62343e-07
-6.75839e-07
1.54782e-07
-7.01033e-07
1.46356e-07
-7.24614e-07
1.37103e-07
-7.46449e-07
1.27064e-07
-7.66414e-07
1.16282e-07
-7.84394e-07
1.048e-07
-8.00281e-07
9.26686e-08
-8.13976e-07
7.99378e-08
-8.25389e-07
6.66637e-08
-8.34443e-07
5.2906e-08
-8.41069e-07
3.87292e-08
-8.4521e-07
2.42024e-08
-8.46824e-07
9.39967e-09
-8.45878e-07
-5.59977e-09
-8.42357e-07
-2.0712e-08
-8.36258e-07
-3.58484e-08
-8.27593e-07
-5.09158e-08
-8.16393e-07
-6.58173e-08
-8.027e-07
-8.04522e-08
-7.86578e-07
-9.47173e-08
-7.68104e-07
-1.08507e-07
-7.47375e-07
-1.21715e-07
-7.24503e-07
-1.34234e-07
-6.99619e-07
-1.45959e-07
-6.72867e-07
-1.56785e-07
-6.44412e-07
-1.66612e-07
-6.14431e-07
-1.75343e-07
-5.83117e-07
-1.82888e-07
-5.50675e-07
-1.89163e-07
-5.17323e-07
-1.94093e-07
-4.8329e-07
-1.97613e-07
-4.48813e-07
-1.99669e-07
-4.14135e-07
-2.00219e-07
-3.79505e-07
-1.99236e-07
-3.45173e-07
-1.96707e-07
-3.11389e-07
-1.92635e-07
-2.78398e-07
-1.87041e-07
-2.46442e-07
-1.79966e-07
-2.15751e-07
-1.71469e-07
-1.86544e-07
-1.61632e-07
-1.59023e-07
-1.50557e-07
-1.33373e-07
-1.38374e-07
-1.09754e-07
-1.25238e-07
-8.83041e-08
-1.11333e-07
-6.913e-08
-9.68747e-08
-5.23096e-08
-8.21136e-08
-3.78872e-08
-6.734e-08
-2.58731e-08
-5.28881e-08
-1.62431e-08
-3.91421e-08
-8.93986e-09
-2.6543e-08
-3.87559e-09
-1.55939e-08
-9.37867e-10
-6.86617e-09
-1.04275e-09
-1.70851e-09
5.42511e-09
-6.67407e-09
1.91756e-08
-1.47601e-08
3.48875e-08
-2.58381e-08
5.18142e-08
-3.97779e-08
6.93574e-08
-5.64421e-08
8.70179e-08
-7.56828e-08
1.04386e-07
-9.73404e-08
1.21134e-07
-1.21244e-07
1.37002e-07
-1.47211e-07
1.51793e-07
-1.7505e-07
1.65356e-07
-2.04562e-07
1.77585e-07
-2.35542e-07
1.88407e-07
-2.67782e-07
1.97778e-07
-3.01069e-07
2.05675e-07
-3.35194e-07
2.12094e-07
-3.69943e-07
2.17044e-07
-4.05108e-07
2.20544e-07
-4.40483e-07
2.22622e-07
-4.75864e-07
2.2331e-07
-5.11053e-07
2.22645e-07
-5.45855e-07
2.20665e-07
-5.8008e-07
2.1741e-07
-6.13546e-07
2.12923e-07
-6.46072e-07
2.07244e-07
-6.77488e-07
2.00415e-07
-7.07625e-07
1.9248e-07
-7.36326e-07
1.83482e-07
-7.63434e-07
1.73465e-07
-7.88805e-07
1.62474e-07
-8.12299e-07
1.50558e-07
-8.33785e-07
1.37767e-07
-8.53139e-07
1.24155e-07
-8.70248e-07
1.09777e-07
-8.85006e-07
9.46961e-08
-8.97319e-07
7.89769e-08
-9.07103e-07
6.26902e-08
-9.14286e-07
4.5912e-08
-9.18808e-07
2.87238e-08
-9.20621e-07
1.12127e-08
-9.19692e-07
-6.52819e-09
-9.16004e-07
-2.44005e-08
-9.09552e-07
-4.23001e-08
-9.0035e-07
-6.0118e-08
-8.88427e-07
-7.77406e-08
-8.73829e-07
-9.50501e-08
-8.5662e-07
-1.11926e-07
-8.36883e-07
-1.28244e-07
-8.14718e-07
-1.43881e-07
-7.90242e-07
-1.5871e-07
-7.63592e-07
-1.7261e-07
-7.34921e-07
-1.85456e-07
-7.044e-07
-1.97133e-07
-6.72217e-07
-2.07526e-07
-6.38574e-07
-2.16531e-07
-6.03688e-07
-2.24048e-07
-5.6779e-07
-2.29991e-07
-5.3112e-07
-2.34283e-07
-4.93929e-07
-2.36859e-07
-4.56477e-07
-2.37672e-07
-4.19025e-07
-2.36688e-07
-3.8184e-07
-2.33892e-07
-3.45187e-07
-2.29287e-07
-3.09331e-07
-2.22898e-07
-2.74526e-07
-2.14771e-07
-2.41022e-07
-2.04974e-07
-2.09053e-07
-1.936e-07
-1.7884e-07
-1.8077e-07
-1.50583e-07
-1.66631e-07
-1.24461e-07
-1.5136e-07
-1.00629e-07
-1.35165e-07
-7.9213e-08
-1.18291e-07
-6.031e-08
-1.01017e-07
-4.39852e-08
-8.36647e-08
-3.02722e-08
-6.66011e-08
-1.91725e-08
-5.02417e-08
-1.06582e-08
-3.50573e-08
-4.67522e-09
-2.15768e-08
-1.14998e-09
-1.03914e-08
-2.19274e-09
-1.95104e-09
7.37617e-09
-7.58157e-09
2.48061e-08
-1.66952e-08
4.40011e-08
-2.91087e-08
6.42277e-08
-4.46434e-08
8.4892e-08
-6.31191e-08
1.05494e-07
-8.43513e-08
1.25618e-07
-1.08149e-07
1.44932e-07
-1.34314e-07
1.63168e-07
-1.62642e-07
1.8012e-07
-1.92921e-07
1.95635e-07
-2.24935e-07
2.09598e-07
-2.58463e-07
2.21935e-07
-2.93284e-07
2.32598e-07
-3.29173e-07
2.41564e-07
-3.65907e-07
2.48829e-07
-4.03266e-07
2.54402e-07
-4.41027e-07
2.58306e-07
-4.78976e-07
2.60571e-07
-5.169e-07
2.61234e-07
-5.5459e-07
2.60335e-07
-5.91842e-07
2.57917e-07
-6.28459e-07
2.54027e-07
-6.64247e-07
2.48711e-07
-6.9902e-07
2.42016e-07
-7.32596e-07
2.33991e-07
-7.648e-07
2.24685e-07
-7.95466e-07
2.14147e-07
-8.2443e-07
2.02429e-07
-8.5154e-07
1.89584e-07
-8.76649e-07
1.75667e-07
-8.99619e-07
1.60737e-07
-9.20319e-07
1.44856e-07
-9.38631e-07
1.28089e-07
-9.54443e-07
1.10508e-07
-9.67656e-07
9.21893e-08
-9.7818e-07
7.32143e-08
-9.85939e-07
5.3671e-08
-9.90869e-07
3.36539e-08
-9.9292e-07
1.32636e-08
-9.92056e-07
-7.39247e-09
-9.88255e-07
-2.82005e-08
-9.81515e-07
-4.90407e-08
-9.71846e-07
-6.97871e-08
-9.59278e-07
-9.03089e-08
-9.43857e-07
-1.1047e-07
-9.2565e-07
-1.30132e-07
-9.04741e-07
-1.49153e-07
-8.81234e-07
-1.67389e-07
-8.55249e-07
-1.84695e-07
-8.26929e-07
-2.0093e-07
-7.96433e-07
-2.15952e-07
-7.6394e-07
-2.29626e-07
-7.29644e-07
-2.41822e-07
-6.93758e-07
-2.52417e-07
-6.56509e-07
-2.61298e-07
-6.18137e-07
-2.68363e-07
-5.78897e-07
-2.73523e-07
-5.39051e-07
-2.76704e-07
-4.98873e-07
-2.7785e-07
-4.58641e-07
-2.76921e-07
-4.18634e-07
-2.73898e-07
-3.79136e-07
-2.68785e-07
-3.40426e-07
-2.61609e-07
-3.02778e-07
-2.52419e-07
-2.66456e-07
-2.41295e-07
-2.31715e-07
-2.28342e-07
-1.98792e-07
-2.13693e-07
-1.67907e-07
-1.97516e-07
-1.39257e-07
-1.80009e-07
-1.13017e-07
-1.61405e-07
-8.9334e-08
-1.41974e-07
-6.83252e-08
-1.22025e-07
-5.00792e-08
-1.01911e-07
-3.46542e-08
-8.20261e-08
-2.20787e-08
-6.28173e-08
-1.23542e-08
-4.47819e-08
-5.45916e-09
-2.84718e-08
-1.35583e-09
-1.44947e-08
-3.54857e-09
-2.18471e-09
9.56089e-09
-8.46032e-09
3.10817e-08
-1.85757e-08
5.41165e-08
-3.22966e-08
7.79486e-08
-4.93973e-08
1.01993e-07
-6.96562e-08
1.25752e-07
-9.28521e-08
1.48814e-07
-1.18762e-07
1.70842e-07
-1.47161e-07
1.91566e-07
-1.77819e-07
2.10778e-07
-2.10505e-07
2.2832e-07
-2.44984e-07
2.44078e-07
-2.81021e-07
2.57972e-07
-3.18378e-07
2.69956e-07
-3.56821e-07
2.80007e-07
-3.96114e-07
2.88122e-07
-4.36025e-07
2.94313e-07
-4.76324e-07
2.98605e-07
-5.16785e-07
3.01032e-07
-5.57187e-07
3.01636e-07
-5.97313e-07
3.0046e-07
-6.3695e-07
2.97554e-07
-6.75892e-07
2.9297e-07
-7.1394e-07
2.86758e-07
-7.50896e-07
2.78973e-07
-7.86574e-07
2.69669e-07
-8.20791e-07
2.58902e-07
-8.53372e-07
2.46728e-07
-8.84149e-07
2.33206e-07
-9.1296e-07
2.18395e-07
-9.39653e-07
2.0236e-07
-9.64084e-07
1.85168e-07
-9.86116e-07
1.66888e-07
-1.00562e-06
1.47597e-07
-1.02249e-06
1.27376e-07
-1.03661e-06
1.06312e-07
-1.0479e-06
8.4498e-08
-1.05626e-06
6.20348e-08
-1.06164e-06
3.90296e-08
-1.06397e-06
1.55975e-08
-1.06322e-06
-8.13944e-09
-1.05937e-06
-3.20517e-08
-1.05241e-06
-5.60029e-08
-1.04235e-06
-7.98499e-08
-1.02921e-06
-1.03444e-07
-1.01305e-06
-1.26631e-07
-9.93934e-07
-1.49252e-07
-9.71941e-07
-1.71146e-07
-9.4718e-07
-1.9215e-07
-9.19775e-07
-2.12099e-07
-8.89873e-07
-2.30832e-07
-8.57639e-07
-2.48187e-07
-8.23254e-07
-2.6401e-07
-7.86924e-07
-2.78153e-07
-7.48866e-07
-2.90475e-07
-7.09319e-07
-3.00846e-07
-6.68532e-07
-3.09149e-07
-6.26772e-07
-3.15283e-07
-5.84315e-07
-3.19162e-07
-5.41445e-07
-3.20719e-07
-4.98456e-07
-3.1991e-07
-4.55644e-07
-3.1671e-07
-4.13307e-07
-3.11122e-07
-3.71742e-07
-3.03173e-07
-3.31241e-07
-2.92921e-07
-2.92087e-07
-2.8045e-07
-2.54551e-07
-2.65877e-07
-2.18893e-07
-2.49352e-07
-1.8535e-07
-2.31059e-07
-1.54143e-07
-2.11217e-07
-1.25465e-07
-1.90083e-07
-9.94868e-08
-1.67953e-07
-7.63487e-08
-1.45164e-07
-5.61636e-08
-1.22096e-07
-3.90153e-08
-9.91745e-08
-2.49597e-08
-7.68729e-08
-1.40274e-08
-5.57141e-08
-6.22801e-09
-3.62713e-08
-1.55594e-09
-1.91668e-08
-5.1045e-09
-2.40997e-09
1.19709e-08
-9.31077e-09
3.79825e-08
-2.0401e-08
6.52068e-08
-3.53984e-08
9.29459e-08
-5.40327e-08
1.20627e-07
-7.60418e-08
1.47762e-07
-1.01169e-07
1.73941e-07
-1.29158e-07
1.98831e-07
-1.59757e-07
2.22165e-07
-1.92712e-07
2.43733e-07
-2.27769e-07
2.63378e-07
-2.64677e-07
2.80985e-07
-3.03182e-07
2.96478e-07
-3.43035e-07
3.09809e-07
-3.83986e-07
3.20958e-07
-4.2579e-07
3.29925e-07
-4.68203e-07
3.36726e-07
-5.10987e-07
3.41388e-07
-5.53906e-07
3.43952e-07
-5.96731e-07
3.4446e-07
-6.39236e-07
3.42966e-07
-6.81203e-07
3.39521e-07
-7.22417e-07
3.34183e-07
-7.6267e-07
3.27011e-07
-8.01761e-07
3.18064e-07
-8.39495e-07
3.07403e-07
-8.75682e-07
2.95089e-07
-9.10141e-07
2.81187e-07
-9.42697e-07
2.65762e-07
-9.73184e-07
2.48882e-07
-1.00144e-06
2.30619e-07
-1.02732e-06
2.11048e-07
-1.05068e-06
1.90248e-07
-1.07139e-06
1.68306e-07
-1.08933e-06
1.45312e-07
-1.10438e-06
1.21365e-07
-1.11645e-06
9.65703e-08
-1.12546e-06
7.10401e-08
-1.13133e-06
4.48958e-08
-1.134e-06
1.82667e-08
-1.13342e-06
-8.70997e-09
-1.12959e-06
-3.58885e-08
-1.12248e-06
-6.31156e-08
-1.11209e-06
-9.02305e-08
-1.09847e-06
-1.17066e-07
-1.08166e-06
-1.43448e-07
-1.06171e-06
-1.69199e-07
-1.03872e-06
-1.94137e-07
-1.01279e-06
-2.18079e-07
-9.84049e-07
-2.40838e-07
-9.52648e-07
-2.62233e-07
-9.18752e-07
-2.82083e-07
-8.82551e-07
-3.00211e-07
-8.44254e-07
-3.1645e-07
-8.04087e-07
-3.30641e-07
-7.62296e-07
-3.42637e-07
-7.19142e-07
-3.52303e-07
-6.749e-07
-3.59525e-07
-6.29859e-07
-3.64203e-07
-5.84318e-07
-3.6626e-07
-5.38584e-07
-3.65644e-07
-4.92969e-07
-3.62325e-07
-4.47787e-07
-3.56303e-07
-4.03354e-07
-3.47607e-07
-3.59979e-07
-3.36296e-07
-3.17964e-07
-3.22464e-07
-2.77604e-07
-3.06238e-07
-2.39175e-07
-2.87781e-07
-2.02939e-07
-2.67295e-07
-1.69137e-07
-2.45018e-07
-1.37988e-07
-2.21232e-07
-1.09683e-07
-1.96257e-07
-8.439e-08
-1.70457e-07
-6.22461e-08
-1.4424e-07
-4.33619e-08
-1.18059e-07
-2.78208e-08
-9.24139e-08
-1.56821e-08
-6.78529e-08
-6.98431e-09
-4.4969e-08
-1.7513e-09
-2.43999e-08
-6.85579e-09
-2.62735e-09
1.45982e-08
-1.0134e-08
4.54891e-08
-2.21719e-08
7.72447e-08
-3.84137e-08
1.09188e-07
-5.8547e-08
1.4076e-07
-8.22706e-08
1.71485e-07
-1.09292e-07
2.00962e-07
-1.39325e-07
2.28864e-07
-1.72087e-07
2.54927e-07
-2.07301e-07
2.78948e-07
-2.44693e-07
3.0077e-07
-2.8399e-07
3.20282e-07
-3.24925e-07
3.37412e-07
-3.67231e-07
3.52115e-07
-4.10648e-07
3.64375e-07
-4.54917e-07
3.74195e-07
-4.99787e-07
3.81595e-07
-5.45008e-07
3.86609e-07
-5.90337e-07
3.89281e-07
-6.35536e-07
3.8966e-07
-6.80373e-07
3.87803e-07
-7.24622e-07
3.8377e-07
-7.68062e-07
3.77623e-07
-8.10478e-07
3.69428e-07
-8.51663e-07
3.59249e-07
-8.91415e-07
3.47155e-07
-9.2954e-07
3.33214e-07
-9.6585e-07
3.17497e-07
-1.00017e-06
3.00077e-07
-1.03231e-06
2.8103e-07
-1.06213e-06
2.60435e-07
-1.08946e-06
2.38376e-07
-1.11415e-06
2.14943e-07
-1.13608e-06
1.9023e-07
-1.1551e-06
1.64339e-07
-1.17112e-06
1.37379e-07
-1.18401e-06
1.09468e-07
-1.19371e-06
8.07319e-08
-1.20012e-06
5.13045e-08
-1.20318e-06
2.13299e-08
-1.20285e-06
-9.039e-09
-1.1991e-06
-3.96403e-08
-1.19191e-06
-7.03034e-08
-1.18129e-06
-1.00849e-07
-1.16727e-06
-1.31092e-07
-1.14988e-06
-1.60837e-07
-1.12919e-06
-1.89888e-07
-1.10528e-06
-2.18041e-07
-1.07827e-06
-2.45091e-07