/*--------------------------------*- C++ -*----------------------------------*\
  =========                 |
  \\      /  F ield         | OpenFOAM: The Open Source CFD Toolbox
   \\    /   O peration     | Website:  https://openfoam.org
    \\  /    A nd           | Version:  7
     \\/     M anipulation  |
\*---------------------------------------------------------------------------*/
FoamFile
{
    version     2.0;
    format      ascii;
    class       surfaceScalarField;
    location    "2.4";
    object      phi;
}
// * * * * * * * * * * * * * * * * * * * * * * * * * * * * * * * * * * * * * //

dimensions      [0 3 -1 0 0 0 0];

internalField   nonuniform List<scalar> 
12640
(
3.1616e-10
-3.20192e-10
9.51784e-10
-6.35739e-10
1.54976e-09
-5.97967e-10
1.90307e-09
-3.53242e-10
1.91596e-09
-1.28322e-11
1.55565e-09
3.603e-10
8.22779e-10
7.32856e-10
-2.59764e-10
1.08255e-09
-1.66274e-09
1.40299e-09
-3.35409e-09
1.69134e-09
-5.30251e-09
1.94839e-09
-7.47953e-09
2.177e-09
-9.86041e-09
2.38088e-09
-1.24243e-08
2.5639e-09
-1.51539e-08
2.72959e-09
-1.80348e-08
2.88092e-09
-2.10549e-08
3.02006e-09
-2.42033e-08
3.14839e-09
-2.74697e-08
3.26641e-09
-3.08435e-08
3.37387e-09
-3.43133e-08
3.46978e-09
-3.78659e-08
3.55255e-09
-4.1486e-08
3.6201e-09
-4.51559e-08
3.66995e-09
-4.88553e-08
3.69936e-09
-5.25607e-08
3.7054e-09
-5.62458e-08
3.6851e-09
-5.98814e-08
3.63556e-09
-6.34354e-08
3.554e-09
-6.68733e-08
3.4379e-09
-7.01583e-08
3.28505e-09
-7.3252e-08
3.09371e-09
-7.61147e-08
2.86263e-09
-7.87058e-08
2.59115e-09
-8.09851e-08
2.27932e-09
-8.29131e-08
1.92792e-09
-8.44516e-08
1.53855e-09
-8.55653e-08
1.11367e-09
-8.62219e-08
6.56641e-10
-8.63937e-08
1.71739e-10
-8.60577e-08
-3.35977e-10
-8.51973e-08
-8.60401e-10
-8.38025e-08
-1.39477e-09
-8.18709e-08
-1.93158e-09
-7.94082e-08
-2.46276e-09
-7.64284e-08
-2.97981e-09
-7.29544e-08
-3.47399e-09
-6.90178e-08
-3.93652e-09
-6.46591e-08
-4.35876e-09
-5.99266e-08
-4.73251e-09
-5.48764e-08
-5.05018e-09
-4.95713e-08
-5.30507e-09
-4.40798e-08
-5.49156e-09
-3.84745e-08
-5.60528e-09
-3.28312e-08
-5.64331e-09
-2.72269e-08
-5.6043e-09
-2.17384e-08
-5.4885e-09
-1.64405e-08
-5.29781e-09
-1.14048e-08
-5.03576e-09
-6.69742e-09
-4.70737e-09
-2.37835e-09
-4.31907e-09
1.50016e-09
-3.87851e-09
4.89446e-09
-3.3943e-09
7.77029e-09
-2.87583e-09
1.01034e-08
-2.33308e-09
1.18798e-08
-1.77638e-09
1.3096e-08
-1.21625e-09
1.37594e-08
-6.6335e-10
1.38879e-08
-1.28503e-10
1.35107e-08
3.77164e-10
1.26689e-08
8.41843e-10
1.14164e-08
1.25249e-09
9.82246e-09
1.59392e-09
7.97489e-09
1.84757e-09
5.98514e-09
1.98974e-09
3.99508e-09
1.99005e-09
2.18394e-09
1.81113e-09
7.74466e-10
1.40948e-09
2.06693e-11
7.53826e-10
2.06944e-11
6.41276e-10
-9.61579e-10
1.60081e-09
-1.59541e-09
2.30359e-09
-1.30063e-09
2.38978e-09
-4.39286e-10
1.653e-09
7.23955e-10
-6.35742e-15
2.01325e-09
-2.58147e-09
3.3143e-09
-6.0658e-09
4.56691e-09
-1.03961e-08
5.73325e-09
-1.55037e-08
6.79897e-09
-2.13177e-08
7.76236e-09
-2.77698e-08
8.62907e-09
-3.47976e-08
9.40863e-09
-4.23455e-08
1.01119e-08
-5.03651e-08
1.07492e-08
-5.88135e-08
1.13294e-08
-6.76525e-08
1.1859e-08
-7.68462e-08
1.23421e-08
-8.63597e-08
1.27799e-08
-9.61567e-08
1.31709e-08
-1.06198e-07
1.35114e-08
-1.16441e-07
1.37956e-08
-1.26837e-07
1.4016e-08
-1.37331e-07
1.41637e-08
-1.47861e-07
1.42291e-08
-1.58357e-07
1.4202e-08
-1.68744e-07
1.4072e-08
-1.78938e-07
1.38293e-08
-1.88848e-07
1.34644e-08
-1.9838e-07
1.29691e-08
-2.07431e-07
1.23363e-08
-2.15898e-07
1.15608e-08
-2.23674e-07
1.06391e-08
-2.30653e-07
9.57017e-09
-2.3673e-07
8.35539e-09
-2.418e-07
6.99889e-09
-2.4577e-07
5.50771e-09
-2.48548e-07
3.89195e-09
-2.50056e-07
2.16483e-09
-2.50227e-07
3.42755e-10
-2.49008e-07
-1.55519e-09
-2.46362e-07
-3.50655e-09
-2.4227e-07
-5.48653e-09
-2.36734e-07
-7.46805e-09
-2.29774e-07
-9.42223e-09
-2.21435e-07
-1.13189e-08
-2.11782e-07
-1.31272e-08
-2.00902e-07
-1.48163e-08
-1.88905e-07
-1.63562e-08
-1.75919e-07
-1.77183e-08
-1.62093e-07
-1.88764e-08
-1.4759e-07
-1.98073e-08
-1.3259e-07
-2.04916e-08
-1.17281e-07
-2.09142e-08
-1.0186e-07
-2.10652e-08
-8.65244e-08
-2.09396e-08
-7.14746e-08
-2.05383e-08
-5.69047e-08
-1.98677e-08
-4.30006e-08
-1.89399e-08
-2.99358e-08
-1.77721e-08
-1.78683e-08
-1.63866e-08
-6.93679e-09
-1.481e-08
2.74135e-09
-1.30724e-08
1.10728e-08
-1.12073e-08
1.79898e-08
-9.25005e-09
2.34515e-08
-7.23807e-09
2.74451e-08
-5.20983e-09
2.99865e-08
-3.20476e-09
3.11213e-08
-1.26332e-09
3.09259e-08
5.72558e-10
2.9509e-08
2.25872e-09
2.70145e-08
3.74698e-09
2.36251e-08
4.98334e-09
1.95673e-08
5.90528e-09
1.51179e-08
6.43918e-09
1.06085e-08
6.49949e-09
6.42609e-09
5.99349e-09
2.99951e-09
4.83601e-09
7.507e-10
3.00257e-09
7.71409e-10
6.12421e-10
-1.57399e-09
1.31209e-09
-2.29499e-09
1.43713e-09
-1.42556e-09
5.74434e-10
4.23426e-10
-1.52237e-09
2.82074e-09
-4.97193e-09
5.46283e-09
-9.80389e-09
8.14626e-09
-1.59827e-08
1.07458e-08
-2.34387e-08
1.31892e-08
-3.20821e-08
1.54423e-08
-4.18158e-08
1.74961e-08
-5.25438e-08
1.9357e-08
-6.4175e-08
2.10398e-08
-7.6626e-08
2.25629e-08
-8.98212e-08
2.39444e-08
-1.03692e-07
2.51997e-08
-1.18173e-07
2.63405e-08
-1.33204e-07
2.73731e-08
-1.48723e-07
2.82989e-08
-1.64666e-07
2.91141e-08
-1.80965e-07
2.98102e-08
-1.97544e-07
3.03748e-08
-2.14321e-07
3.07921e-08
-2.31201e-07
3.10439e-08
-2.48082e-07
3.11102e-08
-2.6485e-07
3.09704e-08
-2.81382e-07
3.06038e-08
-2.97544e-07
2.99905e-08
-3.13191e-07
2.91122e-08
-3.28175e-07
2.7953e-08
-3.42339e-07
2.64998e-08
-3.55521e-07
2.47433e-08
-3.67561e-07
2.26785e-08
-3.78296e-07
2.03049e-08
-3.87568e-07
1.76277e-08
-3.95227e-07
1.46576e-08
-4.0113e-07
1.14112e-08
-4.0515e-07
7.91151e-09
-4.07173e-07
4.18774e-09
-4.07105e-07
2.75582e-10
-4.04876e-07
-3.78436e-09
-4.00438e-07
-7.94428e-09
-3.93773e-07
-1.21524e-08
-3.84888e-07
-1.63524e-08
-3.73826e-07
-2.04847e-08
-3.60657e-07
-2.44872e-08
-3.45487e-07
-2.82971e-08
-3.28452e-07
-3.18517e-08
-3.09718e-07
-3.50901e-08
-2.89482e-07
-3.79546e-08
-2.67966e-07
-4.03922e-08
-2.45417e-07
-4.23563e-08
-2.22101e-07
-4.38077e-08
-1.98299e-07
-4.47161e-08
-1.74303e-07
-4.50609e-08
-1.5041e-07
-4.48324e-08
-1.26917e-07
-4.40317e-08
-1.04113e-07
-4.26715e-08
-8.22773e-08
-4.07755e-08
-6.1671e-08
-3.83784e-08
-4.2533e-08
-3.55247e-08
-2.50748e-08
-3.22681e-08
-9.47705e-09
-2.86702e-08
4.11476e-09
-2.47991e-08
1.55928e-08
-2.07281e-08
2.48895e-08
-1.65348e-08
3.19793e-08
-1.22996e-08
3.68805e-08
-8.10592e-09
3.96565e-08
-4.03934e-09
4.04179e-08
-1.88877e-10
3.93242e-08
3.35244e-09
3.65869e-08
6.48432e-09
3.24727e-08
9.09747e-09
2.73079e-08
1.107e-08
2.14816e-08
1.22656e-08
1.54465e-08
1.25345e-08
9.71523e-09
1.17248e-08
4.84427e-09
9.70698e-09
1.40712e-09
6.43969e-09
2.17853e-09
3.59913e-10
-1.93382e-09
3.92608e-10
-2.32754e-09
-5.5025e-10
-4.82714e-10
-2.8752e-09
2.74832e-09
-6.82427e-09
6.76979e-09
-1.25128e-08
1.11514e-08
-1.99634e-08
1.55969e-08
-2.91338e-08
1.99161e-08
-3.99411e-08
2.39964e-08
-5.22792e-08
2.77804e-08
-6.60323e-08
3.12493e-08
-8.10835e-08
3.44081e-08
-9.73198e-08
3.72761e-08
-1.14635e-07
3.98783e-08
-1.32931e-07
4.22401e-08
-1.52114e-07
4.43832e-08
-1.72097e-07
4.63232e-08
-1.92792e-07
4.80683e-08
-2.14112e-07
4.96184e-08
-2.35963e-07
5.09656e-08
-2.58248e-07
5.20949e-08
-2.80858e-07
5.29848e-08
-3.03674e-07
5.36087e-08
-3.26567e-07
5.39365e-08
-3.49392e-07
5.39356e-08
-3.71994e-07
5.35723e-08
-3.94204e-07
5.28135e-08
-4.15841e-07
5.16277e-08
-4.36715e-07
4.99864e-08
-4.56627e-07
4.78652e-08
-4.75373e-07
4.52452e-08
-4.92743e-07
4.21134e-08
-5.08529e-07
3.84644e-08
-5.22525e-07
3.43009e-08
-5.34531e-07
2.96344e-08
-5.44359e-07
2.44856e-08
-5.51833e-07
1.88853e-08
-5.56796e-07
1.28742e-08
-5.59112e-07
6.50324e-09
-5.5867e-07
-1.66269e-10
-5.55388e-07
-7.06606e-09
-5.49217e-07
-1.41154e-08
-5.40141e-07
-2.12285e-08
-5.28181e-07
-2.83123e-08
-5.13397e-07
-3.52687e-08
-4.95888e-07
-4.19965e-08
-4.75791e-07
-4.83932e-08
-4.53286e-07
-5.43572e-08
-4.28586e-07
-5.97897e-08
-4.01943e-07
-6.45976e-08
-3.7364e-07
-6.86954e-08
-3.43989e-07
-7.20077e-08
-3.13325e-07
-7.44711e-08
-2.82005e-07
-7.60365e-08
-2.50396e-07
-7.66703e-08
-2.18872e-07
-7.63559e-08
-1.87809e-07
-7.50944e-08
-1.57576e-07
-7.29053e-08
-1.28525e-07
-6.9826e-08
-1.00992e-07
-6.59115e-08
-7.52834e-08
-6.12333e-08
-5.16736e-08
-5.58779e-08
-3.03988e-08
-4.9945e-08
-1.16521e-08
-4.35458e-08
4.42058e-09
-3.68008e-08
1.77239e-08
-2.9838e-08
2.82157e-08
-2.27915e-08
3.59099e-08
-1.58001e-08
4.08781e-08
-9.00758e-09
4.32519e-08
-2.56265e-09
4.32249e-08
3.3794e-09
4.10551e-08
8.65419e-09
3.70669e-08
1.30856e-08
3.16542e-08
1.64827e-08
2.52808e-08
1.86389e-08
1.84803e-08
1.93351e-08
1.18525e-08
1.83526e-08
6.05842e-09
1.55011e-08
1.8218e-09
1.06763e-08
4.00033e-09
-2.14508e-11
-1.9123e-09
-9.4023e-10
-1.40874e-09
-3.318e-09
1.89502e-09
-7.50613e-09
6.93642e-09
-1.37066e-08
1.29702e-08
-2.20063e-08
1.94511e-08
-3.24064e-08
2.59969e-08
-4.48471e-08
3.23568e-08
-5.92295e-08
3.83787e-08
-7.54319e-08
4.39829e-08
-9.33225e-08
4.91398e-08
-1.12767e-07
5.38528e-08
-1.33635e-07
5.81443e-08
-1.55802e-07
6.20453e-08
-1.79149e-07
6.55871e-08
-2.03563e-07
6.87967e-08
-2.28932e-07
7.16923e-08
-2.55146e-07
7.42819e-08
-2.8209e-07
7.65624e-08
-3.09644e-07
7.85198e-08
-3.37679e-07
8.01302e-08
-3.66055e-07
8.13609e-08
-3.94619e-07
8.21725e-08
-4.23203e-07
8.25207e-08
-4.51626e-07
8.23583e-08
-4.79691e-07
8.16371e-08
-5.07187e-07
8.03102e-08
-5.33893e-07
7.83336e-08
-5.59575e-07
7.56683e-08
-5.83992e-07
7.22817e-08
-6.06896e-07
6.81494e-08
-6.28039e-07
6.32566e-08
-6.47174e-07
5.75995e-08
-6.64059e-07
5.1186e-08
-6.78462e-07
4.40373e-08
-6.90165e-07
3.61881e-08
-6.98967e-07
2.76871e-08
-7.0469e-07
1.85976e-08
-7.07184e-07
8.99701e-09
-7.06327e-07
-1.02331e-09
-7.02033e-07
-1.13599e-08
-6.94253e-07
-2.18956e-08
-6.82977e-07
-3.25041e-08
-6.68239e-07
-4.30499e-08
-6.50117e-07
-5.33911e-08
-6.28732e-07
-6.33815e-08
-6.04252e-07
-7.28736e-08
-5.76887e-07
-8.17216e-08
-5.46893e-07
-8.9784e-08
-5.14563e-07
-9.69276e-08
-4.80228e-07
-1.0303e-07
-4.44254e-07
-1.07982e-07
-4.0703e-07
-1.11695e-07
-3.68972e-07
-1.14095e-07
-3.30508e-07
-1.15134e-07
-2.92076e-07
-1.14788e-07
-2.54115e-07
-1.13055e-07
-2.17057e-07
-1.09963e-07
-1.81321e-07
-1.05562e-07
-1.47303e-07
-9.99298e-08
-1.15369e-07
-9.31673e-08
-8.5849e-08
-8.53977e-08
-5.90304e-08
-7.67636e-08
-3.51507e-08
-6.74254e-08
-1.43938e-08
-5.75578e-08
3.11537e-09
-4.73472e-08
1.7314e-08
-3.69901e-08
2.82047e-08
-2.66907e-08
3.5858e-08
-1.66609e-08
4.04148e-08
-7.11944e-09
4.20879e-08
1.70629e-09
4.11639e-08
9.57817e-09
3.80046e-08
1.62448e-08
3.3048e-08
2.14393e-08
2.68085e-08
2.48785e-08
1.98764e-08
2.62671e-08
1.29194e-08
2.53095e-08
6.68719e-09
2.17334e-08
2.03241e-09
1.53311e-08
6.03274e-09
-4.76203e-10
-1.43612e-09
-2.54409e-09
6.59104e-10
-6.62824e-09
5.97917e-09
-1.29888e-08
1.3297e-08
-2.17606e-08
2.17421e-08
-3.29811e-08
3.06716e-08
-4.66146e-08
3.96304e-08
-6.2574e-08
4.83161e-08
-8.07386e-08
5.65434e-08
-1.00969e-07
6.42132e-08
-1.23117e-07
7.12877e-08
-1.47033e-07
7.77691e-08
-1.72572e-07
8.3683e-08
-1.99592e-07
8.90654e-08
-2.27958e-07
9.39528e-08
-2.57536e-07
9.83753e-08
-2.88196e-07
1.02352e-07
-3.19804e-07
1.0589e-07
-3.52221e-07
1.08979e-07
-3.853e-07
1.11598e-07
-4.18882e-07
1.13712e-07
-4.52796e-07
1.15275e-07
-4.86855e-07
1.16232e-07
-5.20858e-07
1.16523e-07
-5.54586e-07
1.16086e-07
-5.87805e-07
1.14856e-07
-6.20267e-07
1.12772e-07
-6.51712e-07
1.09778e-07
-6.81868e-07
1.05824e-07
-7.10457e-07
1.0087e-07
-7.37196e-07
9.48888e-08
-7.61803e-07
8.78641e-08
-7.84e-07
7.97964e-08
-8.03516e-07
7.0702e-08
-8.20094e-07
6.06147e-08
-8.33492e-07
4.95865e-08
-8.43493e-07
3.76881e-08
-8.49904e-07
2.50089e-08
-8.52564e-07
1.1657e-08
-8.51346e-07
-2.24169e-09
-8.46161e-07
-1.65449e-08
-8.36962e-07
-3.10944e-08
-8.23747e-07
-4.57193e-08
-8.06559e-07
-6.02376e-08
-7.85491e-07
-7.44593e-08
-7.60683e-07
-8.81895e-08
-7.32325e-07
-1.01232e-07
-7.00654e-07
-1.13392e-07
-6.65955e-07
-1.24483e-07
-6.28555e-07
-1.34327e-07
-5.88824e-07
-1.42761e-07
-5.47165e-07
-1.49641e-07
-5.04015e-07
-1.54845e-07
-4.59833e-07
-1.58276e-07
-4.151e-07
-1.59868e-07
-3.70304e-07
-1.59584e-07
-3.25938e-07
-1.57421e-07
-2.82489e-07
-1.53411e-07
-2.40432e-07
-1.4762e-07
-2.00215e-07
-1.40146e-07
-1.62261e-07
-1.31121e-07
-1.26951e-07
-1.20708e-07
-9.46189e-08
-1.09095e-07
-6.55477e-08
-9.64967e-08
-3.99594e-08
-8.3146e-08
-1.80117e-08
-6.92949e-08
2.07236e-10
-5.5209e-08
1.46826e-08
-4.11661e-08
2.54753e-08
-2.74536e-08
3.27249e-08
-1.43691e-08
3.66513e-08
-2.22013e-09
3.75558e-08
8.67368e-09
3.58219e-08
1.79788e-08
3.19154e-08
2.53458e-08
2.63852e-08
3.04087e-08
1.98638e-08
3.27886e-08
1.30718e-08
3.21014e-08
6.82999e-09
2.79752e-08
2.08687e-09
2.00742e-08
8.1196e-09
-9.78467e-10
-4.57689e-10
-4.32868e-09
4.0093e-09
-1.03168e-08
1.19673e-08
-1.90854e-08
2.20656e-08
-3.06805e-08
3.33372e-08
-4.50726e-08
4.50635e-08
-6.21757e-08
5.67335e-08
-8.18656e-08
6.8006e-08
-1.03993e-07
7.86713e-08
-1.28398e-07
8.86179e-08
-1.54914e-07
9.78035e-08
-1.83377e-07
1.06232e-07
-2.13625e-07
1.13932e-07
-2.45505e-07
1.20945e-07
-2.78864e-07
1.27312e-07
-3.13554e-07
1.33065e-07
-3.49422e-07
1.38221e-07
-3.86316e-07
1.42784e-07
-4.24073e-07
1.46736e-07
-4.6252e-07
1.50045e-07
-5.01472e-07
1.52664e-07
-5.40726e-07
1.54529e-07
-5.80067e-07
1.55572e-07
-6.19258e-07
1.55714e-07
-6.58047e-07
1.54876e-07
-6.96168e-07
1.52977e-07
-7.33338e-07
1.49942e-07
-7.69262e-07
1.45702e-07
-8.03636e-07
1.40198e-07
-8.36151e-07
1.33385e-07
-8.66493e-07
1.25231e-07
-8.94353e-07
1.15724e-07
-9.19427e-07
1.0487e-07
-9.41422e-07
9.26965e-08
-9.60059e-07
7.92523e-08
-9.75083e-07
6.461e-08
-9.8626e-07
4.88653e-08
-9.93388e-07
3.2137e-08
-9.96298e-07
1.45671e-08
-9.94859e-07
-3.68088e-09
-9.88981e-07
-2.24233e-08
-9.78618e-07
-4.14574e-08
-9.63772e-07
-6.05651e-08
-9.44494e-07
-7.95152e-08
-9.20887e-07
-9.80667e-08
-8.93103e-07
-1.15973e-07
-8.61349e-07
-1.32986e-07
-8.2588e-07
-1.48862e-07
-7.87001e-07
-1.63362e-07
-7.45067e-07
-1.76262e-07
-7.00472e-07
-1.87356e-07
-6.53654e-07
-1.9646e-07
-6.05081e-07
-2.03417e-07
-5.55253e-07
-2.08104e-07
-5.04689e-07
-2.10432e-07
-4.53923e-07
-2.1035e-07
-4.03493e-07
-2.07851e-07
-3.53936e-07
-2.02968e-07
-3.05775e-07
-1.95781e-07
-2.59512e-07
-1.86409e-07
-2.15619e-07
-1.75015e-07
-1.74526e-07
-1.61801e-07
-1.36617e-07
-1.47005e-07
-1.02218e-07
-1.30895e-07
-7.15936e-08
-1.13771e-07
-4.49369e-08
-9.59516e-08
-2.23664e-08
-7.77795e-08
-3.92131e-09
-5.96112e-08
1.04425e-08
-4.18175e-08
2.08547e-08
-2.47812e-08
2.75318e-08
-8.89729e-09
3.0779e-08
5.42645e-09
3.099e-08
1.77679e-08
2.8647e-08
2.76887e-08
2.43219e-08
3.47339e-08
1.86778e-08
3.84327e-08
1.24756e-08
3.83036e-08
6.58787e-09
3.3863e-08
2.02535e-09
2.46367e-08
1.0145e-08
-1.51018e-09
1.05249e-09
-6.23587e-09
8.73499e-09
-1.42712e-08
2.00026e-08
-2.56245e-08
3.34189e-08
-4.02369e-08
4.79496e-08
-5.79978e-08
6.28244e-08
-7.876e-08
7.74956e-08
-1.02353e-07
9.15987e-08
-1.28593e-07
1.04912e-07
-1.57294e-07
1.17319e-07
-1.88271e-07
1.2878e-07
-2.21342e-07
1.39303e-07
-2.56333e-07
1.48923e-07
-2.93076e-07
1.57688e-07
-3.31404e-07
1.6564e-07
-3.71154e-07
1.72814e-07
-4.12156e-07
1.79224e-07
-4.54239e-07
1.84866e-07
-4.97217e-07
1.89714e-07
-5.40895e-07
1.93723e-07
-5.8506e-07
1.96829e-07
-6.29486e-07
1.98955e-07
-6.73924e-07
2.00011e-07
-7.18111e-07
1.99901e-07
-7.61764e-07
1.98529e-07
-8.04585e-07
1.95798e-07
-8.46262e-07
1.91619e-07
-8.8647e-07
1.8591e-07
-9.24878e-07
1.78606e-07
-9.61149e-07
1.69656e-07
-9.94946e-07
1.59028e-07
-1.02594e-06
1.46714e-07
-1.05379e-06
1.32729e-07
-1.07821e-06
1.17113e-07
-1.09889e-06
9.99335e-08
-1.11557e-06
8.12855e-08
-1.12799e-06
6.12921e-08
-1.13596e-06
4.01039e-08
-1.13929e-06
1.78984e-08
-1.13785e-06
-5.12086e-09
-1.13155e-06
-2.87271e-08
-1.12033e-06
-5.26715e-08
-1.10421e-06
-7.66868e-08
-1.08324e-06
-1.00491e-07
-1.05751e-06
-1.2379e-07
-1.0272e-06
-1.46284e-07
-9.92517e-07
-1.67672e-07
-9.53725e-07
-1.87654e-07
-9.11144e-07
-2.05942e-07
-8.65144e-07
-2.22261e-07
-8.16142e-07
-2.36358e-07
-7.64595e-07
-2.48007e-07
-7.11e-07
-2.57012e-07
-6.55888e-07
-2.63217e-07
-5.99812e-07
-2.66508e-07
-5.43344e-07
-2.66818e-07
-4.87065e-07
-2.6413e-07
-4.31556e-07
-2.58477e-07
-3.77388e-07
-2.49949e-07
-3.25113e-07
-2.38684e-07
-2.75251e-07
-2.24877e-07
-2.28286e-07
-2.08767e-07
-1.84649e-07
-1.90641e-07
-1.44716e-07
-1.70829e-07
-1.08793e-07
-1.49693e-07
-7.71169e-08
-1.27628e-07
-4.98403e-08
-1.05056e-07
-2.70328e-08
-8.24187e-08
-8.67459e-09
-6.01757e-08
5.34612e-09
-3.88019e-08
1.52349e-08
-1.8786e-08
2.12917e-08
-6.30392e-10
2.39118e-08
1.51478e-08
2.35852e-08
2.80153e-08
2.08978e-08
3.74213e-08
1.65338e-08
4.27967e-08
1.12822e-08
4.35552e-08
6.04929e-09
3.90959e-08
1.8797e-09
2.88063e-08
1.20247e-08
-2.0618e-09
3.11432e-09
-8.22726e-09
1.49004e-08
-1.8412e-08
3.01873e-08
-3.24793e-08
4.74862e-08
-5.02536e-08
6.57238e-08
-7.15325e-08
8.41033e-08
-9.60981e-08
1.02061e-07
-1.23726e-07
1.19227e-07
-1.54194e-07
1.3538e-07
-1.87285e-07
1.5041e-07
-2.22792e-07
1.64286e-07
-2.60516e-07
1.77027e-07
-3.00269e-07
1.88676e-07
-3.41869e-07
1.99288e-07
-3.85137e-07
2.08909e-07
-4.29894e-07
2.17572e-07
-4.75958e-07
2.25288e-07
-5.23137e-07
2.32045e-07
-5.71228e-07
2.37805e-07
-6.20012e-07
2.42508e-07
-6.69255e-07
2.46073e-07
-7.18704e-07
2.48403e-07
-7.68085e-07
2.49392e-07
-8.17109e-07
2.48925e-07
-8.65466e-07
2.46886e-07
-9.12831e-07
2.43163e-07
-9.58865e-07
2.37653e-07
-1.00322e-06
2.30266e-07
-1.04554e-06
2.20927e-07
-1.08547e-06
2.09584e-07
-1.12265e-06
1.96206e-07
-1.15672e-06
1.80791e-07
-1.18736e-06
1.63364e-07
-1.21423e-06
1.43981e-07
-1.23702e-06
1.22729e-07
-1.25546e-06
9.97266e-08
-1.2693e-06
7.51267e-08
-1.27831e-06
4.91125e-08
-1.28231e-06
2.18984e-08
-1.28116e-06
-6.27156e-09
-1.27476e-06
-3.51267e-08
-1.26306e-06
-6.43709e-08
-1.24606e-06
-9.36876e-08
-1.2238e-06
-1.22743e-07
-1.19641e-06
-1.51189e-07
-1.16402e-06
-1.78671e-07
-1.12686e-06
-2.04832e-07
-1.0852e-06
-2.29318e-07
-1.03935e-06
-2.51784e-07
-9.8971e-07
-2.71905e-07
-9.36693e-07
-2.89375e-07
-8.80778e-07
-3.03922e-07
-8.22482e-07
-3.15307e-07
-7.6236e-07
-3.23339e-07
-7.00995e-07
-3.27873e-07
-6.38995e-07
-3.28819e-07
-5.76979e-07
-3.26146e-07
-5.15571e-07
-3.19885e-07
-4.5539e-07
-3.1013e-07
-3.97038e-07
-2.97037e-07
-3.41087e-07
-2.80827e-07
-2.88073e-07
-2.6178e-07
-2.38482e-07
-2.40232e-07
-1.92741e-07
-2.16571e-07
-1.51205e-07
-1.91228e-07
-1.14157e-07
-1.64677e-07
-8.1791e-08
-1.37422e-07
-5.42141e-08
-1.09996e-07
-3.14369e-08
-8.29529e-08
-1.33724e-08
-5.68664e-08
1.66551e-10
-3.2325e-08
9.46817e-09
-9.93201e-09
1.49218e-08
9.69414e-09
1.70184e-08
2.59188e-08
1.63505e-08
3.80891e-08
1.36152e-08
4.55321e-08
9.6186e-09
4.75518e-08
5.28554e-09
4.3429e-08
1.67367e-09
3.24182e-08
1.36983e-08
-2.62693e-09
5.74124e-09
-1.02759e-08
2.25494e-08
-2.26806e-08
4.2592e-08
-3.95521e-08
6.43576e-08
-6.05902e-08
8.67618e-08
-8.54928e-08
1.09006e-07
-1.13964e-07
1.30533e-07
-1.45721e-07
1.50984e-07
-1.80496e-07
1.70154e-07
-2.18039e-07
1.87953e-07
-2.58118e-07
2.04366e-07
-3.00517e-07
2.19426e-07
-3.45034e-07
2.33192e-07
-3.91472e-07
2.45726e-07
-4.39641e-07
2.57078e-07
-4.89349e-07
2.6728e-07
-5.40399e-07
2.76338e-07
-5.92585e-07
2.8423e-07
-6.45684e-07
2.90904e-07
-6.99461e-07
2.96284e-07
-7.53658e-07
3.0027e-07
-8.08002e-07
3.02747e-07
-8.62196e-07
3.03587e-07
-9.15926e-07
3.02656e-07
-9.68861e-07
2.99821e-07
-1.02065e-06
2.94955e-07
-1.07094e-06
2.87942e-07
-1.11936e-06
2.78682e-07
-1.16553e-06
2.67096e-07
-1.20907e-06
2.5313e-07
-1.24962e-06
2.36756e-07
-1.28681e-06
2.1798e-07
-1.32029e-06
1.96838e-07
-1.34971e-06
1.73403e-07
-1.37476e-06
1.47782e-07
-1.39516e-06
1.20121e-07
-1.41063e-06
9.05993e-08
-1.42095e-06
5.9435e-08
-1.42593e-06
2.68792e-08
-1.42542e-06
-6.78386e-09
-1.41931e-06
-4.12396e-08
-1.40753e-06
-7.61453e-08
-1.39009e-06
-1.11135e-07
-1.36701e-06
-1.45821e-07
-1.33839e-06
-1.79804e-07
-1.30439e-06
-2.12673e-07
-1.26521e-06
-2.44012e-07
-1.22111e-06
-2.73412e-07
-1.17243e-06
-3.0047e-07
-1.11953e-06
-3.24803e-07
-1.06285e-06
-3.46053e-07
-1.00288e-06
-3.63894e-07
-9.40144e-07
-3.78042e-07
-8.75221e-07
-3.88262e-07
-8.08721e-07
-3.94373e-07
-7.41282e-07
-3.96258e-07
-6.73562e-07
-3.93866e-07
-6.06229e-07
-3.87218e-07
-5.3995e-07
-3.76409e-07
-4.75378e-07
-3.61609e-07
-4.13141e-07
-3.43064e-07
-3.53832e-07
-3.21089e-07
-2.97995e-07
-2.9607e-07
-2.46112e-07
-2.68453e-07
-1.98598e-07
-2.38742e-07
-1.55785e-07
-2.0749e-07
-1.17918e-07
-1.75289e-07
-8.51448e-08
-1.42769e-07
-5.7515e-08
-1.10583e-07
-3.49729e-08
-7.94086e-08
-1.73561e-08
-4.99418e-08
-4.39471e-09
-2.28933e-08
4.28904e-09
1.01039e-09
9.18077e-09
2.1027e-08
1.08739e-08
3.6396e-08
1.00707e-08
4.63352e-08
7.58595e-09
5.00366e-08
4.35155e-09
4.66634e-08
1.42453e-09
3.53452e-08
1.51229e-08
-3.2008e-09
8.94202e-09
-1.23611e-08
3.17097e-08
-2.70306e-08
5.72615e-08
-4.67637e-08
8.40907e-08
-7.11301e-08
1.11128e-07
-9.97228e-08
1.37599e-07
-1.32163e-07
1.62973e-07
-1.68104e-07
1.86924e-07
-2.07229e-07
2.0928e-07
-2.49254e-07
2.29978e-07
-2.93921e-07
2.49032e-07
-3.40993e-07
2.66499e-07
-3.90253e-07
2.82452e-07
-4.41493e-07
2.96966e-07
-4.94511e-07
3.10096e-07
-5.49104e-07
3.21872e-07
-6.0506e-07
3.32295e-07
-6.6216e-07
3.4133e-07
-7.20167e-07
3.48911e-07
-7.78827e-07
3.54944e-07
-8.37866e-07
3.59309e-07
-8.9699e-07
3.61871e-07
-9.55884e-07
3.62481e-07
-1.01422e-06
3.60986e-07
-1.07163e-06
3.57237e-07
-1.12777e-06
3.51091e-07
-1.18224e-06
3.4242e-07
-1.23468e-06
3.31116e-07
-1.28468e-06
3.17097e-07
-1.33186e-06
3.00308e-07
-1.37583e-06
2.80726e-07
-1.41621e-06
2.58364e-07
-1.45265e-06
2.33273e-07
-1.48479e-06
2.05542e-07
-1.5123e-06
1.75299e-07
-1.5349e-06
1.42714e-07
-1.5523e-06
1.07998e-07
-1.56426e-06
7.13984e-08
-1.57058e-06
3.3204e-08
-1.57111e-06
-6.26184e-09
-1.5657e-06
-4.66422e-08
-1.5543e-06
-8.75483e-08
-1.53687e-06
-1.28565e-07
-1.51344e-06
-1.69255e-07
-1.48408e-06
-2.09163e-07
-1.44893e-06
-2.47821e-07
-1.40818e-06
-2.84758e-07
-1.36209e-06
-3.19502e-07
-1.31097e-06
-3.51593e-07
-1.25519e-06
-3.80586e-07
-1.19518e-06
-4.06063e-07
-1.13143e-06
-4.27644e-07
-1.06448e-06
-4.4499e-07
-9.94926e-07
-4.57817e-07
-9.23397e-07
-4.65902e-07
-8.50564e-07
-4.69091e-07
-7.77122e-07
-4.67308e-07
-7.03781e-07
-4.60558e-07
-6.3126e-07
-4.4893e-07
-5.60266e-07
-4.32604e-07
-4.91488e-07
-4.11842e-07
-4.2558e-07
-3.86997e-07
-3.63151e-07
-3.58499e-07
-3.04747e-07
-3.26856e-07
-2.50845e-07
-2.92644e-07
-2.01837e-07
-2.56497e-07
-1.58024e-07
-2.19102e-07
-1.19606e-07
-1.81187e-07
-8.66759e-08
-1.43513e-07
-5.92166e-08
-1.06868e-07
-3.70972e-08
-7.20612e-08
-2.00718e-08
-3.99188e-08
-7.77965e-09
-1.12817e-08
2.54234e-10
1.29932e-08
4.61863e-09
3.20316e-08
6.01564e-09
4.49382e-08
5.26156e-09
5.07906e-08
3.28822e-09
4.86367e-08
1.14459e-09
3.74888e-08
1.62675e-08
-3.77934e-09
1.27213e-08
-1.44654e-08
4.23958e-08
-3.14225e-08
7.42186e-08
-5.40458e-08
1.06714e-07
-8.17717e-08
1.38854e-07
-1.14085e-07
1.69912e-07
-1.5052e-07
1.99408e-07
-1.90663e-07
2.27067e-07
-2.34148e-07
2.52765e-07
-2.80652e-07
2.76483e-07
-3.29891e-07
2.98271e-07
-3.81608e-07
3.18216e-07
-4.3557e-07
3.36414e-07
-4.91557e-07
3.52953e-07
-5.49356e-07
3.67895e-07
-6.08753e-07
3.81269e-07
-6.69527e-07
3.93069e-07
-7.31444e-07
4.03247e-07
-7.94256e-07
4.11722e-07
-8.57693e-07
4.18381e-07
-9.21466e-07
4.23083e-07
-9.85266e-07
4.25671e-07
-1.04876e-06
4.25977e-07
-1.11161e-06
4.23829e-07
-1.17343e-06
4.1906e-07
-1.23385e-06
4.11513e-07
-1.29248e-06
4.01051e-07
-1.34892e-06
3.87559e-07
-1.40278e-06
3.7095e-07
-1.45364e-06
3.51171e-07
-1.50112e-06
3.28204e-07
-1.54482e-06
3.02072e-07
-1.58439e-06
2.72838e-07
-1.61945e-06
2.40607e-07
-1.64968e-06
2.05529e-07
-1.67477e-06
1.67798e-07
-1.69442e-06
1.27652e-07
-1.70839e-06
8.53693e-08
-1.71646e-06
4.12728e-08
-1.71845e-06
-4.27598e-09
-1.71421e-06
-5.08807e-08
-1.70365e-06
-9.81074e-08
-1.68672e-06
-1.45494e-07
-1.66342e-06
-1.92553e-07
-1.63381e-06
-2.38774e-07
-1.598e-06
-2.83635e-07
-1.55615e-06
-3.26604e-07
-1.50851e-06
-3.67148e-07
-1.45535e-06
-4.04744e-07
-1.39706e-06
-4.38882e-07
-1.33404e-06
-4.69083e-07
-1.26678e-06
-4.94901e-07
-1.19583e-06
-5.15938e-07
-1.1218e-06
-5.31852e-07
-1.04533e-06
-5.42371e-07
-9.67122e-07
-5.47298e-07
-8.8791e-07
-5.46521e-07
-8.08448e-07
-5.40019e-07
-7.29507e-07
-5.27872e-07
-6.51852e-07
-5.10258e-07
-5.76238e-07
-4.87456e-07
-5.03388e-07
-4.59847e-07
-4.33981e-07
-4.27907e-07
-3.68635e-07
-3.92202e-07
-3.07899e-07
-3.53381e-07
-2.52233e-07
-3.12163e-07
-2.02002e-07
-2.69333e-07
-1.57466e-07
-2.25723e-07
-1.18771e-07
-1.82208e-07
-8.59444e-08
-1.39694e-07
-5.88937e-08
-9.91119e-08
-3.74032e-08
-6.14093e-08
-2.11345e-08
-2.75504e-08
-9.62788e-09
1.48657e-09
-2.30394e-09
2.47077e-08
1.53477e-09
4.10995e-08
2.70193e-09
4.96235e-08
2.12488e-09
4.92138e-08
8.42424e-10
3.87713e-08
1.71099e-08
-4.35868e-09
1.708e-08
-1.65727e-08
5.46098e-08
-3.58203e-08
9.34662e-08
-6.13361e-08
1.3223e-07
-9.24219e-08
1.6994e-07
-1.28452e-07
2.05941e-07
-1.68872e-07
2.39829e-07
-2.13201e-07
2.71397e-07
-2.61021e-07
3.00585e-07
-3.11971e-07
3.27432e-07
-3.65737e-07
3.52037e-07
-4.22044e-07
3.74522e-07
-4.80641e-07
3.95012e-07
-5.41299e-07
4.13611e-07
-6.03794e-07
4.30389e-07
-6.67901e-07
4.45377e-07
-7.33391e-07
4.58559e-07
-8.0002e-07
4.69876e-07
-8.67528e-07
4.7923e-07
-9.35633e-07
4.86486e-07
-1.00404e-06
4.91485e-07
-1.07241e-06
4.94048e-07
-1.14042e-06
4.93985e-07
-1.2077e-06
4.91107e-07
-1.27387e-06
4.85229e-07
-1.33854e-06
4.76184e-07
-1.40131e-06
4.63822e-07
-1.46177e-06
4.48024e-07
-1.51952e-06
4.287e-07
-1.57415e-06
4.05798e-07
-1.62526e-06
3.79308e-07
-1.67244e-06
3.49259e-07
-1.71533e-06
3.15728e-07
-1.75356e-06
2.78835e-07
-1.78678e-06
2.38751e-07
-1.81468e-06
1.9569e-07
-1.83694e-06
1.49916e-07
-1.85331e-06
1.01737e-07
-1.86354e-06
5.15066e-08
-1.86744e-06
-3.77355e-10
-1.86484e-06
-5.34845e-08
-1.85561e-06
-1.07335e-07
-1.83968e-06
-1.61422e-07
-1.81702e-06
-2.1521e-07
-1.78766e-06
-2.68137e-07
-1.75167e-06
-3.19622e-07
-1.7092e-06
-3.69075e-07
-1.66045e-06
-4.15898e-07
-1.60569e-06
-4.59503e-07
-1.54526e-06
-4.99313e-07
-1.47957e-06
-5.34777e-07
-1.40909e-06
-5.65382e-07
-1.33437e-06
-5.90661e-07
-1.25601e-06
-6.10208e-07
-1.17469e-06
-6.2369e-07
-1.09113e-06
-6.30857e-07
-1.0061e-06
-6.31553e-07
-9.20397e-07
-6.25722e-07
-8.34846e-07
-6.13423e-07
-7.50278e-07
-5.94826e-07
-6.67515e-07
-5.70218e-07
-5.87357e-07
-5.40005e-07
-5.1056e-07
-5.04703e-07
-4.37826e-07
-4.64936e-07
-3.69781e-07
-4.21425e-07
-3.06966e-07
-3.74978e-07
-2.4982e-07
-3.26479e-07
-1.98671e-07
-2.76873e-07
-1.53726e-07
-2.27153e-07
-1.15068e-07
-1.78353e-07
-8.26485e-08
-1.31531e-07
-5.62886e-08
-8.77692e-08
-3.56779e-08
-4.81612e-08
-2.03766e-08
-1.38147e-08
-9.81839e-09
1.41495e-08
-3.31403e-09
3.45951e-08
-5.52528e-11
4.63647e-08
8.81209e-10
4.82773e-08
5.23675e-10
3.91288e-08
1.76336e-08
-4.93484e-09
2.20149e-08
-1.86671e-08
6.83421e-08
-4.01892e-08
1.14988e-07
-6.85754e-08
1.60616e-07
-1.02992e-07
2.04357e-07
-1.42704e-07
2.45652e-07
-1.87068e-07
2.84193e-07
-2.35533e-07
3.19862e-07
-2.87631e-07
3.52682e-07
-3.42959e-07
3.82761e-07
-4.01178e-07
4.10256e-07
-4.6199e-07
4.35334e-07
-5.25133e-07
4.58155e-07
-5.90363e-07
4.78841e-07
-6.57447e-07
4.97474e-07
-7.26155e-07
5.14084e-07
-7.96246e-07
5.2865e-07
-8.6747e-07
5.411e-07
-9.39556e-07
5.51316e-07
-1.01222e-06
5.59146e-07
-1.08514e-06
5.64408e-07
-1.15799e-06
5.66901e-07
-1.23042e-06
5.66417e-07
-1.30206e-06
5.62747e-07
-1.37253e-06
5.55693e-07
-1.44142e-06
5.45073e-07
-1.50832e-06
5.3073e-07
-1.57284e-06
5.12538e-07
-1.63455e-06
4.90407e-07
-1.69303e-06
4.64286e-07
-1.7479e-06
4.3417e-07
-1.79873e-06
4.00097e-07
-1.84516e-06
3.62154e-07
-1.8868e-06
3.20477e-07
-1.9233e-06
2.75253e-07
-1.95433e-06
2.26717e-07
-1.97957e-06
1.75154e-07
-1.99873e-06
1.20898e-07
-2.01155e-06
6.43323e-08
-2.01782e-06
5.88378e-09
-2.01732e-06
-5.39774e-08
-2.00992e-06
-1.14737e-07
-1.9955e-06
-1.75845e-07
-1.97399e-06
-2.36716e-07
-1.94539e-06
-2.96739e-07
-1.90973e-06
-3.55277e-07
-1.86713e-06
-4.11678e-07
-1.81775e-06
-4.65281e-07
-1.76182e-06
-5.15428e-07
-1.69967e-06
-5.6147e-07
-1.63166e-06
-6.02782e-07
-1.55827e-06
-6.38774e-07
-1.48002e-06
-6.68905e-07
-1.39754e-06
-6.92693e-07
-1.31149e-06
-7.09736e-07
-1.22263e-06
-7.19719e-07
-1.13176e-06
-7.22428e-07
-1.03971e-06
-7.17767e-07
-9.47378e-07
-7.05757e-07
-8.55652e-07
-6.86552e-07
-7.6543e-07
-6.6044e-07
-6.77594e-07
-6.27841e-07
-5.92989e-07
-5.89309e-07
-5.12406e-07
-5.4552e-07
-4.36562e-07
-4.97268e-07
-3.66088e-07
-4.45452e-07
-3.01508e-07
-3.91059e-07
-2.43229e-07
-3.35151e-07
-1.91532e-07
-2.7885e-07
-1.46562e-07
-2.23323e-07
-1.08323e-07
-1.6977e-07
-7.66812e-08
-1.19411e-07
-5.13593e-08
-7.3483e-08
-3.19425e-08
-3.32316e-08
-1.78811e-08
8.81334e-11
-8.4961e-09
2.52102e-08
-2.98514e-09
4.08537e-08
-4.30605e-10
4.57228e-08
1.9172e-10
3.85065e-08
1.78253e-08
-5.50361e-09
2.75185e-08
-2.07326e-08
8.35711e-08
-4.44947e-08
1.3875e-07
-7.57053e-08
1.91827e-07
-1.13397e-07
2.42049e-07
-1.56725e-07
2.88979e-07
-2.04958e-07
3.32426e-07
-2.57478e-07
3.72382e-07
-3.13762e-07
4.08967e-07
-3.73373e-07
4.42372e-07
-4.35941e-07
4.72823e-07
-5.01149e-07
5.00542e-07
-5.68719e-07
5.25725e-07
-6.38398e-07
5.4852e-07
-7.09946e-07
5.69022e-07
-7.83123e-07
5.87261e-07
-8.57684e-07
6.03211e-07
-9.33371e-07
6.16786e-07
-1.00991e-06
6.27852e-07
-1.087e-06
6.36236e-07
-1.16432e-06
6.41734e-07
-1.24155e-06
6.44125e-07
-1.31831e-06
6.43181e-07
-1.39424e-06
6.38677e-07
-1.46894e-06
6.30397e-07
-1.54202e-06
6.18151e-07
-1.61306e-06
6.01771e-07
-1.68165e-06
5.81129e-07
-1.74738e-06
5.56131e-07
-1.80982e-06
5.26729e-07
-1.86857e-06
4.9292e-07
-1.92323e-06
4.54752e-07
-1.97339e-06
4.12321e-07
-2.01869e-06
3.65775e-07
-2.05875e-06
3.15315e-07
-2.09323e-06
2.61194e-07
-2.12179e-06
2.03715e-07
-2.14413e-06
1.43236e-07
-2.15996e-06
8.01631e-08
-2.16903e-06
1.49518e-08
-2.17111e-06
-5.1895e-08
-2.16602e-06
-1.19829e-07
-2.1536e-06
-1.8826e-07
-2.13376e-06
-2.56558e-07
-2.10644e-06
-3.24063e-07
-2.07163e-06
-3.90082e-07
-2.02941e-06
-4.53903e-07
-1.97989e-06
-5.148e-07
-1.92327e-06
-5.72044e-07
-1.85984e-06
-6.24909e-07
-1.78993e-06
-6.72691e-07
-1.71398e-06
-7.14718e-07
-1.63253e-06
-7.50362e-07
-1.54616e-06
-7.79062e-07
-1.45556e-06
-8.00331e-07
-1.3615e-06