/*--------------------------------*- C++ -*----------------------------------*\
  =========                 |
  \\      /  F ield         | OpenFOAM: The Open Source CFD Toolbox
   \\    /   O peration     | Website:  https://openfoam.org
    \\  /    A nd           | Version:  7
     \\/     M anipulation  |
\*---------------------------------------------------------------------------*/
FoamFile
{
    version     2.0;
    format      ascii;
    class       volScalarField;
    location    "0.225";
    object      p;
}
// * * * * * * * * * * * * * * * * * * * * * * * * * * * * * * * * * * * * * //

dimensions      [0 2 -2 0 0 0 0];

internalField   nonuniform List<scalar> 
6400
(
-2.28558e-09
-1.7687e-05
-7.81619e-05
-0.000171659
-0.000285299
-0.000410495
-0.00053996
-0.000667689
-0.000788787
-0.00089937
-0.000996445
-0.00107777
-0.00114169
-0.00118699
-0.0012128
-0.00121852
-0.00120379
-0.00116846
-0.0011125
-0.001036
-0.000939145
-0.000822167
-0.000685358
-0.00052905
-0.000353626
-0.000159519
5.28072e-05
0.00028285
0.000530057
0.000793822
0.00107349
0.00136834
0.00167757
0.00200029
0.0023355
0.00268215
0.00303908
0.00340503
0.00377862
0.00415833
0.00454259
0.00492969
0.00531786
0.00570523
0.00608987
0.00646973
0.00684273
0.00720675
0.00755969
0.00789942
0.00822391
0.00853112
0.00881913
0.00908611
0.00933038
0.00955041
0.00974488
0.00991271
0.010053
0.0101653
0.0102493
0.0103049
0.0103326
0.0103331
0.0103074
0.010257
0.0101836
0.0100895
0.00997739
0.00985023
0.00971154
0.00956535
0.00941618
0.00926916
0.0091302
0.00900579
0.0089031
0.00882977
0.00879374
0.00879489
2.58341e-06
-1.43812e-05
-6.50654e-05
-0.000141642
-0.000234918
-0.000338108
-0.0004454
-0.00055178
-0.000653033
-0.000745656
-0.000826823
-0.000894321
-0.00094644
-0.000981895
-0.00099974
-0.000999287
-0.000980069
-0.000941813
-0.00088439
-0.000807782
-0.000712084
-0.00059747
-0.000464157
-0.000312411
-0.000142567
4.49851e-05
0.000249818
0.00047146
0.000709382
0.000962999
0.00123167
0.0015147
0.00181131
0.00212061
0.00244166
0.00277341
0.00311476
0.00346447
0.00382121
0.00418355
0.00454995
0.00491882
0.00528846
0.00565712
0.00602296
0.00638407
0.0067385
0.00708426
0.0074194
0.00774198
0.00805008
0.00834187
0.00861556
0.0088695
0.00910215
0.00931214
0.0094983
0.00965967
0.00979553
0.00990542
0.00998914
0.0100468
0.0100788
0.0100858
0.010069
0.0100298
0.00996976
0.00989118
0.0097965
0.00968859
0.00957071
0.00944654
0.00932016
0.0091961
0.00907934
0.00897522
0.00888918
0.00882674
0.00879469
0.00879598
4.16148e-05
1.95552e-05
-2.84534e-05
-9.68991e-05
-0.000178975
-0.000269145
-0.000362515
-0.000454839
-0.00054249
-0.000622404
-0.000692022
-0.000749261
-0.000792466
-0.000820358
-0.000831978
-0.00082662
-0.000803773
-0.0007631
-0.000704412
-0.000627636
-0.000532802
-0.000420026
-0.000289475
-0.000141374
2.39792e-05
0.000206229
0.000404984
0.000619804
0.00085019
0.00109558
0.00135535
0.00162883
0.00191524
0.00221375
0.00252344
0.00284329
0.00317221
0.00350903
0.00385246
0.0042011
0.0045535
0.00490812
0.00526334
0.00561749
0.00596881
0.00631548
0.00665565
0.00698745
0.00730903
0.00761855
0.00791424
0.00819435
0.00845723
0.00870133
0.00892522
0.00912765
0.00930753
0.00946401
0.00959644
0.00970444
0.00978786
0.00984685
0.00988184
0.00989357
0.00988308
0.00985174
0.00980124
0.00973361
0.00965121
0.00955674
0.00945321
0.00934399
0.00923276
0.00912353
0.00902059
0.00892842
0.00885144
0.00879409
0.00876235
0.00876023
0.000116351
8.09622e-05
2.81623e-05
-3.90777e-05
-0.000116742
-0.000200314
-0.000285677
-0.00036923
-0.000447862
-0.000518929
-0.000580192
-0.000629781
-0.000666181
-0.000688194
-0.000694894
-0.000685585
-0.000659759
-0.000617069
-0.000557301
-0.000480351
-0.000386212
-0.000274958
-0.000146718
-1.68181e-06
0.000159879
0.000337636
0.00053123
0.000740258
0.000964251
0.00120267
0.00145491
0.00172031
0.00199815
0.00228762
0.00258781
0.00289776
0.0032164
0.0035426
0.0038751
0.00421257
0.0045536
0.0048967
0.00524033
0.00558287
0.00592262
0.00625785
0.00658677
0.00690761
0.00721857
0.00751793
0.00780397
0.00807503
0.00832955
0.00856606
0.0087832
0.00897978
0.0091548
0.00930746
0.00943717
0.00954357
0.00962659
0.00968638
0.00972338
0.00973834
0.00973226
0.00970648
0.00966262
0.00960261
0.00952869
0.00944336
0.00934945
0.00925001
0.00914838
0.0090481
0.0089529
0.00886663
0.00879304
0.00873591
0.00869978
0.0086878
0.000217024
0.000162252
9.95627e-05
2.90589e-05
-4.83066e-05
-0.000129013
-0.000209698
-0.000287447
-0.000359674
-0.00042412
-0.000478867
-0.000522307
-0.000553109
-0.000570193
-0.000572712
-0.000560014
-0.000531609
-0.000487164
-0.000426465
-0.000349392
-0.000255915
-0.000146078
-1.99843e-05
0.000122201
0.000280236
0.000453822
0.000642634
0.000846301
0.00106438
0.00129635
0.00154164
0.00179962
0.00206961
0.00235081
0.00264237
0.00294334
0.0032527
0.00356934
0.00389207
0.00421959
0.00455054
0.00488349
0.00521695
0.00554935
0.00587905
0.00620438
0.00652362
0.00683504
0.00713695
0.00742765
0.0077055
0.00796891
0.00821638
0.00844647
0.00865791
0.00884956
0.00902046
0.00916984
0.00929716
0.0094021
0.0094846
0.00954484
0.00958326
0.00960058
0.00959778
0.00957616
0.00953726
0.00948292
0.00941524
0.00933658
0.00924952
0.00915686
0.00906159
0.00896686
0.00887588
0.00879193
0.00871822
0.00865792
0.0086136
0.00858662
0.000333506
0.000256422
0.000180715
0.000103708
2.33654e-05
-5.75795e-05
-0.000136423
-0.000210914
-0.000279001
-0.000338827
-0.000388786
-0.000427526
-0.000453919
-0.000467036
-0.000466136
-0.000450634
-0.000420093
-0.000374207
-0.000312774
-0.00023567
-0.000142853
-3.43552e-05
8.97362e-05
0.000229276
0.00038405
0.000553793
0.000738211
0.00093696
0.00114962
0.0013757
0.00161466
0.00186591
0.00212879
0.00240256
0.00268637
0.00297933
0.00328043
0.00358863
0.00390277
0.00422159
0.00454379
0.00486797
0.00519269
0.00551643
0.0058376
0.00615457
0.00646569
0.00676926
0.00706364
0.00734719
0.0076183
0.00787544
0.00811713
0.00834199
0.00854878
0.00873638
0.00890388
0.00905053
0.00917582
0.00927944
0.00936134
0.00942171
0.00946098
0.00947984
0.00947927
0.00946048
0.00942497
0.00937448
0.00931099
0.00923669
0.00915396
0.00906537
0.0089736
0.00888143
0.00879164
0.00870698
0.00863025
0.00856407
0.00850882
0.00846382
0.000457867
0.000357296
0.000266742
0.00018098
9.51872e-05
1.14937e-05
-6.79195e-05
-0.000141386
-0.000207344
-0.000264341
-0.000311096
-0.000346509
-0.000369653
-0.000379761
-0.000376212
-0.000358519
-0.000326311
-0.000279327
-0.000217383
-0.000140366
-4.82357e-05
5.89772e-05
0.000181196
0.000318294
0.00047008
0.000636319
0.000816743
0.00101103
0.0012188
0.00143957
0.00167285
0.0019181
0.00217467
0.00244187
0.00271887
0.00300481
0.00329875
0.00359966
0.00390643
0.00421786
0.00453266
0.00484949
0.00516694
0.00548353
0.00579772
0.00610791
0.00641248
0.00670978
0.00699819
0.0072761
0.00754193
0.00779418
0.00803138
0.0082522
0.00845538
0.00863986
0.0088047
0.00894919
0.00907281
0.00917528
0.00925653
0.00931675
0.00935636
0.00937603
0.00937668
0.0093595
0.0093259
0.00927756
0.00921632
0.00914424
0.00906354
0.00897654
0.00888568
0.00879342
0.00870216
0.00861425
0.00853212
0.00845796
0.00839001
0.00832558
0.000583777
0.000459524
0.000353136
0.00025716
0.000164204
7.59076e-05
-5.95128e-06
-8.01967e-05
-0.000145706
-0.000201402
-0.000246317
-0.000279602
-0.000300534
-0.000308509
-0.000303042
-0.00028375
-0.000250338
-0.000202593
-0.00014037
-6.35764e-05
2.78149e-05
0.000133771
0.000254222
0.000389057
0.000538106
0.000701153
0.000877956
0.00106822
0.00127159
0.00148763
0.00171587
0.0019558
0.00220684
0.00246829
0.00273938
0.00301929
0.00330711
0.00360185
0.00390243
0.0042077
0.00451642
0.00482726
0.00513885
0.00544975
0.00575844
0.00606336
0.00636289
0.00665542
0.00693934
0.00721305
0.00747501
0.00772369
0.00795765
0.00817555
0.00837616
0.00855838
0.00872129
0.00886419
0.00898653
0.00908805
0.00916865
0.00922851
0.00926802
0.00928783
0.00928884
0.00927217
0.00923919
0.00919147
0.00913079
0.00905906
0.00897835
0.00889082
0.00879866
0.00870407
0.00860918
0.00851597
0.00842659
0.00834295
0.00826128
0.00817706
0.000706097
0.000558548
0.000435935
0.000328833
0.000227543
0.000133318
4.76127e-05
-2.88243e-05
-9.52533e-05
-0.000150927
-0.000195164
-0.00022736
-0.000246991
-0.000253622
-0.000246907
-0.000226569
-0.00019239
-0.000144218
-8.1951e-05
-5.52806e-06
8.50589e-05
0.00018977
0.00030854
0.000441268
0.000587802
0.000747947
0.00092148
0.00110813
0.00130758
0.00151942
0.00174323
0.00197853
0.00222476
0.00248127
0.00274733
0.00302215
0.00330485
0.00359449
0.00389003
0.00419036
0.00449424
0.00480041
0.00510751
0.00541412
0.00571873
0.00601981
0.00631577
0.00660498
0.00688584
0.00715675
0.00741617
0.00766256
0.00789449
0.00811059
0.0083096
0.00849044
0.00865216
0.00879403
0.00891552
0.00901631
0.0090963
0.00915565
0.00919471
0.00921412
0.00921473
0.00919762
0.00916411
0.0091157
0.00905407
0.00898106
0.00889859
0.00880867
0.00871333
0.00861457
0.00851425
0.00841409
0.00831609
0.00822193
0.00812604
0.0080223
0.000820565
0.000650463
0.000511644
0.000392915
0.000282511
0.000181417
9.08228e-05
1.1104e-05
-5.73349e-05
-0.000114036
-0.000158572
-0.000190568
-0.000209699
-0.000215692
-0.000208334
-0.000187454
-0.000152917
-0.000104635
-4.25576e-05
3.33427e-05
0.000123052
0.000226519
0.00034368
0.000474441
0.000618665
0.000776174
0.000946766
0.0011302
0.00132618
0.00153436
0.00175432
0.00198563
0.00222776
0.00248012
0.002742
0.00301263
0.0032912
0.00357678
0.0038684
0.00416494
0.00446523
0.004768
0.00507193
0.0053756
0.00567753
0.00597618
0.00626997
0.00655727
0.00683646
0.00710594
0.00736414
0.00760951
0.00784058
0.00805597
0.00825439
0.00843472
0.00859599
0.00873744
0.00885851
0.00895885
0.00903834
0.00909709
0.00913545
0.009154
0.00915357
0.0091352
0.00910016
0.00904989
0.00898601
0.00891027
0.00882451
0.00873062
0.00863049
0.00852597
0.00841875
0.00831035
0.00820266
0.00809728
0.00798703
0.00786437
0.000923654
0.000731896
0.000577138
0.000446597
0.000326619
0.000218005
0.000121752
3.79206e-05
-3.33807e-05
-9.19518e-05
-0.000137597
-0.00017015
-0.000189474
-0.000195449
-0.000187986
-0.000167018
-0.000132498
-8.44044e-05
-2.27388e-05
5.24891e-05
0.000141242
0.000243458
0.00035907
0.000487991
0.000630092
0.000785212
0.000953173
0.00113376
0.00132672
0.00153172
0.00174839
0.00197634
0.00221508
0.00246403
0.00272254
0.00298989
0.00326527
0.00354783
0.00383659
0.0041305
0.00442838
0.004729
0.00503104
0.0053331
0.00563371
0.00593131
0.00622431
0.00651108
0.00678997
0.00705936
0.00731764
0.00756324
0.00779464
0.00801041
0.00820924
0.00838996
0.00855155
0.00869323
0.00881437
0.0089146
0.00899375
0.00905191
0.00908938
0.00910672
0.00910471
0.00908438
0.00904693
0.00899378
0.0089265
0.00884678
0.00875639
0.00865714
0.00855084
0.00843922
0.00832386
0.00820615
0.00808798
0.00797088
0.00784631
0.0077055
0.00101245
0.000799953
0.000629658
0.000487315
0.000357538
0.000240988
0.000138529
4.9962e-05
-2.48615e-05
-8.59725e-05
-0.000133388
-0.000167135
-0.000187241
-0.000193731
-0.000186634
-0.000165986
-0.000131823
-8.4193e-05
-2.31474e-05
5.12654e-05
0.000138984
0.000239936
0.00035405
0.00048124
0.000621388
0.000774351
0.000939973
0.00111807
0.00130842
0.00151072
0.00172465
0.00194983
0.00218584
0.00243212
0.00268806
0.00295297
0.0032261
0.00350661
0.00379358
0.00408596
0.00438261
0.00468229
0.00498371
0.00528546
0.00558606
0.00588396
0.00617754
0.00646515
0.0067451
0.00701573
0.00727539
0.00752247
0.00775539
0.00797267
0.00817294
0.00835497
0.0085177
0.00866028
0.00878204
0.00888255
0.00896161
0.00901924
0.00905573
0.0090716
0.00906759
0.0090447
0.0090041
0.00894719
0.0088755
0.00879069
0.00869449
0.00858866
0.00847497
0.00835509
0.00823054
0.00810265
0.00797333
0.00784418
0.00770542
0.0075472
0.00108449
0.000852143
0.000666764
0.000512741
0.000373091
0.000248367
0.000139335
4.55795e-05
-3.32687e-05
-9.74489e-05
-0.000147173
-0.000182637
-0.00020402
-0.000211477
-0.000205155
-0.000185186
-0.000151688
-0.000104772
-4.45403e-05
2.8923e-05
0.000115534
0.000215205
0.00032786
0.000453417
0.000591767
0.000742785
0.000906341
0.00108228
0.0012704
0.00147046
0.00168215
0.00190516
0.00213906
0.00238337
0.00263751
0.00290082
0.00317259
0.00345203
0.00373823
0.00403017
0.00432671
0.00462665
0.00492868
0.00523139
0.00553331
0.00583284
0.00612835
0.00641815
0.00670051
0.00697372
0.00723608
0.0074859
0.00772155
0.00794149
0.00814427
0.00832859
0.00849332
0.00863755
0.00876054
0.0088618
0.00894108
0.00899835
0.00903386
0.00904808
0.00904174
0.00901579
0.00897142
0.00890997
0.00883299
0.0087421
0.00863904
0.00852556
0.00840339
0.00827422
0.00813955
0.00800071
0.00785969
0.00771819
0.00756536
0.00739038
0.00113763
0.000886266
0.000686272
0.000520759
0.000371257
0.000238245
0.000122409
2.31466e-05
-6.01044e-05
-0.000127769
-0.000180231
-0.000217839
-0.000240908
-0.000249718
-0.000244523
-0.000225548
-0.000192987
-0.000147011
-8.77699e-05
-1.53812e-05
7.00479e-05
0.000168418
0.000279647
0.000403655
0.000540346
0.000689615
0.000851357
0.00102545
0.00121171
0.00140995
0.0016199
0.00184127
0.00207368
0.00231669
0.00256975
0.00283227
0.00310356
0.00338286
0.00366928
0.00396183
0.00425939
0.00456075
0.00486459
0.00516953
0.00547405
0.00577654
0.00607533
0.00636867
0.0066548
0.00693195
0.00719833
0.00745219
0.00769184
0.00791562
0.00812202
0.00830966
0.00847733
0.00862402
0.00874893
0.00885149
0.00893138
0.00898854
0.00902315
0.00903565
0.00902674
0.00899735
0.00894866
0.00888201
0.00879894
0.00870111
0.00859024
0.00846812
0.00833651
0.00819711
0.00805147
0.00790096
0.00774771
0.00759357
0.00742673
0.00723549
0.00116994
0.000900338
0.000686196
0.000509425
0.000350153
0.00020882
8.60459e-05
-1.89408e-05
-0.000106875
-0.000178344
-0.000233881
-0.000273975
-0.000299067
-0.000309555
-0.000305791
-0.000288086
-0.000256702
-0.000211871
-0.000153782
-8.25846e-05
1.59187e-06
9.86352e-05
0.000208459
0.000330989
0.000466145
0.000613841
0.000773997
0.000946518
0.00113127
0.00132809
0.00153675
0.00175699
0.00198849
0.00223084
0.00248354
0.00274603
0.00301767
0.00329773
0.00358534
0.00387952
0.00417918
0.0044831
0.00478996
0.00509836
0.00540676
0.00571353
0.00601694
0.00631519
0.00660647
0.00688892
0.00716069
0.00741994
0.00766487
0.00789375
0.00810497
0.00829703
0.00846865
0.00861869
0.00874629
0.00885079
0.00893179
0.00898917
0.00902306
0.00903386
0.00902223
0.00898911
0.00893566
0.00886323
0.00877338
0.0086678
0.00854827
0.00841659
0.00827461
0.00812411
0.00796669
0.00780381
0.00763779
0.00747067
0.00728976
0.00708255
0.00117972
0.000892551
0.000664705
0.000476922
0.000308006
0.000158373
2.85929e-05
-8.22626e-05
-0.000175084
-0.000250596
-0.000309469
-0.000352324
-0.000379721
-0.000392159
-0.000390087
-0.000373892
-0.000343902
-0.000300397
-0.000243607
-0.000173712
-9.08627e-05
4.82098e-06
0.000113251
0.00023436
0.000368084
0.00051436
0.000673134
0.000844346
0.0010279
0.00122366
0.00143144
0.00165104
0.00188216
0.00212445
0.00237746
0.00264067
0.00291346
0.00319514
0.00348487
0.00378168
0.00408448
0.00439207
0.00470312
0.00501621
0.00532977
0.00564212
0.0059515
0.00625606
0.00655388
0.00684305
0.00712161
0.00738763
0.00763921
0.00787451
0.0080918
0.00828948
0.00846614
0.00862054
0.0087517
0.00885887
0.00894159
0.00899963
0.00903307
0.00904229
0.00902791
0.00899085
0.00893227
0.00885356
0.00875631
0.00864226
0.00851324
0.00837116
0.00821794
0.00805546
0.00788544
0.00770948
0.0075301
0.00734957
0.00715438
0.00693126
0.00116537
0.000861242
0.000620093
0.000421547
0.000243136
8.52557e-05
-5.15582e-05
-0.000168373
-0.00026622
-0.000345953
-0.000408368
-0.000454205
-0.000484136
-0.000498759
-0.000498603
-0.000484128
-0.000455722
-0.000413709
-0.000358357
-0.000289875
-0.00020843
-0.000114147
-7.11293e-06
0.000112614
0.000244988
0.000389971
0.000547538
0.000717663
0.000900287
0.00109531
0.00130261
0.001522
0.00175325
0.00199604
0.00224998
0.00251458
0.00278929
0.00307341
0.00336614
0.00366654
0.00397351
0.00428585
0.00460224
0.00492122
0.0052412
0.00556046
0.00587718
0.00618942
0.00649522
0.00679256
0.00707937
0.00735363
0.00761329
0.00785642
0.00808114
0.00828572
0.00846862
0.00862848
0.00876419
0.0088749
0.00896002
0.00901928
0.00905268
0.00906054
0.00904345
0.00900234
0.00893836
0.00885296
0.00874775
0.00862455
0.00848528
0.00833196
0.00816662
0.0079913
0.00780785
0.00761803
0.00742461
0.00723013
0.00702029
0.00678106
0.00112546
0.000804871
0.000550767
0.000341692
0.000153936
-1.21217e-05
-0.000155966
-0.000278791
-0.000381757
-0.000465842
-0.000531959
-0.000580961
-0.000613621
-0.000630625
-0.000632582
-0.000620014
-0.000593363
-0.000552998
-0.000499221
-0.000432264
-0.000352307
-0.000259478
-0.000153861
-3.55002e-05
9.55774e-05
0.000239363
0.000395865
0.000565087
0.000747014
0.000941588
0.00114872
0.00136829
0.00160012
0.00184392
0.00209937
0.00236601
0.00264333
0.00293067
0.00322724
0.00353213
0.00384425
0.0041624
0.00448525
0.00481131
0.00513897
0.00546645
0.00579187
0.00611324
0.00642848
0.00673548
0.00703207
0.00731609
0.00758537
0.00783782
0.00807143
0.00828433
0.0084748
0.00864135
0.00878273
0.00889796
0.00898634
0.0090475
0.00908137
0.0090882
0.00906858
0.00902339
0.00895384
0.00886138
0.00874771
0.00861473
0.00846448
0.0082991
0.00812078
0.00793171
0.00773394
0.0075294
0.00732116
0.00711204
0.00688698
0.00663117
0.00105859
0.000721981
0.00045522
0.00023582
3.88615e-05
-0.000135292
-0.000286143
-0.000415001
-0.00052315
-0.000611686
-0.000681635
-0.000733953
-0.000769506
-0.000789065
-0.000793306
-0.000782815
-0.000758082
-0.000719518
-0.000667453
-0.00060214
-0.000523767
-0.000432465
-0.000328308
-0.000211326
-8.15219e-05
6.11251e-05
0.000216656
0.000385115
0.000566523
0.000760874
0.000968128
0.00118821
0.001421
0.00166627
0.00192373
0.00219299
0.00247356
0.00276482
0.00306602
0.00337626
0.00369446
0.00401943
0.00434983
0.00468414
0.00502071
0.00535773
0.00569325
0.00602519
0.00635138
0.00666961
0.00697757
0.00727296
0.00755348
0.00781687
0.00806097
0.00828371
0.00848323
0.00865785
0.00880617
0.00892706
0.0090197
0.0090836
0.00911859
0.00912488
0.009103
0.00905383
0.0089786
0.00887882
0.00875626
0.00861292
0.00845097
0.00827271
0.0080805
0.00787674
0.00766368
0.00744347
0.0072195
0.0069949
0.00675382
0.00648068
0.000963447
0.00061117
0.00033201
0.000102456
-0.000103577
-0.000285742
-0.000443563
-0.000578461
-0.000691838
-0.000784905
-0.000858793
-0.000914555
-0.000953145
-0.00097541
-0.000982095
-0.00097384
-0.000951184
-0.000914574
-0.000864365
-0.000800827
-0.000724154
-0.000634472
-0.000531847
-0.000416291
-0.000287779
-0.000146258
8.34881e-06
0.000176123
0.000357134
0.000551423
0.000759008
0.000979868
0.00121393
0.00146104
0.00172095
0.00199332
0.00227771
0.00257354
0.00288008
0.00319645
0.00352161
0.00385436
0.00419334
0.00453704
0.00488375
0.00523163
0.00557864
0.00592263
0.00626133
0.0065924
0.0069134
0.00722189
0.00751539
0.00779148
0.00804778
0.00828207
0.00849227
0.00867651
0.00883322
0.0089611
0.00905917
0.00912681
0.00916375
0.00917012
0.0091464
0.00909348
0.00901259
0.0089053
0.00877347
0.00861923
0.00844489
0.00825292
0.00804591
0.00782645
0.00759704
0.00736009
0.00711931
0.00687823
0.00662011
0.00632857
0.000838741
0.000471091
0.000179745
-5.98135e-05
-0.000274806
-0.000464905
-0.000629658
-0.000770597
-0.00088924
-0.000986904
-0.00106482
-0.00112414
-0.0011659
-0.00119102
-0.00120029
-0.00119443
-0.00117402
-0.00113952
-0.00109133
-0.00102971
-0.000954878
-0.000866942
-0.000765957
-0.000651916
-0.000524763
-0.000384411
-0.000230745
-6.3641e-05
0.00011702
0.000311336
0.000519383
0.000741199
0.00097677
0.001226
0.00148871
0.0017646
0.00205328
0.00235422
0.00266672
0.00298994
0.00332286
0.00366428
0.00401284
0.00436701
0.00472507
0.00508509
0.005445
0.00580255
0.00615537
0.00650096
0.00683677
0.00716018
0.00746853
0.0077592
0.00802962
0.00827732
0.00850002
0.00869565
0.00886241
0.0089988
0.00910368
0.00917626
0.00921617
0.00922343
0.00919847
0.00914216
0.00905576
0.00894088
0.00879949
0.00863385
0.00844644
0.00823993
0.00801713
0.00778091
0.007534
0.00727909
0.00702029
0.00676149
0.00648508
0.00617375
0.000683235
0.000300441
-2.91737e-06
-0.00025235
-0.000476207
-0.000674175
-0.000845829
-0.000992812
-0.00111676
-0.00121908
-0.00130112
-0.0013641
-0.00140915
-0.00143725
-0.00144928
-0.00144598
-0.00142797
-0.00139577
-0.00134976
-0.00129025
-0.00121742
-0.00113139
-0.0010322
-0.000919816
-0.000794149
-0.000655074
-0.000502437
-0.000336068
-0.000155791
3.85537e-05
0.000247102
0.000469956
0.000707164
0.000958695
0.00122443
0.00150414
0.00179748
0.00210396
0.00242295
0.00275363
0.00309501
0.00344591
0.00380498
0.00417067
0.00454122
0.00491469
0.0052889
0.00566154
0.0060301
0.00639198
0.00674446
0.00708472
0.00740993
0.00771724
0.00800384
0.00826703
0.00850428
0.00871327
0.00889197
0.00903866
0.00915197
0.00923095
0.00927507
0.00928424
0.00925883
0.00919968
0.00910805
0.00898563
0.00883448
0.008657
0.00845587
0.00823398
0.00799439
0.00774024
0.00747456
0.00720035
0.00692213
0.00664419
0.00634795
0.00601511
0.000495718
9.79492e-05
-0.000217285
-0.000476489
-0.000709135
-0.000914925
-0.00109346
-0.0012465
-0.00137578
-0.00148282
-0.00156906
-0.00163581
-0.00168427
-0.0017155
-0.00173044
-0.00172988
-0.00171447
-0.00168475
-0.00164114
-0.00158393
-0.00151332
-0.00142942
-0.00133222
-0.00122169
-0.00109771
-0.000960093
-0.000808656
-0.000643172
-0.000463406
-0.000269134
-6.01515e-05
0.000163708
0.000402561
0.000656448
0.000925318
0.00120901
0.00150724
0.00181959
0.00214546
0.00248409
0.00283452
0.00319562
0.00356603
0.0039442
0.00432836
0.00471651
0.00510642
0.00549568
0.00588168
0.00626167
0.00663275
0.00699194
0.00733616
0.00766233
0.00796739
0.00824837
0.00850246
0.00872706
0.00891986
0.00907889
0.00920254
0.00928964
0.00933949
0.00935186
0.00932704
0.0092658
0.00916942
0.00903964
0.00887863
0.00868896
0.0084735
0.00823539
0.00797795
0.00770464
0.00741881
0.00712379
0.00682454
0.00652583
0.00620795
0.00585151
0.000274998
-0.000137629
-0.000464643
-0.000733545
-0.000974928
-0.00118851
-0.00137392
-0.00153303
-0.00166768
-0.00177951
-0.00187003
-0.00194066
-0.00199267
-0.00202719
-0.00204522
-0.00204758
-0.00203498
-0.00200798
-0.00196699
-0.00191234
-0.0018442
-0.00176267
-0.00166774
-0.00155934
-0.0014373
-0.00130142
-0.00115145
-0.000987099
-0.00080808
-0.000614094
-0.000404868
-0.000180165
6.02051e-05
0.00031636
0.000588327
0.00087602
0.00117923
0.00149759
0.0018306
0.00217753
0.00253748
0.00290935
0.00329182
0.00368335
0.00408214
0.00448617
0.00489314
0.00530056
0.00570571
0.00610568
0.00649741
0.0068777
0.00724324
0.00759069
0.00791671
0.00821802
0.00849151
0.00873426
0.00894364
0.00911739
0.00925361
0.00935088
0.0094083
0.00942546
0.00940252
0.00934019
0.00923975
0.00910299
0.00893218
0.00873005
0.00849969
0.00824452
0.00796815
0.00767436
0.00736688
0.00704937
0.0067273
0.00640594
0.00606433
0.00568185
1.98896e-05
-0.000407525
-0.000746263
-0.00102482
-0.00127491
-0.00149627
-0.00168857
-0.00185377
-0.00199385
-0.00211053
-0.00220544
-0.00228006
-0.00233577
-0.00237375
-0.00239506
-0.00240057
-0.00239101
-0.00236697
-0.00232889
-0.00227708
-0.00221173
-0.0021329
-0.00204058
-0.00193465
-0.00181492
-0.00168114
-0.00153299
-0.00137013
-0.00119221
-0.000998859
-0.00078972
-0.000564482
-0.000322877
-6.47033e-05
0.000210154
0.000501695
0.000809792
0.00113417
0.00147437
0.00182978
0.00219956
0.00258265
0.00297777
0.0033834
0.00379775
0.00421876
0.00464411
0.0050712
0.00549722
0.0059191
0.0063336
0.00673728
0.00712661
0.00749795
0.00784765
0.00817211
0.00846785
0.00873161
0.00896041
0.00915161
0.00930301
0.00941289
0.00948008
0.00950395
0.00948453
0.00942243
0.00931888
0.00917571
0.00899532
0.0087806
0.00853486
0.0082618
0.00796538
0.00764974
0.00731897
0.00697713
0.00663025
0.00628412
0.00591637
0.00550499
-0.000270809
-0.000712973
-0.00106341
-0.0013516
-0.00161039
-0.00183954
-0.00203874
-0.00221009
-0.00235566
-0.00247728
-0.00257668
-0.00265544
-0.00271501
-0.00275665
-0.00278145
-0.00279034
-0.0027841
-0.00276332
-0.00272847
-0.00267984
-0.00261764
-0.00254191
-0.00245261
-0.0023496
-0.00223263
-0.00210141
-0.00195556
-0.00179469
-0.00161836
-0.00142612
-0.00121755
-0.000992248
-0.000749864
-0.000490101
-0.000212746
8.22985e-05
0.000394998
0.000725171
0.00107247
0.00143634
0.00181605
0.00221062
0.00261881
0.00303915
0.00346985
0.00390886
0.0043538
0.00480204
0.00525062
0.00569636
0.0061358
0.00656529
0.00698102
0.00737905
0.00775541
0.00810611
0.0084273
0.0087153
0.00896672
0.00917854
0.00934815
0.00947349
0.00955307
0.00958601
0.00957213
0.00951189
0.0094065
0.00925779
0.00906825
0.00884095
0.00857945
0.00828774
0.00797014
0.00763118
0.00727536
0.0069072
0.00653329
0.00616
0.00576339
0.00531989
-0.000598313
-0.00105523
-0.00141737
-0.0017152
-0.0019827
-0.00221966
-0.00242581
-0.00260335
-0.00275449
-0.00288115
-0.00298518
-0.00306824
-0.00313185
-0.00317735
-0.00320589
-0.00321845
-0.00321583
-0.00319865
-0.00316738
-0.00312235
-0.00306374
-0.00299157
-0.00290579
-0.00280622
-0.00269258
-0.00256449
-0.00242154
-0.00226327
-0.00208916
-0.00189868
-0.00169133
-0.00146663
-0.00122411
-0.000963389
-0.000684138
-0.000386154
-6.93579e-05
0.000266177
0.000620214
0.000992324
0.00138186
0.00178795
0.00220943
0.00264487
0.00309256
0.00355042
0.00401608
0.00448683
0.00495964
0.00543117
0.00589777
0.00635556
0.00680045
0.00722819
0.00763441
0.00801476
0.00836493
0.00868079
0.00895849
0.00919453
0.00938587
0.00953002
0.00962511
0.00966994
0.00966406
0.00960777
0.00950217
0.00934909
0.00915111
0.00891145
0.00863393
0.00832287
0.00798296
0.00761917
0.00723645
0.00683978
0.0064364
0.00603334
0.00560482
0.00512553
-0.000963849
-0.00143554
-0.00180941
-0.00211692
-0.00239316
-0.00263798
-0.00285113
-0.00303495
-0.00319175
-0.00332358
-0.00343238
-0.00351991
-0.00358777
-0.00363737
-0.00366992
-0.00368644
-0.00368777
-0.00367457
-0.00364732
-0.00360635
-0.00355183
-0.00348378
-0.00340211
-0.00330661
-0.00319695
-0.0030727
-0.00293338
-0.00277847
-0.00260737
-0.00241948
-0.00221419
-0.00199093
-0.00174914
-0.00148831
-0.001208
-0.000907882
-0.000587748
-0.000247542
0.00011263
0.000492474
0.000891474
0.00130886
0.0017436
0.00219434
0.00265942
0.00313681
0.00362414
0.00411866
0.00461726
0.00511647
0.00561246
0.00610111
0.00657805
0.00703868
0.00747825
0.00789195
0.00827501
0.00862278
0.00893088
0.00919528
0.0094124
0.00957926
0.00969353
0.00975362
0.00975874
0.00970898
0.00960525
0.00944937
0.00924397
0.00899243
0.00869883
0.00836782
0.00800452
0.00761435
0.00720275
0.00677523
0.00633974
0.005904
0.00544021
0.00492106
-0.00136864
-0.00185518
-0.00224083
-0.00255806
-0.00284311
-0.00309585
-0.00331608
-0.00350626
-0.00366884
-0.00380598
-0.00391971
-0.0040119
-0.00408424
-0.00413819
-0.00417504
-0.00419587
-0.00420155
-0.00419276
-0.00417
-0.00413362
-0.00408378
-0.00402047
-0.00394359
-0.00385289
-0.00374798
-0.00362839
-0.00349358
-0.00334295
-0.00317583
-0.00299153
-0.00278935
-0.0025686
-0.00232863
-0.00206879
-0.00178852
-0.00148734
-0.0011649
-0.000821007
-0.000455601
-6.882e-05
0.000338975
0.000767163
0.00121484
0.00168077
0.00216338
0.00266073
0.00317046
0.00368983
0.00421566
0.00474435
0.00527193
0.00579404
0.00630602
0.0068029
0.00727954
0.00773063
0.00815087
0.00853505
0.00887819
0.00917563
0.0094232
0.00961731
0.00975508
0.00983444
0.00985419
0.00981409
0.00971487
0.00955823
0.00934683
0.00908422
0.00877472
0.00842333
0.00803561
0.0076175
0.00717498
0.00671411
0.00624365
0.00577207
0.0052693
0.00470578
-0.00181392
-0.00231541
-0.00271291
-0.00303994
-0.00333387
-0.00359462
-0.00382202
-0.00401869
-0.00418717
-0.00432977
-0.00444861
-0.00454566
-0.00462271
-0.0046813
-0.00472279
-0.0047483
-0.00475874
-0.00475484
-0.00473712
-0.00470592
-0.00466141
-0.00460356
-0.00453224
-0.00444717
-0.00434793
-0.00423396
-0.00410469
-0.00395943
-0.00379744
-0.00361794
-0.00342012
-0.00320319
-0.00296637
-0.00270889
-0.00243003
-0.00212916
-0.00180578
-0.0014595
-0.00109009
-0.000697516
-0.000281942
0.000156189
0.000616135
0.00109682
0.0015968
0.00211423
0.00264684
0.00319189
0.00374618
0.00430604
0.00486732
0.00542548
0.00597554
0.00651219
0.00702983
0.00752266
0.00798478
0.00841037
0.00879374
0.00912954
0.00941288
0.00963948
0.00980581
0.00990918
0.0099479
0.0099213
0.00982984
0.00967507
0.00945961
0.00918713
0.00886222
0.00849023
0.0080772
0.00762963
0.00715408
0.00665724
0.00614874
0.00563792
0.00509211
0.00447925
-0.00230094
-0.00281749
-0.00322696
-0.00356388
-0.00386678
-0.00413564
-0.00437033
-0.00457359
-0.00474812
-0.00489633
-0.00502047
-0.00512262
-0.00520464
-0.00526818
-0.00531466
-0.00534525
-0.00536093
-0.00536245
-0.00535035
-0.005325
-0.00528654
-0.00523495
-0.00517007
-0.00509158
-0.00499901
-0.00489178
-0.00476922
-0.0046306
-0.00447509
-0.0043018
-0.00410983
-0.00389828
-0.00366623
-0.00341276
-0.003137
-0.00283814
-0.0025155
-0.0021685
-0.00179671
-0.00139986
-0.000977917
-0.000531101
-5.99477e-05
0.000434661
0.000951453
0.00148873
0.00204433
0.00261559
0.00319933
0.00379181
0.00438879
0.0049855
0.00557672
0.00615675
0.00671955
0.00725876
0.00776787
0.00824033
0.00866972
0.00904986
0.00937505
0.00964018
0.00984093
0.00997391
0.0100368
0.0100283
0.00994865
0.00979905
0.00958207
0.00930146
0.00896203
0.00856953
0.00813049
0.00765201
0.0071413
0.00660574
0.00605595
0.00550222
0.00490897
0.00424134
-0.00283096
-0.00336273
-0.00378428
-0.0041312
-0.0044432
-0.00472028
-0.00496238
-0.00517237
-0.00535309
-0.00550708
-0.00563672
-0.00574419
-0.00583147
-0.00590028
-0.00595212
-0.00598824
-0.00600966
-0.00601717
-0.00601134
-0.00599254
-0.00596093
-0.00591648
-0.005859
-0.00578815
-0.00570342
-0.00560417
-0.00548967
-0.00535913
-0.00521163
-0.00504619
-0.0048618
-0.00465744
-0.00443205
-0.00418455
-0.0039139
-0.00361911
-0.00329927
-0.00295361
-0.00258146
-0.00218231
-0.00175585
-0.00130207
-0.000821233
-0.000313998
0.000218592
0.000775035
0.00135333
0.00195095
0.00256476
0.00319105
0.00382549
0.00446315
0.00509855
0.00572564
0.0063379
0.00692842
0.00749
0.00801533
0.00849712
0.00892829
0.00930219
0.00961275
0.00985473
0.0100239
0.010117
0.0101323
0.0100693
0.00992902
0.00971379
0.0094274
0.00907487
0.00866233
0.00819684
0.00768615
0.00713818
0.00656109
0.00596659
0.00536603
0.00472058
0.00399225
-0.00340524
-0.00395241