/*--------------------------------*- C++ -*----------------------------------*\
  =========                 |
  \\      /  F ield         | OpenFOAM: The Open Source CFD Toolbox
   \\    /   O peration     | Website:  https://openfoam.org
    \\  /    A nd           | Version:  7
     \\/     M anipulation  |
\*---------------------------------------------------------------------------*/
FoamFile
{
    version     2.0;
    format      ascii;
    class       surfaceScalarField;
    location    "0.5";
    object      phi;
}
// * * * * * * * * * * * * * * * * * * * * * * * * * * * * * * * * * * * * * //

dimensions      [0 3 -1 0 0 0 0];

internalField   nonuniform List<scalar> 
12640
(
2.00647e-10
-2.00359e-10
4.09876e-10
-2.09225e-10
4.27667e-10
-1.77912e-11
1.86424e-10
2.41231e-10
-3.23824e-10
5.10225e-10
-1.08684e-09
7.63012e-10
-2.07515e-09
9.88298e-10
-3.25774e-09
1.1826e-09
-4.60399e-09
1.34625e-09
-6.08541e-09
1.48141e-09
-7.67638e-09
1.59097e-09
-9.3544e-09
1.67801e-09
-1.10999e-08
1.74551e-09
-1.28961e-08
1.79623e-09
-1.47288e-08
1.83267e-09
-1.65858e-08
1.85694e-09
-1.84565e-08
1.87076e-09
-2.0332e-08
1.87548e-09
-2.22042e-08
1.87217e-09
-2.40657e-08
1.86156e-09
-2.59098e-08
1.84411e-09
-2.77298e-08
1.82001e-09
-2.95191e-08
1.78926e-09
-3.12708e-08
1.7517e-09
-3.29778e-08
1.70698e-09
-3.46325e-08
1.6547e-09
-3.62268e-08
1.59434e-09
-3.77522e-08
1.52537e-09
-3.91994e-08
1.44724e-09
-4.05589e-08
1.35945e-09
-4.18204e-08
1.26152e-09
-4.29735e-08
1.15307e-09
-4.40073e-08
1.03382e-09
-4.49109e-08
9.03635e-10
-4.56735e-08
7.62561e-10
-4.62843e-08
6.10809e-10
-4.67331e-08
4.48809e-10
-4.70103e-08
2.77204e-10
-4.71072e-08
9.68761e-11
-4.70161e-08
-9.10362e-11
-4.6731e-08
-2.8517e-10
-4.62471e-08
-4.83914e-10
-4.55617e-08
-6.85416e-10
-4.4674e-08
-8.87615e-10
-4.35858e-08
-1.08826e-09
-4.23009e-08
-1.28494e-09
-4.08257e-08
-1.47511e-09
-3.91695e-08
-1.6562e-09
-3.7344e-08
-1.82556e-09
-3.53634e-08
-1.9806e-09
-3.32446e-08
-2.11882e-09
-3.10067e-08
-2.23789e-09
-2.8671e-08
-2.33568e-09
-2.62607e-08
-2.41032e-09
-2.38004e-08
-2.4603e-09
-2.13159e-08
-2.48445e-09
-1.88339e-08
-2.48204e-09
-1.63811e-08
-2.45276e-09
-1.39843e-08
-2.39675e-09
-1.16697e-08
-2.31464e-09
-9.46221e-09
-2.2075e-09
-7.38539e-09
-2.07682e-09
-5.46085e-09
-1.92453e-09
-3.7079e-09
-1.75295e-09
-2.14319e-09
-1.56471e-09
-7.80433e-10
-1.36277e-09
3.69921e-10
-1.15035e-09
1.30095e-09
-9.31026e-10
2.00912e-09
-7.08169e-10
2.49547e-09
-4.86348e-10
2.76515e-09
-2.69673e-10
2.82832e-09
-6.31588e-11
2.70089e-09
1.27443e-10
2.40591e-09
2.94989e-10
1.97552e-09
4.30394e-10
1.45407e-09
5.21457e-10
9.02351e-10
5.51728e-10
4.03825e-10
4.98525e-10
7.0626e-11
3.33202e-10
7.06367e-11
2.09275e-10
-4.0963e-10
2.39114e-10
-2.39047e-10
-1.98748e-10
4.2008e-10
-1.23294e-09
1.27543e-09
-2.89991e-09
2.17722e-09
-5.18067e-09
3.04373e-09
-8.02589e-09
3.83352e-09
-1.13722e-08
4.52892e-09
-1.51517e-08
5.12574e-09
-1.92974e-08
5.62715e-09
-2.37465e-08
6.04002e-09
-2.84415e-08
6.37301e-09
-3.33312e-08
6.63519e-09
-3.83703e-08
6.83536e-09
-4.35193e-08
6.9816e-09
-4.87433e-08
7.08098e-09
-5.4012e-08
7.13944e-09
-5.92984e-08
7.16184e-09
-6.45781e-08
7.15191e-09
-6.98289e-08
7.11234e-09
-7.50297e-08
7.04485e-09
-8.016e-08
6.95032e-09
-8.51996e-08
6.82888e-09
-9.0128e-08
6.68007e-09
-9.49239e-08
6.50291e-09
-9.95652e-08
6.29605e-09
-1.04029e-07
6.05786e-09
-1.0829e-07
5.78663e-09
-1.12323e-07
5.48058e-09
-1.16102e-07
5.13806e-09
-1.19598e-07
4.75761e-09
-1.22783e-07
4.33808e-09
-1.25628e-07
3.87873e-09
-1.28104e-07
3.37933e-09
-1.30181e-07
2.84027e-09
-1.31833e-07
2.26258e-09
-1.33032e-07
1.64805e-09
-1.33754e-07
9.99275e-10
-1.33977e-07
3.19682e-10
-1.33682e-07
-3.86431e-10
-1.32853e-07
-1.11392e-09
-1.3148e-07
-1.85677e-09
-1.29558e-07
-2.60819e-09
-1.27085e-07
-3.36062e-09
-1.24067e-07
-4.10586e-09
-1.20517e-07
-4.83517e-09
-1.16452e-07
-5.53946e-09
-1.11899e-07
-6.20935e-09
-1.06889e-07
-6.83544e-09
-1.01461e-07
-7.40848e-09
-9.56607e-08
-7.91958e-09
-8.95382e-08
-8.36039e-09
-8.31505e-08
-8.72335e-09
-7.65589e-08
-9.00189e-09
-6.98287e-08
-9.19057e-09
-6.30278e-08
-9.28528e-09
-5.62265e-08
-9.28337e-09
-4.94955e-08
-9.18374e-09
-4.29054e-08
-8.98692e-09
-3.65249e-08
-8.69506e-09
-3.04204e-08
-8.31197e-09
-2.46542e-08
-7.84302e-09
-1.92836e-08
-7.2951e-09
-1.43601e-08
-6.67651e-09
-9.92797e-09
-5.99682e-09
-6.02394e-09
-5.2668e-09
-2.676e-09
-4.49829e-09
9.71536e-11
-3.70416e-09
2.28773e-09
-2.89873e-09
3.89791e-09
-2.09649e-09
4.94269e-09
-1.31443e-09
5.45052e-09
-5.70959e-10
5.46523e-09
1.12747e-10
5.04838e-09
7.11863e-10
4.2827e-09
1.19609e-09
3.27599e-09
1.52818e-09
2.16521e-09
1.6625e-09
1.11865e-09
1.54509e-09
3.29731e-10
1.12214e-09
4.00362e-10
2.1767e-11
-4.31399e-10
-4.20693e-10
2.03397e-10
-1.59839e-09
1.59775e-09
-3.64281e-09
3.31987e-09
-6.59323e-09
5.12762e-09
-1.0427e-08
6.87755e-09
-1.50831e-08
8.48962e-09
-2.04795e-08
9.92522e-09
-2.65247e-08
1.1171e-08
-3.31262e-08
1.22286e-08
-4.01945e-08
1.31083e-08
-4.76461e-08
1.38246e-08
-5.54048e-08
1.43939e-08
-6.34021e-08
1.48326e-08
-7.15767e-08
1.51562e-08
-7.98743e-08
1.53785e-08
-8.82462e-08
1.55113e-08
-9.66486e-08
1.55643e-08
-1.05042e-07
1.55452e-08
-1.13389e-07
1.54594e-08
-1.21655e-07
1.53107e-08
-1.29805e-07
1.5101e-08
-1.37807e-07
1.48308e-08
-1.45626e-07
1.44992e-08
-1.53228e-07
1.41046e-08
-1.60576e-07
1.36443e-08
-1.67634e-07
1.31154e-08
-1.74362e-07
1.25144e-08
-1.80719e-07
1.1838e-08
-1.86664e-07
1.10831e-08
-1.92153e-07
1.0247e-08
-1.97143e-07
9.32767e-09
-2.01588e-07
8.32398e-09
-2.05445e-07
7.23585e-09
-2.08669e-07
6.06446e-09
-2.11219e-07
4.81239e-09
-2.13055e-07
3.48377e-09
-2.1414e-07
2.0844e-09
-2.14442e-07
6.21796e-10
-2.13933e-07
-8.94757e-10
-2.12593e-07
-2.45421e-09
-2.10406e-07
-4.04377e-09
-2.07365e-07
-5.64904e-09
-2.03472e-07
-7.25413e-09
-1.98736e-07
-8.84183e-09
-1.93177e-07
-1.03939e-08
-1.86825e-07
-1.18914e-08
-1.7972e-07
-1.33148e-08
-1.7191e-07
-1.46447e-08
-1.63457e-07
-1.58619e-08
-1.54429e-07
-1.6948e-08
-1.44903e-07
-1.78859e-08
-1.34967e-07
-1.86598e-08
-1.24712e-07
-1.92564e-08
-1.14238e-07
-1.96643e-08
-1.03649e-07
-1.9875e-08
-9.30489e-08
-1.98832e-08
-8.25462e-08
-1.96864e-08
-7.22473e-08
-1.92858e-08
-6.22567e-08
-1.86856e-08
-5.26748e-08
-1.78939e-08
-4.35962e-08
-1.69216e-08
-3.51083e-08
-1.5783e-08
-2.72894e-08
-1.44955e-08
-2.02073e-08
-1.30789e-08
-1.39181e-08
-1.1556e-08
-8.46465e-09
-9.95169e-09
-3.87552e-09
-8.29329e-09
-1.63786e-10
-6.61046e-09
2.67496e-09
-4.93524e-09
4.66325e-09
-3.3027e-09
5.84398e-09
-1.75168e-09
6.2825e-09
-3.2575e-10
6.06922e-09
9.25164e-10
5.32249e-09
1.94283e-09
4.19176e-09
2.65891e-09
2.86001e-09
2.99423e-09
1.54425e-09
2.86086e-09
4.92953e-10
2.17344e-09
8.93301e-10
-2.43185e-10
-1.88207e-10
-1.30435e-09
1.26457e-09
-3.38293e-09
3.67632e-09
-6.57524e-09
6.51214e-09
-1.09015e-08
9.45389e-09
-1.63258e-08
1.23019e-08
-2.27745e-08
1.49382e-08
-3.01509e-08
1.73017e-08
-3.83474e-08
1.93675e-08
-4.72532e-08
2.11344e-08
-5.67596e-08
2.26147e-08
-6.67636e-08
2.38286e-08
-7.71698e-08
2.48001e-08
-8.7891e-08
2.55538e-08
-9.88481e-08
2.61134e-08
-1.0997e-07
2.65003e-08
-1.21192e-07
2.67332e-08
-1.32455e-07
2.68275e-08
-1.43705e-07
2.67956e-08
-1.54892e-07
2.66464e-08
-1.65968e-07
2.63861e-08
-1.76885e-07
2.60178e-08
-1.87597e-07
2.55427e-08
-1.98057e-07
2.49597e-08
-2.08218e-07
2.4266e-08
-2.18032e-07
2.34578e-08
-2.27447e-07
2.25304e-08
-2.36411e-07
2.14787e-08
-2.44871e-07
2.02976e-08
-2.5277e-07
1.89823e-08
-2.60052e-07
1.75289e-08
-2.66659e-07
1.59346e-08
-2.72533e-07
1.41981e-08
-2.77617e-07
1.23197e-08
-2.81855e-07
1.03021e-08
-2.85192e-07
8.15006e-09
-2.8758e-07
5.87112e-09
-2.88971e-07
3.47541e-09
-2.89325e-07
9.7599e-10
-2.88608e-07
-1.61124e-09
-2.86795e-07
-4.26748e-09
-2.83868e-07
-6.9711e-09
-2.79819e-07
-9.69787e-09
-2.74652e-07
-1.24212e-08
-2.68381e-07
-1.51122e-08
-2.61035e-07
-1.77408e-08
-2.52651e-07
-2.02751e-08
-2.43282e-07
-2.26832e-08
-2.32995e-07
-2.49326e-08
-2.21865e-07
-2.69919e-08
-2.09982e-07
-2.88305e-08
-1.97448e-07
-3.04201e-08
-1.84373e-07
-3.17351e-08
-1.70876e-07
-3.2753e-08
-1.57085e-07
-3.34553e-08
-1.43132e-07
-3.3828e-08
-1.29153e-07
-3.38619e-08
-1.15286e-07
-3.35532e-08
-1.01669e-07
-3.29036e-08
-8.84341e-08
-3.19201e-08
-7.57123e-08
-3.06157e-08
-6.36251e-08
-2.90087e-08
-5.22855e-08
-2.71227e-08
-4.17947e-08
-2.49863e-08
-3.22407e-08
-2.26328e-08
-2.36966e-08
-2.01001e-08
-1.62183e-08
-1.743e-08
-9.84336e-09
-1.46682e-08
-4.58913e-09
-1.18647e-08
-4.51198e-10
-9.07316e-09
2.59843e-09
-6.35232e-09
4.6131e-09
-3.76633e-09
5.67366e-09
-1.38629e-09
5.89072e-09
7.0812e-10
5.40691e-09
2.42664e-09
4.39907e-09
3.66674e-09
3.08022e-09
4.31309e-09
1.70104e-09
4.24006e-09
5.53865e-10
3.32061e-09
1.44716e-09
-5.29909e-10
3.41695e-10
-2.27601e-09
3.01069e-09
-5.33851e-09
6.7388e-09
-9.75621e-09
1.09298e-08
-1.55135e-08
1.52112e-08
-2.25511e-08
1.93395e-08
-3.07782e-08
2.31653e-08
-4.00836e-08
2.66071e-08
-5.03457e-08
2.96296e-08
-6.14393e-08
3.2228e-08
-7.32412e-08
3.44166e-08
-8.56335e-08
3.6221e-08
-9.85059e-08
3.76725e-08
-1.11756e-07
3.88041e-08
-1.25291e-07
3.96481e-08
-1.39025e-07
4.02339e-08
-1.52879e-07
4.05876e-08
-1.66782e-07
4.07307e-08
-1.80667e-07
4.06806e-08
-1.94471e-07
4.04502e-08
-2.08133e-07
4.00482e-08
-2.21595e-07
3.94795e-08
-2.34798e-07
3.87456e-08
-2.47683e-07
3.78453e-08
-2.60192e-07
3.67749e-08
-2.72264e-07
3.55292e-08
-2.83835e-07
3.41018e-08
-2.94842e-07
3.24856e-08
-3.05218e-07
3.06739e-08
-3.14896e-07
2.86601e-08
-3.23807e-07
2.64394e-08
-3.3188e-07
2.40081e-08
-3.39047e-07
2.13651e-08
-3.45239e-07
1.85117e-08
-3.5039e-07
1.54526e-08
-3.54435e-07
1.21956e-08
-3.57317e-07
8.7524e-09
-3.5898e-07
5.13869e-09
-3.59378e-07
1.37428e-09
-3.58472e-07
-2.51685e-09
-3.56233e-07
-6.50654e-09
-3.52642e-07
-1.05626e-08
-3.47691e-07
-1.4649e-08
-3.41385e-07
-1.87264e-08
-3.33745e-07
-2.27525e-08
-3.24803e-07
-2.66826e-08
-3.14608e-07
-3.04703e-08
-3.03223e-07
-3.40684e-08
-2.90726e-07
-3.74297e-08
-2.7721e-07
-4.05078e-08
-2.62782e-07
-4.32585e-08
-2.47562e-07
-4.56403e-08
-2.31682e-07
-4.76154e-08
-2.15283e-07
-4.91513e-08
-1.98518e-07
-5.02206e-08
-1.81543e-07
-5.0803e-08
-1.6452e-07
-5.08848e-08
-1.47613e-07
-5.04602e-08
-1.30985e-07
-4.95315e-08
-1.14796e-07
-4.81089e-08
-9.9201e-08
-4.62111e-08
-8.43449e-08
-4.38648e-08
-7.0363e-08
-4.11046e-08
-5.73769e-08
-3.79723e-08
-4.54926e-08
-3.45172e-08
-3.47981e-08
-3.07947e-08
-2.53612e-08
-2.68668e-08
-1.72281e-08
-2.28013e-08
-1.0421e-08
-1.86718e-08
-4.93645e-09
-1.45577e-08
-7.43404e-10
-1.05454e-08
2.21843e-09
-6.72815e-09
4.04052e-09
-3.20836e-09
4.84734e-09
-9.86887e-11
4.79812e-09
2.47587e-09
4.08847e-09
4.3764e-09
2.95227e-09
5.4493e-09
1.66448e-09
5.52786e-09
5.4809e-10
4.43699e-09
1.99526e-09
-8.15288e-10
1.15698e-09
-3.26316e-09
5.45855e-09
-7.33969e-09
1.08153e-08
-1.30143e-08
1.66045e-08
-2.02247e-08
2.24215e-08
-2.88796e-08
2.79944e-08
-3.8866e-08
3.31517e-08
-5.00559e-08
3.77969e-08
-6.23134e-08
4.18871e-08
-7.55008e-08
4.54153e-08
-8.94826e-08
4.83983e-08
-1.04129e-07
5.08673e-08
-1.19317e-07
5.2861e-08
-1.34934e-07
5.44208e-08
-1.50873e-07
5.55875e-08
-1.67038e-07
5.63989e-08
-1.83339e-07
5.68884e-08
-1.99693e-07
5.7084e-08
-2.1602e-07
5.70083e-08
-2.32248e-07
5.66781e-08
-2.48305e-07
5.61049e-08
-2.64121e-07
5.52953e-08
-2.79626e-07
5.42513e-08
-2.94753e-07
5.29716e-08
-3.09429e-07
5.14514e-08
-3.23584e-07
4.96842e-08
-3.37144e-07
4.76618e-08
-3.50034e-07
4.53752e-08
-3.62176e-07
4.28158e-08
-3.73491e-07
3.99758e-08
-3.83901e-07
3.68491e-08
-3.93325e-07
3.34318e-08
-4.01683e-07
2.97231e-08
-4.08897e-07
2.57259e-08
-4.14891e-07
2.14472e-08
-4.19594e-07
1.68986e-08
-4.22939e-07
1.20971e-08
-4.24865e-07
7.06471e-09
-4.2532e-07
1.82908e-09
-4.2426e-07
-3.57643e-09
-4.21654e-07
-9.11294e-09
-4.1748e-07
-1.47362e-08
-4.11732e-07
-2.03968e-08
-4.04418e-07
-2.60411e-08
-3.95559e-07
-3.16112e-08
-3.85195e-07
-3.70463e-08
-3.73382e-07
-4.22835e-08
-3.60192e-07
-4.72585e-08
-3.45714e-07
-5.19074e-08
-3.30055e-07
-5.61673e-08
-3.13335e-07
-5.9978e-08
-2.95693e-07
-6.32832e-08
-2.77276e-07
-6.6032e-08
-2.58248e-07
-6.81796e-08
-2.38779e-07
-6.96893e-08
-2.19049e-07
-7.05328e-08
-1.99242e-07
-7.06916e-08
-1.79545e-07
-7.01574e-08
-1.60143e-07
-6.89329e-08
-1.41221e-07
-6.70317e-08
-1.22953e-07
-6.44787e-08
-1.05508e-07
-6.13099e-08
-8.90405e-08
-5.75722e-08
-7.36904e-08
-5.33224e-08
-5.95801e-08
-4.86274e-08
-4.68118e-08
-4.3563e-08
-3.54648e-08
-3.82138e-08
-2.55938e-08
-3.26723e-08
-1.72265e-08
-2.70392e-08
-1.03614e-08
-2.14228e-08
-4.96679e-09
-1.594e-08
-9.78177e-10
-1.07167e-08
1.70288e-09
-5.8894e-09
3.21031e-09
-1.60611e-09
3.71489e-09
1.97131e-09
3.4255e-09
4.6658e-09
2.59096e-09
6.28386e-09
1.50298e-09
6.61584e-09
5.02926e-10
5.43705e-09
2.4982e-09
-1.08923e-09
2.2462e-09
-4.22885e-09
8.59818e-09
-9.31567e-09
1.59021e-08
-1.6246e-08
2.35348e-08
-2.49048e-08
3.10802e-08
-3.51632e-08
3.82529e-08
-4.68814e-08
4.48698e-08
-5.99113e-08
5.08269e-08
-7.41019e-08
5.60777e-08
-8.93026e-08
6.0616e-08
-1.05367e-07
6.44626e-08
-1.22154e-07
6.76548e-08
-1.39533e-07
7.02394e-08
-1.57378e-07
7.22663e-08
-1.75576e-07
7.3785e-08
-1.94019e-07
7.48416e-08
-2.12607e-07
7.54768e-08
-2.31248e-07
7.57252e-08
-2.49854e-07
7.56144e-08
-2.68341e-07
7.51653e-08
-2.86629e-07
7.43921e-08
-3.04636e-07
7.3303e-08
-3.22286e-07
7.19008e-08
-3.39498e-07
7.01835e-08
-3.56192e-07
6.81458e-08
-3.72287e-07
6.57793e-08
-3.877e-07
6.30741e-08
-4.02344e-07
6.00195e-08
-4.16133e-07
5.66051e-08
-4.28979e-07
5.28217e-08
-4.40792e-07
4.86622e-08
-4.51483e-07
4.41226e-08
-4.60963e-07
3.92031e-08
-4.69145e-07
3.39081e-08
-4.75946e-07
2.82479e-08
-4.81286e-07
2.22384e-08
-4.85091e-07
1.59022e-08
-4.87295e-07
9.26876e-09
-4.8784e-07
2.37459e-09
-4.8668e-07
-4.73667e-09
-4.83779e-07
-1.20142e-08
-4.79115e-07
-1.94005e-08
-4.7268e-07
-2.68315e-08
-4.64483e-07
-3.42376e-08
-4.54551e-07
-4.1544e-08
-4.42925e-07
-4.86723e-08
-4.29667e-07
-5.55412e-08
-4.14858e-07
-6.20679e-08
-3.98595e-07
-6.81699e-08
-3.80996e-07
-7.37661e-08
-3.62195e-07
-7.8779e-08
-3.42343e-07
-8.31357e-08
-3.21604e-07
-8.67704e-08
-3.00159e-07
-8.96252e-08
-2.78196e-07
-9.16523e-08
-2.55914e-07
-9.28147e-08
-2.33518e-07
-9.3088e-08
-2.11214e-07
-9.24609e-08
-1.89211e-07
-9.09363e-08
-1.67711e-07
-8.85311e-08
-1.46913e-07
-8.5277e-08
-1.27003e-07
-8.12198e-08
-1.08156e-07
-7.64196e-08
-9.05281e-08
-7.09499e-08
-7.42588e-08
-6.48967e-08
-5.94635e-08
-5.83583e-08
-4.62332e-08
-5.14441e-08
-3.46315e-08
-4.4274e-08
-2.46923e-08
-3.69784e-08
-1.64178e-08
-2.96972e-08
-9.77696e-09
-2.25808e-08
-4.7034e-09
-1.57903e-08
-1.09444e-09
-9.49835e-09
1.19027e-09
-3.89082e-09
2.32972e-09
8.31866e-10
2.54248e-09
4.45305e-09
2.08808e-09
6.73827e-09
1.26939e-09
7.43454e-09
4.37163e-10
6.26929e-09
2.93536e-09
-1.34825e-09
3.59446e-09
-5.15607e-09
1.2406e-08
-1.12293e-08
2.19754e-08
-1.93925e-08
3.1698e-08
-2.94755e-08
4.11633e-08
-4.13087e-08
5.00861e-08
-5.47217e-08
5.82828e-08
-6.95443e-08
6.56494e-08
-8.56082e-08
7.21416e-08
-1.0275e-07
7.77574e-08
-1.20811e-07
8.25239e-08
-1.39642e-07
8.64862e-08
-1.59103e-07
8.96997e-08
-1.7906e-07
9.22235e-08
-1.99391e-07
9.41158e-08
-2.1998e-07
9.5431e-08
-2.40721e-07
9.62175e-08
-2.61511e-07
9.65159e-08
-2.82256e-07
9.63593e-08
-3.02863e-07
9.57722e-08
-3.23243e-07
9.47716e-08
-3.43307e-07
9.33672e-08
-3.62968e-07
9.15621e-08
-3.82139e-07
8.93542e-08
-4.0073e-07
8.67368e-08
-4.18651e-07
8.37003e-08
-4.35809e-07
8.02328e-08
-4.52112e-07
7.63217e-08
-4.67461e-07
7.19549e-08
-4.81762e-07
6.71219e-08
-4.94914e-07
6.18149e-08
-5.06822e-07
5.603e-08
-5.17387e-07
4.97681e-08
-5.26515e-07
4.30362e-08
-5.34115e-07
3.58476e-08
-5.401e-07
2.82234e-08
-5.4439e-07
2.01924e-08
-5.46913e-07
1.1792e-08
-5.47607e-07
3.06826e-09
-5.4642e-07
-5.92398e-09
-5.43313e-07
-1.51211e-08
-5.38262e-07
-2.44513e-08
-5.31259e-07
-3.38348e-08
-5.22311e-07
-4.31847e-08
-5.11447e-07
-5.24083e-08
-4.98712e-07
-6.14079e-08
-4.8417e-07
-7.00825e-08
-4.67909e-07
-7.83292e-08
-4.50033e-07
-8.60455e-08
-4.30669e-07
-9.31303e-08
-4.09961e-07
-9.94871e-08
-3.88071e-07
-1.05025e-07
-3.6518e-07
-1.09662e-07
-3.41481e-07
-1.13325e-07
-3.17179e-07
-1.15953e-07
-2.92493e-07
-1.17501e-07
-2.67644e-07
-1.17937e-07
-2.42859e-07
-1.17245e-07
-2.18367e-07
-1.15429e-07
-1.9439e-07
-1.12508e-07
-1.71147e-07
-1.0852e-07
-1.48843e-07
-1.03523e-07
-1.27673e-07
-9.75901e-08
-1.07811e-07
-9.08123e-08
-8.94105e-08
-8.32968e-08
-7.26028e-08
-7.51661e-08
-5.74904e-08
-6.65564e-08
-4.4147e-08
-5.76175e-08
-3.26136e-08
-4.85118e-08
-2.28975e-08
-3.94133e-08
-1.49698e-08
-3.05086e-08
-8.76407e-09
-2.1996e-08
-4.17537e-09
-1.4087e-08
-1.059e-09
-7.0072e-09
7.7004e-10
-9.97178e-10
1.53764e-09
3.68544e-09
1.51135e-09
6.76457e-09
1.00152e-09
7.94439e-09
3.63329e-10
6.90749e-09
3.29868e-09
-1.59187e-09
5.18632e-09
-6.03821e-09
1.68523e-08
-1.30631e-08
2.90002e-08
-2.24227e-08
4.10576e-08
-3.38924e-08
5.2633e-08
-4.72602e-08
6.34539e-08
-6.23233e-08
7.33459e-08
-7.88872e-08
8.22133e-08
-9.67652e-08
9.00196e-08
-1.15779e-07
9.67714e-08
-1.3576e-07
1.02505e-07
-1.56549e-07
1.07275e-07
-1.77997e-07
1.11148e-07
-1.99965e-07
1.14191e-07
-2.22321e-07
1.16472e-07
-2.44945e-07
1.18055e-07
-2.67723e-07
1.18995e-07
-2.90546e-07
1.19339e-07
-3.13313e-07
1.19126e-07
-3.35923e-07
1.18382e-07
-3.5828e-07
1.17129e-07
-3.80289e-07
1.15376e-07
-4.01856e-07
1.13129e-07
-4.22884e-07
1.10382e-07
-4.43277e-07
1.0713e-07
-4.62938e-07
1.03361e-07
-4.81765e-07
9.90602e-08
-4.99658e-07
9.4214e-08
-5.16511e-07
8.88084e-08
-5.3222e-07
8.28314e-08
-5.4668e-07
7.62747e-08
-5.59785e-07
6.91344e-08
-5.71429e-07
6.14128e-08
-5.81512e-07
5.3119e-08
-5.89935e-07
4.42701e-08
-5.96604e-07
3.48924e-08
-6.01432e-07
2.50213e-08
-6.04343e-07
1.47027e-08
-6.05268e-07
3.99268e-09
-6.04149e-07
-7.04217e-09
-6.00946e-07
-1.83248e-08
-5.95629e-07
-2.97681e-08
-5.88188e-07
-4.12758e-08
-5.7863e-07
-5.27429e-08
-5.66981e-07
-6.40575e-08
-5.53287e-07
-7.51013e-08
-5.37617e-07
-8.57525e-08
-5.2006e-07
-9.58865e-08
-5.00726e-07
-1.05379e-07
-4.79749e-07
-1.14108e-07
-4.5728e-07
-1.21955e-07
-4.33494e-07
-1.28811e-07
-4.08582e-07
-1.34574e-07
-3.82751e-07
-1.39156e-07
-3.56222e-07
-1.42482e-07
-3.29229e-07
-1.44494e-07
-3.02013e-07
-1.45153e-07
-2.74821e-07
-1.44438e-07
-2.47898e-07
-1.42351e-07
-2.2149e-07
-1.38916e-07
-1.95835e-07
-1.34176e-07
-1.71158e-07
-1.28199e-07
-1.47674e-07
-1.21075e-07
-1.25574e-07
-1.12912e-07
-1.05031e-07
-1.0384e-07
-8.61905e-08
-9.4007e-08
-6.91679e-08
-8.3579e-08
-5.40481e-08
-7.27373e-08
-4.08812e-08
-6.16787e-08
-2.96805e-08
-5.0614e-08
-2.0421e-08
-3.97681e-08
-1.30377e-08
-2.93793e-08
-7.42481e-09
-1.97e-08
-3.43464e-09
-1.09974e-08
-8.77634e-10
-3.55419e-09
4.7809e-10
2.32971e-09
9.06635e-10
6.33603e-09
7.2427e-10
8.12678e-09
2.8919e-10
7.34256e-09
3.58787e-09
-1.82072e-09
7.00703e-09
-6.87391e-09
2.19055e-08
-1.48102e-08
3.69365e-08
-2.53222e-08
5.15696e-08
-3.81325e-08
6.54433e-08
-5.29868e-08
7.83082e-08
-6.96492e-08
9.00084e-08
-8.78996e-08
1.00464e-07
-1.07532e-07
1.09652e-07
-1.28353e-07
1.17592e-07
-1.50182e-07
1.24334e-07
-1.7285e-07
1.29944e-07
-1.96202e-07
1.34499e-07
-2.20091e-07
1.38079e-07
-2.4438e-07
1.40762e-07
-2.68943e-07
1.42618e-07
-2.9366e-07
1.43712e-07
-3.18418e-07
1.44097e-07
-3.43108e-07
1.43815e-07
-3.67625e-07
1.42899e-07
-3.91867e-07
1.41371e-07
-4.15733e-07
1.39242e-07
-4.39121e-07
1.36517e-07
-4.6193e-07
1.33192e-07
-4.84057e-07
1.29257e-07
-5.05397e-07
1.24701e-07
-5.25843e-07
1.19506e-07
-5.45286e-07
1.13657e-07
-5.63615e-07
1.07137e-07
-5.80718e-07
9.99346e-08
-5.96482e-07
9.20391e-08
-6.10795e-07
8.34473e-08
-6.23545e-07
7.41626e-08
-6.34623e-07
6.41965e-08
-6.43923e-07
5.357e-08
-6.51345e-07
4.23144e-08
-6.56796e-07
3.04722e-08
-6.60191e-07
1.80977e-08
-6.61455e-07
5.25745e-09
-6.60528e-07
-7.9699e-09
-6.57359e-07
-2.14933e-08
-6.51917e-07
-3.52102e-08
-6.44186e-07
-4.90068e-08
-6.34169e-07
-6.27594e-08
-6.21891e-07
-7.63355e-08
-6.07397e-07
-8.95958e-08
-5.90754e-07
-1.02396e-07
-5.72052e-07
-1.14588e-07
-5.51406e-07
-1.26025e-07
-5.28953e-07
-1.36561e-07
-5.04852e-07
-1.46056e-07
-4.79284e-07
-1.54378e-07
-4.52453e-07
-1.61406e-07
-4.24578e-07
-1.67032e-07
-3.95894e-07
-1.71166e-07
-3.66652e-07
-1.73736e-07
-3.3711e-07
-1.74695e-07
-3.07534e-07
-1.74014e-07
-2.78191e-07
-1.71694e-07
-2.49347e-07
-1.67759e-07
-2.21262e-07
-1.62261e-07
-1.94184e-07
-1.55278e-07
-1.68346e-07
-1.46913e-07
-1.43962e-07
-1.37296e-07
-1.21222e-07
-1.2658e-07
-1.00288e-07
-1.1494e-07
-8.12935e-08
-1.02574e-07
-6.43343e-08
-8.96966e-08
-4.94711e-08
-7.65418e-08
-3.67253e-08
-6.33598e-08
-2.60771e-08
-5.04163e-08
-1.74643e-08
-3.79921e-08
-1.07813e-08
-2.6383e-08
-5.87854e-09
-1.59001e-08
-2.56258e-09
-6.87014e-09
-5.9609e-10
3.63232e-10
3.01371e-10
5.43858e-09
4.52262e-10
7.97589e-09
2.19065e-10
7.57576e-09
3.80695e-09
-2.03586e-09
9.04289e-09
-7.66438e-09
2.7534e-08
-1.64699e-08
4.5742e-08
-2.80864e-08
6.3186e-08
-4.21862e-08
7.95431e-08
-5.84739e-08
9.45958e-08
-7.66805e-08
1.08215e-07
-9.65598e-08
1.20343e-07
-1.17886e-07
1.30977e-07
-1.40449e-07
1.40156e-07
-1.64058e-07
1.47943e-07
-1.88535e-07
1.54421e-07
-2.13715e-07
1.5968e-07
-2.39447e-07
1.63811e-07
-2.65588e-07
1.66904e-07
-2.92008e-07
1.69038e-07
-3.18581e-07
1.70286e-07
-3.45191e-07
1.70706e-07
-3.71724e-07
1.70348e-07
-3.9807e-07
1.69246e-07
-4.24124e-07
1.67424e-07
-4.49778e-07
1.64896e-07
-4.74927e-07
1.61666e-07
-4.99463e-07
1.57728e-07
-5.23279e-07
1.53073e-07
-5.46263e-07
1.47685e-07
-5.68303e-07
1.41546e-07
-5.89283e-07
1.34638e-07
-6.09088e-07
1.26942e-07
-6.27598e-07
1.18445e-07
-6.44695e-07
1.09135e-07
-6.60258e-07
9.90105e-08
-6.74169e-07
8.80741e-08
-6.86313e-07
7.63402e-08
-6.96577e-07
6.38334e-08
-7.04852e-07
5.05899e-08
-7.11039e-07
3.66593e-08
-7.15045e-07
2.21041e-08
-7.16789e-07
7.00138e-09
-7.16201e-07
-8.55806e-09
-7.13225e-07
-2.44692e-08
-7.07822e-07
-4.06133e-08
-6.9997e-07
-5.6859e-08
-6.89667e-07
-7.3063e-08
-6.7693e-07
-8.90719e-08
-6.61802e-07
-1.04724e-07
-6.44347e-07
-1.19851e-07
-6.24655e-07
-1.3428e-07
-6.0284e-07
-1.47841e-07
-5.7904e-07
-1.60361e-07
-5.53422e-07
-1.71675e-07
-5.26171e-07
-1.81629e-07
-4.975e-07
-1.90077e-07
-4.67641e-07
-1.96891e-07
-4.36842e-07
-2.01964e-07
-4.05371e-07
-2.05208e-07
-3.73503e-07
-2.06562e-07
-3.41525e-07
-2.05992e-07
-3.09726e-07
-2.03493e-07
-2.78394e-07
-1.99091e-07
-2.47813e-07
-1.92842e-07
-2.18254e-07
-1.84836e-07
-1.89975e-07
-1.75192e-07
-1.63212e-07
-1.64059e-07
-1.38176e-07
-1.51616e-07
-1.1505e-07
-1.38066e-07
-9.39827e-08
-1.23641e-07
-7.5087e-08
-1.08592e-07
-5.84358e-08
-9.31931e-08
-4.40601e-08
-7.77355e-08
-3.1947e-08
-6.25293e-08
-2.20385e-08
-4.79006e-08
-1.42302e-08
-3.41913e-08
-8.3714e-09
-2.17589e-08
-4.26482e-09
-1.09767e-08
-1.66753e-09
-2.23405e-09
-2.91968e-10
4.06303e-09
1.92141e-10
7.49179e-09
1.54809e-10
7.6131e-09
3.96177e-09
-2.23849e-09
1.12814e-08
-8.41191e-09
3.37074e-08
-1.80447e-08
5.53748e-08
-3.07162e-08
7.58576e-08
-4.60521e-08
9.4879e-08
-6.37172e-08
1.12261e-07
-8.34103e-08
1.27908e-07
-1.04859e-07
1.41792e-07
-1.27818e-07
1.53936e-07
-1.52061e-07
1.64399e-07
-1.77385e-07
1.73267e-07
-2.03603e-07
1.80639e-07
-2.30543e-07
1.8662e-07
-2.58048e-07
1.91316e-07
-2.8597e-07
1.94826e-07
-3.14176e-07
1.97243e-07
-3.42536e-07
1.98646e-07
-3.70929e-07
1.991e-07
-3.9924e-07
1.98659e-07
-4.27355e-07
1.97361e-07
-4.55165e-07
1.95234e-07
-4.82558e-07
1.9229e-07
-5.09426e-07
1.88533e-07
-5.35657e-07
1.83959e-07
-5.61138e-07
1.78554e-07
-5.85755e-07
1.72301e-07
-6.09389e-07
1.6518e-07
-6.31921e-07
1.57169e-07
-6.53228e-07
1.48249e-07
-6.73187e-07
1.38403e-07
-6.91671e-07
1.2762e-07
-7.08556e-07
1.15896e-07
-7.23717e-07
1.03235e-07
-7.3703e-07
8.96528e-08
-7.48374e-07
7.51781e-08
-7.57636e-07
5.98516e-08
-7.64705e-07
4.37288e-08
-7.69482e-07
2.68809e-08
-7.71875e-07
9.39463e-09
-7.71806e-07
-8.62713e-09
-7.6921e-07
-2.70654e-08
-7.64038e-07
-4.57855e-08
-7.56259e-07
-6.46382e-08
-7.45862e-07
-8.34601e-08
-7.32857e-07
-1.02076e-07
-7.1728e-07
-1.20301e-07
-6.99188e-07
-1.37942e-07
-6.78668e-07
-1.54801e-07
-6.5583e-07
-1.70679e-07
-6.30814e-07
-1.85377e-07
-6.03786e-07
-1.98703e-07
-5.74939e-07
-2.10475e-07
-5.44492e-07
-2.20523e-07
-5.12687e-07
-2.28696e-07
-4.79787e-07
-2.34864e-07
-4.46075e-07
-2.38921e-07
-4.11846e-07
-2.40791e-07
-3.77408e-07
-2.4043e-07
-3.43073e-07
-2.37828e-07
-3.09156e-07
-2.33008e-07
-2.75964e-07
-2.26034e-07
-2.43798e-07
-2.17002e-07
-2.12941e-07
-2.06049e-07
-1.83655e-07
-1.93345e-07
-1.56177e-07
-1.79094e-07
-1.30712e-07
-1.63531e-07
-1.0743e-07
-1.46923e-07
-8.64621e-08
-1.2956e-07
-6.7896e-08
-1.11759e-07
-5.1775e-08
-9.38565e-08
-3.8095e-08
-7.62093e-08
-2.68034e-08
-5.91922e-08
-1.77981e-08
-4.31966e-08
-1.09274e-08
-2.86296e-08
-5.99043e-09
-1.59137e-08
-2.73775e-09
-5.48673e-09
-8.73073e-10
2.19836e-09
-5.56104e-11
6.67433e-09
9.6484e-11
7.46103e-09
4.05825e-09
-2.42966e-09
1.3711e-08
-9.11913e-09
4.03969e-08
-1.95379e-08
6.57936e-08
-3.32155e-08
8.95351e-08
-4.97332e-08
1.11397e-07
-6.87186e-08
1.31246e-07
-8.98392e-08
1.49029e-07
-1.12798e-07
1.64751e-07
-1.37328e-07
1.78466e-07
-1.63189e-07
1.90261e-07
-1.90166e-07
2.00244e-07
-2.18062e-07
2.08534e-07
-2.46698e-07
2.15256e-07
-2.75913e-07
2.2053e-07
-3.05554e-07
2.24468e-07
-3.35485e-07
2.27173e-07
-3.65572e-07
2.28733e-07
-3.95694e-07
2.29222e-07
-4.25732e-07
2.28696e-07
-4.5557e-07
2.272e-07
-4.85096e-07
2.2476e-07
-5.14198e-07
2.21391e-07
-5.42761e-07
2.17097e-07
-5.70674e-07
2.11871e-07
-5.97819e-07
2.05699e-07
-6.24078e-07
1.9856e-07
-6.4933e-07
1.90432e-07
-6.7345e-07
1.8129e-07
-6.96313e-07
1.71112e-07
-7.17788e-07
1.59879e-07
-7.37746e-07
1.47578e-07
-7.56054e-07
1.34204e-07
-7.72581e-07
1.19762e-07
-7.87196e-07
1.04268e-07
-7.99773e-07
8.77544e-08
-8.10186e-07
7.02647e-08
-8.18318e-07
5.18606e-08
-8.24057e-07
3.26205e-08
-8.27303e-07
1.26407e-08
-8.27966e-07
-7.96469e-09
-8.25968e-07
-2.90631e-08
-8.21249e-07
-5.05042e-08
-8.13767e-07
-7.21208e-08
-8.03497e-07
-9.37297e-08
-7.9044e-07
-1.15133e-07
-7.74619e-07
-1.36122e-07
-7.56084e-07
-1.56477e-07
-7.34911e-07
-1.75973e-07
-7.11208e-07
-1.94382e-07
-6.8511e-07
-2.11475e-07
-6.56783e-07
-2.2703e-07
-6.26422e-07
-2.40836e-07
-5.94252e-07
-2.52693e-07
-5.60525e-07
-2.62424e-07
-5.25516e-07
-2.69872e-07
-4.89526e-07
-2.74911e-07
-4.52869e-07
-2.77448e-07
-4.15876e-07
-2.77423e-07
-3.78887e-07
-2.74818e-07
-3.42241e-07
-2.69654e-07
-3.06279e-07
-2.61996e-07
-2.71329e-07
-2.51952e-07
-2.37707e-07
-2.39671e-07
-2.05705e-07
-2.25347e-07
-1.75588e-07
-2.09211e-07
-1.47589e-07
-1.9153e-07
-1.21903e-07
-1.72609e-07
-9.86824e-08
-1.52781e-07
-7.8034e-08
-1.32408e-07
-6.00156e-08
-1.11875e-07
-4.46341e-08
-9.15908e-08
-3.1844e-08
-7.19823e-08
-2.15465e-08
-5.34941e-08
-1.35894e-08
-3.65867e-08
-7.76745e-09
-2.17356e-08
-3.8238e-09
-9.43038e-09
-1.45131e-09
-1.74127e-10
-2.95296e-10
5.51833e-09
4.28408e-11
7.12291e-09
4.10109e-09
-2.61029e-09
1.63213e-08
-9.78858e-09
4.75752e-08
-2.09538e-08
7.69588e-08
-3.55891e-08
1.0417e-07
-5.32347e-08
1.29042e-07
-7.3483e-08
1.51494e-07
-9.59718e-08
1.71517e-07
-1.2038e-07
1.89159e-07
-1.46421e-07
2.04507e-07
-1.7384e-07
2.1768e-07
-2.02409e-07
2.28813e-07
-2.31923e-07
2.38049e-07
-2.62197e-07
2.45531e-07
-2.93064e-07
2.51397e-07
-3.2437e-07
2.55774e-07
-3.55972e-07
2.58776e-07
-3.87738e-07
2.605e-07
-4.19544e-07
2.61028e-07
-4.5127e-07
2.60422e-07
-4.82798e-07
2.58728e-07
-5.14016e-07
2.55977e-07
-5.44808e-07
2.52184e-07
-5.75062e-07
2.47351e-07
-6.04661e-07
2.4147e-07
-6.33487e-07
2.34525e-07
-6.61419e-07
2.26493e-07
-6.88334e-07
2.17347e-07
-7.14104e-07
2.0706e-07
-7.38599e-07
1.95607e-07
-7.61686e-07
1.82965e-07
-7.83228e-07
1.6912e-07
-8.03089e-07
1.54065e-07
-8.2113e-07
1.37803e-07
-8.37214e-07
1.20352e-07
-8.51205e-07
1.01745e-07
-8.62968e-07
8.20281e-08
-8.72376e-07
6.12683e-08
-8.79305e-07
3.95501e-08
-8.83643e-07
1.6978e-08
-8.85284e-07
-6.3232e-09
-8.84139e-07
-3.02085e-08
-8.80131e-07
-5.45125e-08
-8.73201e-07
-7.90505e-08
-8.63311e-07
-1.03619e-07
-8.50446e-07
-1.27998e-07
-8.34615e-07
-1.51954e-07
-8.15852e-07
-1.7524e-07
-7.94226e-07
-1.976e-07
-7.69831e-07
-2.18776e-07
-7.42797e-07
-2.38508e-07
-7.13288e-07
-2.5654e-07
-6.81497e-07
-2.72627e-07
-6.47653e-07
-2.86537e-07
-6.12017e-07
-2.9806e-07
-5.74878e-07
-3.07011e-07
-5.3655e-07
-3.13239e-07
-4.97372e-07
-3.16626e-07
-4.57698e-07
-3.17097e-07
-4.17896e-07
-3.1462e-07
-3.78339e-07
-3.09211e-07
-3.39399e-07
-3.00936e-07
-3.01441e-07
-2.8991e-07
-2.64815e-07
-2.76297e-07
-2.29849e-07
-2.60313e-07
-1.96844e-07
-2.42216e-07
-1.66064e-07
-2.2231e-07
-1.37733e-07
-2.00939e-07
-1.12031e-07
-1.78483e-07
-8.90872e-08
-1.55352e-07
-6.89768e-08
-1.31985e-07
-5.17208e-08
-1.08847e-07
-3.72827e-08
-8.64205e-08
-2.5568e-08
-6.52088e-08
-1.64245e-08
-4.57303e-08
-9.64235e-09
-2.85178e-08
-4.95559e-09
-1.41171e-08
-2.04387e-09
-3.08584e-09
-5.34987e-10
4.00947e-09
-8.46794e-12
6.59639e-09
4.09262e-09
-2.78114e-09
1.91024e-08
-1.04225e-08
5.52165e-08
-2.22961e-08
8.88324e-08
-3.7842e-08
1.19716e-07
-5.65626e-08
1.47763e-07
-7.80168e-08
1.72949e-07
-1.01815e-07
1.95315e-07
-1.27612e-07
2.14956e-07
-1.55104e-07
2.31999e-07
-1.84021e-07
2.46597e-07
-2.14124e-07
2.58916e-07
-2.452e-07
2.69124e-07
-2.77057e-07
2.77388e-07
-3.09524e-07
2.83863e-07
-3.42444e-07
2.88693e-07
-3.75673e-07
2.92005e-07
-4.09077e-07
2.93905e-07
-4.42532e-07
2.94482e-07
-4.75916e-07
2.93806e-07
-5.09114e-07
2.91926e-07
-5.4201e-07
2.88873e-07
-5.74492e-07
2.84665e-07
-6.06444e-07
2.79303e-07
-6.37751e-07
2.72777e-07
-6.68293e-07
2.65067e-07
-6.97949e-07
2.56148e-07
-7.26592e-07
2.45991e-07
-7.54095e-07
2.34562e-07
-7.80322e-07
2.21835e-07
-8.05139e-07
2.07782e-07
-8.28404e-07
1.92385e-07
-8.49975e-07
1.75636e-07
-8.69708e-07
1.57536e-07
-8.87456e-07
1.38101e-07
-9.03075e-07
1.17364e-07
-9.16421e-07
9.5374e-08
-9.27353e-07
7.22003e-08
-9.35735e-07
4.79324e-08
-9.41439e-07
2.26816e-08
-9.44344e-07
-3.41832e-09
-9.44341e-07
-3.02109e-08
-9.41337e-07
-5.75168e-08
-9.35253e-07
-8.51344e-08
-9.26031e-07
-1.12841e-07
-9.13637e-07
-1.40393e-07
-8.98059e-07
-1.67532e-07
-8.79316e-07
-1.93982e-07
-8.57458e-07
-2.19458e-07
-8.32567e-07
-2.43667e-07
-8.04763e-07
-2.66312e-07
-7.74201e-07
-2.87103e-07
-7.41072e-07
-3.05755e-07
-7.05607e-07