/*--------------------------------*- C++ -*----------------------------------*\
  =========                 |
  \\      /  F ield         | OpenFOAM: The Open Source CFD Toolbox
   \\    /   O peration     | Website:  https://openfoam.org
    \\  /    A nd           | Version:  7
     \\/     M anipulation  |
\*---------------------------------------------------------------------------*/
FoamFile
{
    version     2.0;
    format      ascii;
    class       volScalarField;
    location    "0.05";
    object      p;
}
// * * * * * * * * * * * * * * * * * * * * * * * * * * * * * * * * * * * * * //

dimensions      [0 2 -2 0 0 0 0];

internalField   nonuniform List<scalar> 
6400
(
-1.18642e-08
-4.12132e-05
-0.000164135
-0.000350526
-0.000568798
-0.000794921
-0.00101369
-0.00121421
-0.00138788
-0.00152833
-0.00163106
-0.00169282
-0.00171137
-0.00168512
-0.00161325
-0.00149603
-0.00133435
-0.00112891
-0.000880324
-0.000589597
-0.00025817
0.000112352
0.00052041
0.000964501
0.00144326
0.00195538
0.00249937
0.0030735
0.00367591
0.00430486
0.00495867
0.00563556
0.00633375
0.00705144
0.00778678
0.00853777
0.00930222
0.010078
0.0108629
0.0116547
0.0124511
0.0132497
0.0140481
0.0148442
0.0156355
0.0164197
0.017194
0.017956
0.0187031
0.019433
0.0201428
0.02083
0.0214919
0.0221263
0.0227305
0.0233024
0.0238395
0.0243398
0.0248013
0.0252222
0.0256006
0.0259345
0.0262221
0.0264618
0.0266524
0.0267932
0.026884
0.0269252
0.0269179
0.0268643
0.0267673
0.0266309
0.0264609
0.0262644
0.0260511
0.0258336
0.0256281
0.0254554
0.0253421
0.0253062
3.22718e-05
-1.70376e-05
-0.000122601
-0.00027353
-0.000447669
-0.000628274
-0.000803911
-0.000965146
-0.00110453
-0.00121591
-0.00129432
-0.00133649
-0.00134006
-0.00130303
-0.00122425
-0.0011034
-0.000940774
-0.00073702
-0.0004928
-0.000208811
0.000114034
0.000474573
0.000871437
0.00130314
0.00176826
0.0022655
0.00279342
0.00335042
0.00393489
0.0045453
0.00518003
0.00583727
0.00651522
0.00721215
0.00792625
0.00865552
0.00939789
0.0101513
0.0109136
0.0116825
0.0124557
0.0132309
0.0140058
0.0147784
0.0155463
0.016307
0.0170579
0.0177967
0.018521
0.0192281
0.0199156
0.020581
0.0212218
0.0218358
0.0224207
0.0229743
0.0234943
0.0239789
0.0244263
0.0248349
0.0252029
0.0255286
0.0258106
0.0260475
0.0262385
0.0263833
0.0264819
0.026535
0.0265442
0.0265116
0.0264405
0.0263349
0.0262004
0.0260438
0.0258736
0.0257007
0.0255376
0.0254
0.0253064
0.0252707
0.000133332
6.26357e-05
-4.34672e-05
-0.000178554
-0.000329189
-0.000483533
-0.00063235
-0.000767947
-0.000883989
-0.000974721
-0.0010356
-0.00106322
-0.00105509
-0.00100953
-0.000925225
-0.00080134
-0.000637753
-0.000434918
-0.0001935
8.58148e-05
0.000402392
0.000755397
0.00114363
0.00156575
0.00202039
0.00250616
0.0030216
0.00356519
0.00413556
0.00473134
0.00535095
0.00599267
0.00665473
0.0073354
0.00803287
0.00874513
0.00947019
0.0102061
0.0109507
0.0117017
0.0124568
0.0132138
0.0139707
0.0147252
0.015475
0.0162176
0.0169506
0.0176715
0.018378
0.0190678
0.0197381
0.0203868
0.0210115
0.0216102
0.0221805
0.0227203
0.0232277
0.0237007
0.0241377
0.0245371
0.0248975
0.0252172
0.0254951
0.0257301
0.0259218
0.02607
0.0261749
0.0262372
0.0262587
0.0262414
0.0261887
0.0261044
0.0259937
0.0258626
0.0257188
0.0255711
0.0254298
0.0253066
0.0252131
0.0251581
0.000284779
0.000182001
6.35577e-05
-6.88076e-05
-0.000210181
-0.0003515
-0.000485349
-0.00060541
-0.000706009
-0.00078263
-0.000831188
-0.000848171
-0.000831261
-0.000778946
-0.000690029
-0.000563657
-0.000399373
-0.000197227
4.22574e-05
0.000318401
0.000630544
0.000977875
0.00135934
0.00177378
0.00221998
0.00269652
0.00320194
0.00373483
0.00429392
0.0048779
0.00548524
0.00611434
0.00676357
0.00743116
0.00811521
0.00881381
0.00952501
0.0102469
0.0109773
0.011714
0.0124546
0.0131973
0.01394
0.0146803
0.0154159
0.0161443
0.0168631
0.01757
0.0182627
0.0189387
0.0195956
0.0202312
0.0208436
0.0214305
0.0219897
0.0225192
0.0230171
0.0234814
0.0239106
0.0243032
0.0246578
0.0249731
0.0252479
0.0254818
0.0256743
0.0258254
0.0259352
0.0260045
0.0260349
0.0260286
0.0259885
0.0259184
0.0258226
0.0257067
0.0255771
0.025441
0.0253067
0.0251833
0.0250755
0.0249859
0.000468098
0.000327221
0.000189716
5.18884e-05
-8.81245e-05
-0.000223815
-0.0003494
-0.000459445
-0.00054941
-0.000615583
-0.000654523
-0.000663259
-0.000639529
-0.000581718
-0.000488797
-0.000360109
-0.00019514
6.30696e-06
0.000244007
0.000517492
0.000826032
0.00116868
0.00154446
0.00195234
0.00239113
0.00285945
0.00335599
0.00387955
0.00442885
0.00500256
0.00559923
0.00621732
0.00685529
0.00751138
0.00818366
0.00887027
0.00956942
0.0102791
0.0109971
0.0117213
0.0124497
0.0131801
0.0139106
0.0146388
0.0153622
0.0160785
0.0167852
0.0174802
0.018161
0.0188253
0.0194708
0.0200955
0.0206975
0.0212747
0.0218248
0.0223457
0.0228357
0.0232929
0.0237158
0.0241028
0.0244527
0.0247643
0.0250369
0.02527
0.0254634
0.0256169
0.0257307
0.0258054
0.0258427
0.0258446
0.0258139
0.0257537
0.025668
0.0255615
0.0254394
0.0253075
0.0251726
0.0250412
0.0249113
0.0247797
0.000667557
0.000486096
0.000325
0.000176006
3.11262e-05
-0.000104847
-0.000227198
-0.000332023
-0.000415617
-0.000474672
-0.000506567
-0.000509074
-0.000480183
-0.000418268
-0.000322262
-0.000191563
-2.58091e-05
0.00017519
0.000411423
0.000682579
0.000987951
0.00132663
0.0016977
0.0021001
0.0025326
0.0029939
0.00348288
0.00399847
0.00453944
0.00510442
0.00569206
0.00630088
0.00692925
0.00757541
0.00823762
0.00891409
0.00960298
0.0103023
0.0110099
0.0117237
0.0124418
0.0131621
0.0138826
0.0146006
0.0153139
0.0160201
0.016717
0.0174021
0.0180731
0.0187279
0.0193642
0.0199802
0.0205739
0.0211433
0.021686
0.0222001
0.0226839
0.0231356
0.0235535
0.0239362
0.0242825
0.0245916
0.0248628
0.0250955
0.0252897
0.025445
0.0255615
0.0256401
0.0256824
0.0256902
0.0256658
0.0256121
0.0255322
0.0254303
0.0253105
0.0251772
0.0250358
0.024891
0.024735
0.0245593
0.000868435
0.00064611
0.000459326
0.000295443
0.000141175
5.81392e-07
-0.000122692
-0.000226118
-0.00030673
-0.000361804
-0.000389268
-0.000387393
-0.000354664
-0.000289749
-0.00019156
-5.94097e-05
0.000107014
0.00030785
0.000543077
0.00081236
0.00111507
0.00145044
0.0018176
0.00221544
0.00264271
0.00309834
0.00358126
0.00409037
0.00462451
0.0051824
0.00576269
0.00636388
0.00698435
0.00762237
0.00827629
0.00894446
0.00962504
0.010316
0.0110152
0.0117208
0.0124308
0.0131432
0.0138556
0.0145657
0.015271
0.0159694
0.0166586
0.017336
0.0179996
0.0186471
0.0192766
0.0198861
0.0204736
0.0210371
0.0215743
0.0220834
0.0225626
0.0230103
0.0234247
0.0238045
0.0241486
0.0244562
0.0247265
0.0249592
0.0251539
0.0253103
0.0254287
0.0255099
0.0255554
0.0255668
0.0255462
0.0254957
0.0254181
0.0253167
0.0251949
0.0250557
0.0249035
0.024742
0.0245581
0.0243391
0.00105869
0.000797121
0.000583994
0.00040313
0.000236994
8.85726e-05
-3.89276e-05
-0.000143701
-0.000223877
-0.000277486
-0.000302755
-0.000298269
-0.000262943
-0.000195832
-9.60339e-05
3.71118e-05
0.000203982
0.00040474
0.000639242
0.000907084
0.00120775
0.00154053
0.00190451
0.00229862
0.00272176
0.00317293
0.00365118
0.00415533
0.00468417
0.00523655
0.00581112
0.00640628
0.00702043
0.00765205
0.00829959
0.00896136
0.00963548
0.01032
0.0110129
0.0117125
0.0124166
0.013123
0.0138295
0.0145336
0.0152331
0.0159258
0.0166094
0.0172815
0.0179399
0.0185825
0.0192074
0.0198125
0.0203959
0.0209553
0.0214887
0.0219944
0.0224707
0.0229159
0.0233282
0.0237065
0.0240495
0.0243565
0.0246267
0.0248594
0.0250544
0.0252115
0.0253309
0.0254136
0.0254609
0.0254742
0.025455
0.0254051
0.0253267
0.0252226
0.0250953
0.0249471
0.0247815
0.0246015
0.0243897
0.0241298
0.00122943
0.000930893
0.000691728
0.000493231
0.000313743
0.000155477
2.15069e-05
-8.68848e-05
-0.000168685
-0.000222627
-0.000247391
-0.000241851
-0.000205136
-0.000136594
-3.56318e-05
9.82936e-05
0.000265544
0.000466228
0.000700149
0.000966925
0.0012661
0.00159697
0.00195853
0.00234981
0.00276993
0.00321791
0.00369272
0.00419327
0.00471839
0.00526682
0.00583716
0.00642787
0.00703744
0.00766448
0.00830746
0.00896469
0.00963428
0.0103144
0.0110031
0.0116987
0.0123988
0.0131012
0.0138036
0.0145038
0.0151996
0.0158888
0.016569
0.0172379
0.0178933
0.0185333
0.0191558
0.0197586
0.0203396
0.0208968
0.0214282
0.0219322
0.0224071
0.0228512
0.0232629
0.0236408
0.0239838
0.0242909
0.0245613
0.0247943
0.0249896
0.0251471
0.0252671
0.0253505
0.0253983
0.0254118
0.025392
0.0253404
0.0252588
0.0251494
0.0250143
0.024855
0.0246746
0.0244755
0.0242366
0.023939
0.00137375
0.00104099
0.00077696
0.000560452
0.00036688
0.000197918
5.60814e-05
-5.77388e-05
-0.000142849
-0.000198527
-0.000224042
-0.000218605
-0.00018154
-0.000112363
-1.06966e-05
0.000123845
0.000291465
0.000492119
0.000725667
0.000991821
0.00129002
0.0016195
0.00197944
0.00236893
0.00278711
0.00323307
0.00370575
0.00420408
0.00472688
0.00527284
0.00584052
0.00642842
0.00703519
0.00765952
0.00829982
0.00895437
0.00962139
0.0102991
0.0109857
0.0116791
0.0123771
0.0130773
0.0137777
0.0144761
0.0151702
0.0158579
0.0165369
0.0172048
0.0178595
0.018499
0.019121
0.0197233
0.0203039
0.0208608
0.021392
0.0218959
0.022371
0.0228155
0.0232278
0.0236064
0.0239502
0.0242581
0.0245292
0.0247628
0.0249586
0.0251165
0.0252369
0.0253203
0.0253677
0.0253799
0.0253578
0.0253026
0.025216
0.0250996
0.0249551
0.0247835
0.0245877
0.0243695
0.024105
0.0237729
0.0014864
0.00112257
0.000835002
0.000600617
0.000392735
0.000212601
6.21313e-05
-5.81901e-05
-0.000147879
-0.000206525
-0.000233806
-0.000229334
-0.000192704
-0.000123545
-2.15947e-05
0.000113299
0.000281185
0.000481962
0.000715462
0.000981397
0.00127915
0.00160793
0.00196703
0.00235572
0.00277309
0.00321816
0.00368995
0.0041874
0.00470929
0.00525422
0.00582079
0.00640763
0.00701347
0.00763695
0.00827643
0.0089302
0.00959659
0.0102739
0.0109602
0.0116533
0.0123511
0.0130511
0.0137515
0.0144501
0.0151447
0.015833
0.0165129
0.0171819
0.017838
0.018479
0.0191025
0.0197063
0.0202884
0.0208468
0.0213796
0.0218853
0.0223622
0.0228084
0.0232224
0.0236027
0.0239482
0.0242575
0.0245299
0.0247647
0.0249614
0.02512
0.0252405
0.0253235
0.0253695
0.0253793
0.0253536
0.0252935
0.0252005
0.025076
0.0249211
0.0247367
0.0245251
0.0242882
0.0239997
0.0236363
0.00156363
0.00117145
0.000862008
0.000610549
0.000388315
0.000196621
3.71258e-05
-9.02341e-05
-0.000185335
-0.000247914
-0.000277848
-0.000275081
-0.000239465
-0.000170798
-6.89247e-05
6.6091e-05
0.000234149
0.000435209
0.00066906
0.00093521
0.00123304
0.00156189
0.00192112
0.00230995
0.0027275
0.00317281
0.00364495
0.00414283
0.00466512
0.00521046
0.00577756
0.00636515
0.0069719
0.00759635
0.00823684
0.00889173
0.00955945
0.0102382
0.0109261
0.0116209
0.0123202
0.0130222
0.0137247
0.0144257
0.0151228
0.015814
0.0164968
0.017169
0.0178285
0.018473
0.0191
0.0197072
0.0202928
0.0208547
0.0213911
0.0219003
0.0223804
0.0228298
0.0232467
0.0236297
0.0239777
0.0242893
0.0245638
0.0248003
0.0249984
0.0251577
0.0252782
0.0253602
0.0254042
0.0254107
0.0253805
0.0253146
0.0252144
0.025081
0.0249152
0.0247174
0.0244901
0.0242351
0.0239242
0.0235325
0.00160276
0.00118442
0.000854819
0.000587269
0.000351011
0.00014764
-2.11793e-05
-0.000155953
-0.000256938
-0.000324067
-0.000357379
-0.000356964
-0.000322815
-0.000254974
-0.000153531
-1.85716e-05
0.000149796
0.000351396
0.000585875
0.000852697
0.00115129
0.00148107
0.00184132
0.00223124
0.00264997
0.00309665
0.00357032
0.00406982
0.00459383
0.00514111
0.00571044
0.00630054
0.00690995
0.00753712
0.00818045
0.00883838
0.00950934
0.0101915
0.0108828
0.0115811
0.0122842
0.0129902
0.013697
0.0144026
0.0151045
0.0158005
0.0164885
0.017166
0.0178309
0.0184807
0.0191131
0.0197258
0.0203169
0.0208844
0.0214262
0.0219405
0.0224255
0.0228793
0.0233003
0.0236872
0.0240387
0.0243536
0.0246308
0.0248696
0.0250693
0.0252294
0.0253498
0.0254305
0.0254719
0.0254747
0.0254395
0.0253673
0.0252593
0.0251164
0.0249392
0.0247279
0.024485
0.0242126
0.0238808
0.0234632
0.00160205
0.00115943
0.000810809
0.000528073
0.00027847
6.35594e-05
-0.00011482
-0.000257304
-0.000364501
-0.000436616
-0.000473745
-0.000476073
-0.000443815
-0.000377156
-0.000276305
-0.000141389
2.74409e-05
0.000229836
0.000465311
0.000733372
0.00103349
0.001365
0.00172714
0.00211908
0.00254006
0.00298922
0.00346554
0.00396787
0.004495
0.00504578
0.00561903
0.00621331
0.00682704
0.00745866
0.00810665
0.00876948
0.00944553
0.0101329
0.0108295
0.0115334
0.0122424
0.0129547
0.0136681
0.0143804
0.0150892
0.0157923
0.0164874
0.0171723
0.0178446
0.0185018
0.0191415
0.0197618
0.0203604
0.0209354
0.0214844
0.0220055
0.0224968
0.0229566
0.0233831
0.0237751
0.0241312
0.0244502
0.0247309
0.0249723
0.0251739
0.0253349
0.025455
0.0255343
0.0255731
0.025572
0.0255316
0.0254528
0.0253366
0.0251838
0.0249949
0.02477
0.0245118
0.0242228
0.0238712
0.0234298
0.00156035
0.00109487
0.000728068
0.000430784
0.000168406
-5.77233e-05
-0.000245723
-0.000396189
-0.000509851
-0.000587176
-0.000628388
-0.000633744
-0.000603637
-0.00053837
-0.000438129
-0.000303128
-0.000133685
6.97574e-05
0.000306711
0.000576685
0.000879071
0.0012131
0.00157798
0.00197296
0.00239727
0.00285
0.00333012
0.00383658
0.00436832
0.00492422
0.00550297
0.00610299
0.00672264
0.00736042
0.00801486
0.00868442
0.00936738
0.0100618
0.0107658
0.0114774
0.0121946
0.0129154
0.0136375
0.0143585
0.0150763
0.0157886
0.0164931
0.0171874
0.017869
0.0185355
0.0191848
0.0198146
0.0204228
0.0210071
0.0215651
0.0220946
0.0225939
0.0230612
0.0234949
0.0238934
0.0242553
0.0245791
0.0248638
0.0251084
0.0253121
0.0254742
0.0255943
0.0256723
0.0257087
0.0257037
0.025658
0.0255724
0.0254478
0.0252848
0.025084
0.0248456
0.0245725
0.0242674
0.0238972
0.0234335
0.00147633
0.000989252
0.000605103
0.000293631
1.87228e-05
-0.000218369
-0.000415852
-0.000574411
-0.000694741
-0.000777381
-0.000822783
-0.000831372
-0.00080355
-0.00073965
-0.000639916
-0.000504704
-0.000334462
-0.000129622
0.000109368
0.00038192
0.000687272
0.00102461
0.00139319
0.00179226
0.00222099
0.00267841
0.0031636
0.00367566
0.00421357
0.00477613
0.00536186
0.0059691
0.00659626
0.00724191
0.00790458
0.00858265
0.00927434
0.00997782
0.0106913
0.0114128
0.0121403
0.0128716
0.0136044
0.0143364
0.0150654
0.0157891
0.016505
0.0172107
0.0179038
0.0185819
0.0192427
0.0198841
0.0205038
0.0210992
0.0216678
0.0222076
0.0227167
0.0231934
0.0236357
0.0240421
0.0244109
0.0247407
0.0250301
0.0252784
0.0254847
0.0256483
0.0257688
0.0258459
0.02588
0.0258712
0.0258201
0.0257275
0.0255942
0.0254209
0.0252081
0.0249563
0.0246687
0.024348
0.0239599
0.0234751
0.0013486
0.000841192
0.000440422
0.000115013
-0.000172322
-0.000420291
-0.000627195
-0.000793802
-0.000920813
-0.00100884
-0.00105851
-0.00107036
-0.00104477
-0.000982097
-0.000882754
-0.00074719
-0.00057584
-0.000369115
-0.000127533
0.000148184
0.000457207
0.000798743
0.00117204
0.00157627
0.0020105
0.00247386
0.00296555
0.00348474
0.00403035
0.00460099
0.00519511
0.00581109
0.0064474
0.00710264
0.00777526
0.0084636
0.00916592
0.0098805
0.0106056
0.0113392
0.012079
0.0128229
0.0135685
0.0143135
0.0150559
0.0157932
0.0165228
0.0172422
0.0179489
0.0186408
0.0193153
0.0199704
0.0206034
0.0212117
0.0217928
0.0223448
0.0228656
0.0233534
0.0238061
0.0242218
0.0245986
0.0249352
0.0252303
0.0254831
0.0256927
0.0258584
0.0259796
0.0260562
0.026088
0.0260753
0.0260187
0.025919
0.0257768
0.0255931
0.0253685
0.0251035
0.0248014
0.0244654
0.02406
0.0235547
0.0011763
0.000649286
0.000232457
-0.000106595
-0.00040636
-0.000665261
-0.000881534
-0.0010561
-0.00118977
-0.00128323
-0.00133717
-0.00135211
-0.00132855
-0.00126698
-0.00116789
-0.0010317
-0.000858799
-0.000649676
-0.000404989
-0.00012551
0.000187967
0.000534643
0.000913655
0.00132407
0.00176499
0.00223566
0.00273536
0.00326319
0.00381791
0.00439801
0.00500196
0.00562824
0.00627538
0.00694191
0.00762622
0.0083267
0.00904169
0.0097695
0.0105083
0.011256
0.0120101
0.0127686
0.0135291
0.0142895
0.0150475
0.0158007
0.0165462
0.0172816
0.0180044
0.0187123
0.0194028
0.0200734
0.0207216
0.0213447
0.0219404
0.0225065
0.0230411
0.0235418
0.0240064
0.0244326
0.0248188
0.0251633
0.0254652
0.0257234
0.0259372
0.0261056
0.0262279
0.0263039
0.0263335
0.026317
0.0262549
0.026148
0.025997
0.0258029
0.0255663
0.025288
0.0249716
0.0246203
0.0241977
0.0236723
0.00095886
0.000412343
-2.03678e-05
-0.000372872
-0.000685015
-0.000954892
-0.00118054
-0.00136305
-0.00150339
-0.00160224
-0.00166027
-0.00167811
-0.00165641
-0.00159575
-0.0014966
-0.00135935
-0.00118443
-0.000972446
-0.000724115
-0.000440172
-0.000121399
0.000231302
0.000616952
0.00103462
0.00148351
0.00196296
0.00247215
0.00300999
0.00357513
0.00416609
0.00478142
0.00541966
0.00607932
0.00675885
0.00745669
0.00817128
0.00890102
0.00964418
0.0103987
0.0111624
0.0119329
0.012708
0.0134857
0.0142637
0.0150397
0.015811
0.0165749
0.0173286
0.0180699
0.018796
0.0195046
0.020193
0.0208584
0.0214985
0.0221108
0.0226931
0.0232433
0.0237586
0.0242366
0.0246749
0.0250717
0.0254256
0.0257355
0.0260004
0.0262191
0.0263907
0.0265145
0.0265902
0.0266178
0.0265977
0.0265303
0.0264162
0.0262564
0.0260517
0.025803
0.0255112
0.0251803
0.0248138
0.0243739
0.0238283
0.000695572
0.000129345
-0.000319447
-0.000685426
-0.00100986
-0.00129076
-0.00152593
-0.00171648
-0.00186344
-0.00196751
-0.00202945
-0.00205004
-0.00203
-0.00196991
-0.00187023
-0.00173142
-0.00155402
-0.00133868
-0.00108607
-0.000796892
-0.000472031
-0.000112502
0.000280722
0.000706811
0.00116504
0.00165465
0.00217463
0.00272377
0.0033007
0.00390404
0.00453237
0.00518423
0.00585809
0.00655241
0.00726569
0.00799645
0.00874302
0.0095035
0.0102757
0.0110574
0.0118463
0.0126404
0.0134375
0.0142355
0.0150317
0.0158235
0.016608
0.0173826
0.0181446
0.0188914
0.0196203
0.0203286
0.0210137
0.021673
0.0223041
0.0229048
0.0234723
0.0240039
0.0244969
0.0249489
0.025358
0.0257229
0.0260422
0.0263147
0.0265392
0.0267146
0.0268404
0.0269163
0.0269424
0.0269189
0.0268464
0.0267253
0.0265566
0.0263412
0.0260802
0.0257747
0.0254291
0.0250469
0.0245894
0.0240232
0.000385539
-0.000200729
-0.000665953
-0.00104566
-0.00138253
-0.00167461
-0.00191949
-0.00211814
-0.00227164
-0.00238082
-0.00244656
-0.00246971
-0.002451
-0.00239102
-0.00229031
-0.00214946
-0.00196908
-0.00174975
-0.00149212
-0.00119698
-0.000865313
-0.00049812
-9.62694e-05
0.000339486
0.000808342
0.00130934
0.00184134
0.00240307
0.00299326
0.00361055
0.00425353
0.00492068
0.00561045
0.00632141
0.00705212
0.00780104
0.00856639
0.0093461
0.010138
0.0109397
0.0117492
0.0125645
0.0133834
0.0142036
0.0150225
0.0158371
0.0166447
0.0174424
0.0182277
0.0189975
0.0197492
0.0204799
0.021187
0.021868
0.0225203
0.0231413
0.0237281
0.0242778
0.0247875
0.0252551
0.0256784
0.0260559
0.0263859
0.0266672
0.0268983
0.0270783
0.0272067
0.0272834
0.0273086
0.0272823
0.0272048
0.0270767
0.0268989
0.0266726
0.0263991
0.0260796
0.0257188
0.0253205
0.0248449
0.0242573
2.77101e-05
-0.000579023
-0.0010611
-0.00145501
-0.00180471
-0.0021082
-0.00236292
-0.00256976
-0.00272985
-0.00284414
-0.00291356
-0.00293899
-0.00292118
-0.00286084
-0.00275864
-0.00261524
-0.00243122
-0.00220718
-0.00194383
-0.00164204
-0.00130278
-0.00092694
-0.000515299
-6.86728e-05
0.000411956
0.000925475
0.00147071
0.00204644
0.0026514
0.00328425
0.0039435
0.0046276
0.00533509
0.00606458
0.00681466
0.00758368
0.00836967
0.00917052
0.00998405
0.0108081
0.0116406
0.0124795
0.0133226
0.0141673
0.015011
0.0158508
0.0166838
0.0175072
0.0183181
0.0191135
0.0198905
0.0206463
0.0213781
0.0220833
0.022759
0.0234025
0.0240106
0.0245804
0.025109
0.0255941
0.0260335
0.0264252
0.0267674
0.0270585
0.0272972
0.0274828
0.0276148
0.0276933
0.0277181
0.0276892
0.0276068
0.0274715
0.0272845
0.0270472
0.0267608
0.026427
0.0260504
0.0256353
0.0251406
0.0245308
-0.000379112
-0.00100693
-0.00150638
-0.00191508
-0.0022781
-0.00259328
-0.00285801
-0.00307322
-0.00324005
-0.00335947
-0.00343241
-0.00345978
-0.0034425
-0.0033814
-0.00327723
-0.00313065
-0.00294228
-0.00271281
-0.00244303
-0.00213383
-0.00178602
-0.00140041
-0.000977822
-0.000519234
-2.57733e-05
0.000501411
0.00106119
0.00165238
0.00227367
0.00292364
0.00360077
0.00430356
0.00503062
0.00578057
0.00655191
0.00734286
0.0081514
0.00897541
0.00981283
0.0106616
0.0115195
0.0123844
0.013254
0.0141256
0.0149965
0.0158639
0.0167248
0.0175762
0.0184153
0.0192389
0.020044
0.0208276
0.0215868
0.0223186
0.0230202
0.0236884
0.0243201
0.0249122
0.025462
0.0259668
0.0264241
0.0268317
0.0271875
0.0274898
0.0277375
0.0279299
0.0280668
0.0281477
0.0281725
0.0281411
0.0280538
0.0279114
0.0277152
0.0274666
0.0271671
0.0268182
0.0264251
0.0259924
0.0254775
0.0248441
-0.00083624
-0.00148603
-0.00200352
-0.00242752
-0.00280436
-0.00313164
-0.00340673
-0.00363057
-0.00380427
-0.00392877
-0.00400506
-0.00403416
-0.00401711
-0.00395484
-0.00384813
-0.00369772
-0.00350432
-0.00326873
-0.00299176
-0.00267417
-0.0023167
-0.00192019
-0.00148559
-0.00101403
-0.000506641
3.54601e-05
0.000611182
0.00121931
0.00185844
0.00252708
0.00322376
0.00394706
0.00469557
0.00546784
0.00626228
0.00707704
0.00791013
0.00875951
0.00962317
0.010499
0.0113848
0.0122782
0.0131766
0.0140774
0.014978
0.0158754
0.0167667
0.0176488
0.0185188
0.0193733
0.0202093
0.0210235
0.0218128
0.0225739
0.0233038
0.0239993
0.0246571
0.0252742
0.0258476
0.0263742
0.0268515
0.0272766
0.0276476
0.0279628
0.0282211
0.0284218
0.0285644
0.0286485
0.0286737
0.0286401
0.0285481
0.0283986
0.028193
0.0279329
0.0276197
0.027255
0.0268445
0.026393
0.0258567
0.025198
-0.00134499
-0.00201796
-0.00255427
-0.00299413
-0.00338534
-0.00372529
-0.00401116
-0.00424388
-0.00442452
-0.00455407
-0.00463361
-0.0046643
-0.0046472
-0.00458331
-0.00447351
-0.00431866
-0.00411961
-0.00387718
-0.00359208
-0.003265
-0.00289673
-0.00248825
-0.00204065
-0.00155505
-0.00103252
-0.00047415
0.000118931
0.000745425
0.00140389
0.00209282
0.00281079
0.00355641
0.00432822
0.00512464
0.005944
0.00678453
0.00764432
0.0085214
0.00941374
0.0103191
0.0112352
0.0121593
0.013089
0.0140217
0.0149545
0.0158846
0.016809
0.0177245
0.0186281
0.0195164
0.0203861
0.0212338
0.0220559
0.0228491
0.0236101
0.0243356
0.0250224
0.0256671
0.0262664
0.0268172
0.0273163
0.0277611
0.0281492
0.0284792
0.0287498
0.0289602
0.0291096
0.0291974
0.0292235
0.029188
0.0290915
0.028935
0.0287199
0.0284477
0.02812
0.0277386
0.0273094
0.0268379
0.0262788
0.0255929
-0.00190675
-0.00260434
-0.00316052
-0.00361699
-0.00402325
-0.0043764
-0.00467342
-0.00491521
-0.00510289
-0.00523753
-0.00532031
-0.0053524
-0.00533495
-0.00526903
-0.00515567
-0.00499587
-0.00479051
-0.00454035
-0.00424606
-0.0039084
-0.0035283
-0.00310686
-0.00264519
-0.00214434
-0.00160535
-0.00102933
-0.00041751
0.000228761
0.000908061
0.00161893
0.00235995
0.00312967
0.00392654
0.00474891
0.00559513
0.0064635
0.00735223
0.00825937
0.00918276
0.01012
0.0110687
0.0120261
0.0129897
0.0139568
0.0149246
0.0158903
0.0168506
0.0178024
0.0187425
0.0196675
0.0205738
0.0214577
0.0223156
0.0231437
0.0239388
0.0246974
0.025416
0.026091
0.0267188
0.0272961
0.0278194
0.028286
0.0286936
0.0290405
0.0293252
0.0295465
0.0297037
0.0297961
0.0298238
0.0297869
0.0296861
0.0295225
0.0292974
0.0290125
0.0286693
0.02827
0.027821
0.0273281
0.0267445
0.0260294
-0.0025232
-0.00324708
-0.00382439
-0.0042984
-0.00472038
-0.00508721
-0.00539567
-0.00564675
-0.00584166
-0.00598148
-0.00606743
-0.00610073
-0.00608264
-0.00601437
-0.00589707
-0.00573177
-0.00551932
-0.00526046
-0.00495596
-0.00460672
-0.00421381
-0.00377835
-0.00330139
-0.00278396
-0.00222716
-0.00163216
-0.00100026
-0.000332786
0.000368905
0.00110338
0.00186913
0.00266465
0.00348832
0.00433848
0.00521357
0.00611197
0.00703192
0.00797139
0.00892809
0.00989955
0.0108832
0.0118765
0.0128766
0.013881
0.0148867
0.0158908
0.01689
0.0178811
0.0188607
0.0198254
0.0207712
0.0216944
0.022591
0.0234573
0.0242896
0.0250843
0.0258377
0.0265458
0.0272049
0.0278112
0.0283615
0.0288526
0.0292821
0.029648
0.0299486
0.0301824
0.0303486
0.0304468
0.0304769
0.0304391
0.0303342
0.0301633
0.0299276
0.029629
0.0292694
0.0288511
0.0283809
0.0278653
0.0272552
0.0265088
-0.00319643
-0.00394837
-0.00454817
-0.00504065
-0.00547902
-0.00586003
-0.00618035
-0.00644103
-0.00664334
-0.0067884
-0.00687743
-0.00691179
-0.00689285
-0.00682195
-0.00670026
-0.00652878
-0.00630838
-0.00603989
-0.00572424
-0.00536249
-0.00495573
-0.00450503
-0.00401146
-0.00347613
-0.00290021
-0.00228493
-0.00163157
-0.000941409
-0.000215748
0.000543941
0.00133607
0.00215904
0.00301126
0.00389116
0.00479722
0.00572785
0.00668121
0.00765518
0.00864735
0.00965524
0.0106763
0.011708
0.0127475
0.013792
0.0148386
0.0158841
0.0169252
0.0179586
0.0189809
0.0199883
0.0209769
0.0219426
0.0228813
0.023789
0.024662
0.0254961
0.0262874
0.0270317
0.027725
0.0283635
0.0289436
0.029462
0.0299161
0.0303033
0.0306217
0.0308698
0.0310467
0.0311519
0.0311853
0.0311472
0.0310382
0.0308595
0.0306128
0.0302998
0.0299227
0.0294842
0.0289914
0.0284513
0.0278127
0.0270321
-0.00392866
-0.0047105
-0.00533415
-0.00584607
-0.00630161
-0.00669746
-0.00703018
-0.00730082
-0.0075107
-0.00766102
-0.00775311
-0.00778842
-0.00776845
-0.00769453
-0.00756785
-0.00738941
-0.00716023
-0.00688128
-0.00655361
-0.00617833
-0.00575653
-0.00528931
-0.00477781
-0.00422328
-0.00362696
-0.00299005
-0.00231378
-0.00159939
-0.000848184
-6.17047e-05
0.000758398
0.00161053
0.00249316
0.00340482
0.00434398
0.00530896
0.00629781
0.00730831
0.00833809
0.00938471
0.0104457
0.0115184
0.0126
0.0136876
0.014778
0.0158679
0.016954
0.018033
0.0191012
0.0201547
0.0211895
0.0222013
0.0231857
0.0241385
0.0250555
0.0259325
0.0267651
0.0275489
0.0282798
0.0289537
0.0295669
0.0301157
0.030597
0.031008
0.0313464
0.0316108
0.0318001
0.0319137
0.0319514
0.0319133
0.0318003
0.0316137
0.0313553
0.0310272
0.0306316
0.0301714
0.0296544
0.0290878
0.0284185
0.0276006
-0.00472206
-0.00553573
-0.0061847
-0.00671722
-0.00719091
-0.00760241
-0.00794812
-0.00822911
-0.0084468
-0.00860248
-0.00869763
-0.00873378
-0.00871244
-0.00863497
-0.00850259
-0.00831647
-0.00807774
-0.00778752
-0.00744688
-0.00705693
-0.00661883
-0.00613379
-0.00560312
-0.00502813
-0.00441006
-0.00375008
-0.00304935
-0.00230914
-0.00153085
-0.000716022
0.000133704
0.0010168
0.00193183
0.00287729
0.00385159
0.00485294
0.00587928
0.00692838
0.00799796
0.0090857
0.0101891
0.0113055
0.012432
0.0135655
0.0147026
0.0158401
0.0169745
0.0181024
0.01922
0.0203232
0.0214079
0.0224695
0.0235033
0.0245049
0.0254697
0.0263933
0.0272708
0.0280979
0.0288701
0.0295831
0.0302327
0.030815
0.0313263
0.0317637
0.0321248
0.0324078
0.0326113
0.0327346
0.0327774
0.0327399
0.0326231
0.0324285
0.032158
0.0318138
0.0313984
0.0309151
0.0303719
0.0297766
0.0290738
0.0282154
-0.00557885
-0.00642651
-0.00710247
-0.00765696
-0.00814997
-0.00857802
-0.00893739
-0.00922922
-0.00945505
-0.00961627
-0.00971445
-0.00975117
-0.00972799
-0.00964635
-0.00950763
-0.00931313
-0.00906409
-0.00876167
-0.00840696
-0.00800113
-0.0075455
-0.00704145
-0.00649037
-0.0058936
-0.00525234
-0.00456772
-0.00384095
-0.00307338
-0.00226643
-0.00142165
-0.000540554
0.000375425
0.00132484
0.00230613
0.00331757
0.00435726
0.00542313
0.00651302
0.00762474
0.00875606
0.00990452
0.0110673
0.0122414
0.0134235
0.0146103
0.0157985
0.0169845
0.0181648
0.0193354
0.0204922
0.0216305
0.0227457
0.0238329
0.0248872
0.0259039
0.026878
0.0278046
0.0286791
0.0294966
0.0302525
0.0309421
0.0315611
0.0321058
0.0325727
0.0329592
0.0332631
0.0334828
0.0336174
0.0336664
0.0336303
0.0335102
0.0333075
0.0330244
0.0326631
0.0322265
0.0317181
0.0311464
0.0305201
0.0297806
0.0288782
-0.00650156
-0.00738559
-0.00809041
-0.0086684
-0.00918203
-0.00962767
-0.0100015
-0.0103048
-0.0105391
-0.010706
-0.0108071
-0.010844
-0.0108185
-0.0107322
-0.0105865
-0.0103829
-0.0101226
-0.00980691
-0.00943694
-0.00901407
-0.00853976
-0.00801552
-0.00744276
-0.00682278
-0.00615679
-0.00544598
-0.00469163
-0.00389513
-0.00305793
-0.00218146
-0.00126714
-0.000316324
0.000669469
0.00168855
0.00273908
0.00381914
0.00492672
0.00605973
0.00721605
0.00839347
0.00958948
0.0108012
0.0120255
0.013259
0.0144986
0.0157406
0.0169817
0.018218
0.0194453
0.0206594
0.0218553
0.0230281
0.0241727
0.025284
0.0263568
0.0273859
0.0283662
0.0292924
0.0301596
0.0309625
0.0316961
0.0323558
0.0329374
0.0334373
0.0338522
0.0341796
0.0344177
0.0345652
0.034622
0.0345884
0.0344655
0.0342547
0.0339581
0.0335786
0.0331191
0.0325836
0.0319812
0.031321
0.0305416
0.0295907
-0.00749302
-0.00841607
-0.00915181
-0.0097549
-0.0102906
-0.010755
-0.0111443
-0.0114597
-0.0117029
-0.0118755
-0.0119793
-0.0120161
-0.0119878
-0.0118962
-0.0117429
-0.0115293
-0.0112567
-0.0109266
-0.0105402
-0.0100992
-0.00960507
-0.00905942
-0.00846361
-0.00781892
-0.00712665
-0.00638811
-0.00560467
-0.00477769
-0.00390853
-0.00299854
-0.00204907
-0.00106151
-3.74309e-05
0.00102136
0.00211297
0.00323552
0.0043871
0.00556565
0.00676905
0.00799504
0.00924107
0.0105042
0.0117814
0.0130693
0.0143646
0.0156638
0.0169633
0.0182591
0.019547
0.0208221
0.0220795
0.0233141
0.0245204
0.0256932
0.0268269
0.0279159
0.0289546
0.0299375
0.0308589
0.0317133
0.0324955
0.0332002
0.033823
0.0343595
0.0348061
0.0351599
0.0354188
0.0355816
0.035648
0.0356181
0.0354927
0.0352736
0.0349629
0.0345638
0.0340797
0.0335148
0.032879
0.0321817
0.0313586
0.0303544
-0.0085563
-0.00952126
-0.0102902
-0.0109202
-0.0114795
-0.011964
-0.0123696
-0.0126977
-0.0129501
-0.0131285
-0.0132349
-0.0132713
-0.0132399
-0.0131424
-0.0129805
-0.0127559
-0.0124699
-0.0121242
-0.0117203
-0.0112601
-0.010745
-0.0101766
-0.00955624
-0.00888535
-0.00816532
-0.00739757
-0.00658349
-0.00572439
-0.00482149
-0.00387613
-0.00288965
-0.00186352
-0.000799336
0.000301059
0.00143579
0.00260303
0.0038009
0.00502737
0.00628026
0.00755724
0.00885575
0.0101729
0.0115057
0.0128509
0.0142051
0.0155648
0.0169262
0.0182851
0.019637
0.0209771
0.0223001
0.0236008
0.0248736
0.0261127
0.0273123
0.0284663
0.0295686
0.0306132
0.0315941
0.0325052
0.033341
0.0340956
0.034764
0.0353413
0.0358233
0.0362068
0.0364897
0.0366705
0.0367483
0.0367232
0.036596
0.0363683
0.0360428
0.0356229
0.0351123
0.0345155
0.0338432
0.0331053
0.032234
0.0311713
-0.00969478
-0.0107048
-0.0115094
-0.0121683
-0.0127529
-0.0132588
-0.0136816
-0.014023
-0.0142849
-0.0144692