/*--------------------------------*- C++ -*----------------------------------*\
  =========                 |
  \\      /  F ield         | OpenFOAM: The Open Source CFD Toolbox
   \\    /   O peration     | Website:  https://openfoam.org
    \\  /    A nd           | Version:  7
     \\/     M anipulation  |
\*---------------------------------------------------------------------------*/
FoamFile
{
    version     2.0;
    format      ascii;
    class       volVectorField;
    location    "2.375";
    object      U;
}
// * * * * * * * * * * * * * * * * * * * * * * * * * * * * * * * * * * * * * //

dimensions      [0 1 -1 0 0 0 0];

internalField   nonuniform List<vector> 
6400
(
(1.10167e-05 -1.03922e-05 0)
(7.02406e-05 -3.65134e-05 0)
(0.000177514 -4.72315e-05 0)
(0.000290332 -4.57086e-05 0)
(0.000384775 -3.76944e-05 0)
(0.00044929 -2.68043e-05 0)
(0.000478499 -1.5053e-05 0)
(0.000470689 -3.48404e-06 0)
(0.000426199 7.44487e-06 0)
(0.000346299 1.76182e-05 0)
(0.000232481 2.7116e-05 0)
(8.60556e-05 3.61038e-05 0)
(-9.20433e-05 4.4777e-05 0)
(-0.000301306 5.33386e-05 0)
(-0.000541619 6.19528e-05 0)
(-0.000813199 7.07474e-05 0)
(-0.00111647 7.98079e-05 0)
(-0.00145195 8.91743e-05 0)
(-0.00182007 9.88407e-05 0)
(-0.0022211 0.000108759 0)
(-0.002655 0.000118842 0)
(-0.00312129 0.000128963 0)
(-0.00361897 0.00013896 0)
(-0.00414639 0.00014864 0)
(-0.00470119 0.000157779 0)
(-0.00528022 0.000166128 0)
(-0.0058795 0.000173411 0)
(-0.00649414 0.000179336 0)
(-0.00711839 0.0001836 0)
(-0.00774556 0.000185893 0)
(-0.00836815 0.000185908 0)
(-0.00897784 0.00018335 0)
(-0.00956559 0.000177952 0)
(-0.0101218 0.00016948 0)
(-0.0106365 0.000157751 0)
(-0.0110994 0.000142646 0)
(-0.0115003 0.000124118 0)
(-0.0118292 0.000102211 0)
(-0.0120766 7.70611e-05 0)
(-0.0122338 4.89037e-05 0)
(-0.0122935 1.80968e-05 0)
(-0.0122493 -1.47451e-05 0)
(-0.0120967 -4.92251e-05 0)
(-0.0118333 -8.46355e-05 0)
(-0.0114586 -0.000120188 0)
(-0.0109747 -0.000155043 0)
(-0.010386 -0.000188323 0)
(-0.00969933 -0.000219135 0)
(-0.0089241 -0.000246608 0)
(-0.00807197 -0.000269927 0)
(-0.00715673 -0.000288368 0)
(-0.00619393 -0.000301337 0)
(-0.00520052 -0.000308401 0)
(-0.00419438 -0.000309313 0)
(-0.00319377 -0.000304028 0)
(-0.00221685 -0.00029271 0)
(-0.00128098 -0.000275712 0)
(-0.000401866 -0.000253646 0)
(0.000405452 -0.000227624 0)
(0.00112874 -0.000197711 0)
(0.00175903 -0.000165356 0)
(0.00228908 -0.000131536 0)
(0.00271472 -9.71925e-05 0)
(0.0030346 -6.32453e-05 0)
(0.00324999 -3.05198e-05 0)
(0.00336448 2.88844e-07 0)
(0.00338371 2.86326e-05 0)
(0.00331496 5.41157e-05 0)
(0.00316681 7.6481e-05 0)
(0.00294883 9.55754e-05 0)
(0.00267133 0.000111296 0)
(0.00234536 0.000123506 0)
(0.00198287 0.000131915 0)
(0.00159718 0.000135914 0)
(0.00120394 0.000134355 0)
(0.000822385 0.000125324 0)
(0.000476834 0.000106035 0)
(0.00019723 7.29643e-05 0)
(1.85094e-05 2.45182e-05 0)
(-2.04926e-05 -2.06149e-05 0)
(3.75942e-05 -6.98808e-05 0)
(0.0001702 -0.000168389 0)
(0.000372211 -0.000201913 0)
(0.000568981 -0.00018596 0)
(0.000715873 -0.000139928 0)
(0.000788332 -7.77641e-05 0)
(0.000772395 -8.45847e-06 0)
(0.000661473 6.26305e-05 0)
(0.000453754 0.000132669 0)
(0.000150036 0.000200467 0)
(-0.000247823 0.00026588 0)
(-0.000737868 0.000329327 0)
(-0.00131855 0.000391483 0)
(-0.00198895 0.000453088 0)
(-0.00274875 0.000514775 0)
(-0.00359813 0.000577005 0)
(-0.00453744 0.000640014 0)
(-0.00556699 0.000703791 0)
(-0.00668668 0.000768075 0)
(-0.00789567 0.000832357 0)
(-0.00919213 0.000895893 0)
(-0.0105729 0.000957727 0)
(-0.0120332 0.0010167 0)
(-0.0135665 0.0010715 0)
(-0.0151644 0.00112065 0)
(-0.0168161 0.00116255 0)
(-0.0185089 0.00119555 0)
(-0.0202278 0.00121792 0)
(-0.0219555 0.00122796 0)
(-0.0236728 0.001224 0)
(-0.0253583 0.00120447 0)
(-0.0269893 0.00116799 0)
(-0.0285416 0.00111339 0)
(-0.0299899 0.00103977 0)
(-0.0313088 0.000946614 0)
(-0.0324725 0.000833779 0)
(-0.0334563 0.000701598 0)
(-0.0342364 0.000550898 0)
(-0.034791 0.000383036 0)
(-0.0351008 0.000199893 0)
(-0.0351499 3.92665e-06 0)
(-0.0349258 -0.0002016 0)
(-0.0344206 -0.000413454 0)
(-0.0336311 -0.000627687 0)
(-0.0325594 -0.00083998 0)
(-0.0312131 -0.00104579 0)
(-0.0296053 -0.00124043 0)
(-0.027755 -0.00141928 0)
(-0.0256862 -0.00157784 0)
(-0.0234285 -0.00171198 0)
(-0.0210156 -0.00181808 0)
(-0.0184853 -0.00189316 0)
(-0.0158785 -0.00193506 0)
(-0.0132378 -0.00194254 0)
(-0.0106071 -0.00191537 0)
(-0.00802975 -0.00185433 0)
(-0.00554767 -0.00176125 0)
(-0.00320004 -0.00163899 0)
(-0.00102259 -0.00149175 0)
(0.000953577 -0.00132294 0)
(0.00270335 -0.00113785 0)
(0.00420756 -0.000941879 0)
(0.00545321 -0.000740215 0)
(0.00643387 -0.000537956 0)
(0.00714939 -0.000339861 0)
(0.00760557 -0.000150168 0)
(0.00781351 2.75127e-05 0)
(0.00778899 0.00019024 0)
(0.00755175 0.000335696 0)
(0.00712488 0.000462039 0)
(0.00653439 0.000567673 0)
(0.00580903 0.000650888 0)
(0.00498061 0.000709394 0)
(0.00408467 0.000739746 0)
(0.00316175 0.000736743 0)
(0.00225883 0.000693047 0)
(0.00142981 0.000599605 0)
(0.000733668 0.000447588 0)
(0.000238322 0.000237045 0)
(2.51182e-05 1.86994e-05 0)
(4.91538e-05 -0.00017967 0)
(0.000204853 -0.00037146 0)
(0.000419449 -0.00041904 0)
(0.000602323 -0.000361604 0)
(0.000700161 -0.000235969 0)
(0.000682596 -7.04431e-05 0)
(0.000531004 0.000115321 0)
(0.000235418 0.000308684 0)
(-0.000208209 0.000502409 0)
(-0.000800425 0.000693021 0)
(-0.00154012 0.000879492 0)
(-0.00242574 0.00106225 0)
(-0.00345593 0.00124246 0)
(-0.00462978 0.00142144 0)
(-0.00594687 0.00160034 0)
(-0.00740701 0.00177991 0)
(-0.00900993 0.00196032 0)
(-0.0107548 0.00214114 0)
(-0.01264 0.00232126 0)
(-0.0146622 0.00249897 0)
(-0.0168164 0.00267193 0)
(-0.0190954 0.00283726 0)
(-0.0214894 0.00299159 0)
(-0.0239855 0.00313115 0)
(-0.0265682 0.00325183 0)
(-0.0292183 0.00334931 0)
(-0.0319137 0.00341912 0)
(-0.0346291 0.00345683 0)
(-0.037336 0.00345809 0)
(-0.0400035 0.00341885 0)
(-0.042598 0.00333546 0)
(-0.0450844 0.00320483 0)
(-0.0474258 0.00302461 0)
(-0.0495851 0.00279328 0)
(-0.0515251 0.00251031 0)
(-0.0532094 0.0021763 0)
(-0.0546033 0.00179304 0)
(-0.0556747 0.00136359 0)
(-0.0563949 0.000892321 0)
(-0.0567392 0.000384886 0)
(-0.0566881 -0.000151785 0)
(-0.0562274 -0.000709395 0)
(-0.0553495 -0.00127878 0)
(-0.0540536 -0.00184981 0)
(-0.0523458 -0.00241167 0)
(-0.0502397 -0.00295305 0)
(-0.0477566 -0.00346252 0)
(-0.0449247 -0.00392879 0)
(-0.0417796 -0.00434113 0)
(-0.0383634 -0.00468964 0)
(-0.0347241 -0.00496571 0)
(-0.0309144 -0.00516226 0)
(-0.0269914 -0.00527416 0)
(-0.0230144 -0.0052984 0)
(-0.0190444 -0.00523432 0)
(-0.015142 -0.00508369 0)
(-0.0113663 -0.00485072 0)
(-0.00777319 -0.00454198 0)
(-0.00441392 -0.00416628 0)
(-0.00133392 -0.00373385 0)
(0.00142839 -0.0032564 0)
(0.00384266 -0.00274676 0)
(0.00588709 -0.00221807 0)
(0.00754856 -0.00168327 0)
(0.00882282 -0.00115469 0)
(0.00971418 -0.000643651 0)
(0.0102349 -0.000160198 0)
(0.0104047 0.000287068 0)
(0.0102495 0.000690911 0)
(0.0098012 0.00104519 0)
(0.00909682 0.00134439 0)
(0.00817823 0.00158285 0)
(0.00709226 0.00175391 0)
(0.00589119 0.00184889 0)
(0.00463362 0.00185625 0)
(0.00338549 0.00176141 0)
(0.00221914 0.00154843 0)
(0.00121045 0.00120468 0)
(0.000452055 0.000733734 0)
(7.4502e-05 0.000199396 0)
(4.78229e-05 -0.000295149 0)
(0.000184749 -0.000565963 0)
(0.000345941 -0.000599271 0)
(0.00043735 -0.000465216 0)
(0.000403897 -0.000220442 0)
(0.000213871 9.13922e-05 0)
(-0.000152691 0.000439277 0)
(-0.000707147 0.000802771 0)
(-0.00145479 0.00116969 0)
(-0.00239738 0.00153381 0)
(-0.00353487 0.00189288 0)
(-0.0048665 0.00224705 0)
(-0.00639148 0.00259769 0)
(-0.00810918 0.00294647 0)
(-0.010019 0.00329474 0)
(-0.0121202 0.00364311 0)
(-0.0144114 0.00399121 0)
(-0.0168898 0.00433757 0)
(-0.0195513 0.00467952 0)
(-0.0223893 0.0050133 0)
(-0.0253944 0.00533406 0)
(-0.0285542 0.00563602 0)
(-0.0318526 0.00591256 0)
(-0.0352697 0.00615644 0)
(-0.0387818 0.0063599 0)
(-0.0423611 0.00651494 0)
(-0.0459757 0.0066135 0)
(-0.0495904 0.00664769 0)
(-0.0531662 0.00661006 0)
(-0.0566617 0.00649387 0)
(-0.060033 0.00629331 0)
(-0.0632345 0.00600378 0)
(-0.0662202 0.00562215 0)
(-0.0689439 0.00514694 0)
(-0.0713605 0.00457856 0)
(-0.073427 0.0039194 0)
(-0.0751032 0.00317401 0)
(-0.0763527 0.0023491 0)
(-0.0771439 0.00145361 0)
(-0.0774508 0.000498567 0)
(-0.0772533 -0.000503023 0)
(-0.0765386 -0.00153616 0)
(-0.0753012 -0.00258424 0)
(-0.0735438 -0.0036294 0)
(-0.0712768 -0.0046528 0)
(-0.0685194 -0.00563501 0)
(-0.0652988 -0.00655654 0)
(-0.0616504 -0.00739831 0)
(-0.0576176 -0.00814218 0)
(-0.0532507 -0.00877156 0)
(-0.0486069 -0.00927192 0)
(-0.0437487 -0.00963138 0)
(-0.0387432 -0.00984114 0)
(-0.0336609 -0.00989593 0)
(-0.0285737 -0.00979435 0)
(-0.0235542 -0.00953899 0)
(-0.0186734 -0.00913652 0)
(-0.0139992 -0.00859754 0)
(-0.0095949 -0.0079363 0)
(-0.00551764 -0.00717011 0)
(-0.00181686 -0.0063189 0)
(0.00146673 -0.00540426 0)
(0.00430219 -0.00444895 0)
(0.00666877 -0.00347577 0)
(0.00855624 -0.00250687 0)
(0.00996484 -0.00156301 0)
(0.0109049 -0.000663104 0)
(0.0113963 0.000176126 0)
(0.0114676 0.0009401 0)
(0.0111555 0.00161607 0)
(0.0105039 0.00219242 0)
(0.00956361 0.00265761 0)
(0.00839196 0.00299896 0)
(0.0070531 0.00320131 0)
(0.00561834 0.00324604 0)
(0.00416672 0.00311111 0)
(0.0027836 0.00277341 0)
(0.00155809 0.00221452 0)
(0.000606336 0.00143376 0)
(0.000108298 0.000482952 0)
(3.8327e-05 -0.000388521 0)
(0.000124626 -0.000696554 0)
(0.000177676 -0.000672604 0)
(0.000112332 -0.000419241 0)
(-0.000122311 -1.36745e-05 0)
(-0.000556021 0.000485528 0)
(-0.00120733 0.00103655 0)
(-0.00208704 0.00161174 0)
(-0.00320068 0.00219433 0)
(-0.00455068 0.00277547 0)
(-0.00613785 0.00335164 0)
(-0.00796234 0.00392255 0)
(-0.010024 0.00448945 0)
(-0.0123224 0.00505393 0)
(-0.0148568 0.005617 0)
(-0.0176254 0.00617855 0)
(-0.0206253 0.00673694 0)
(-0.0238512 0.00728884 0)
(-0.0272956 0.0078292 0)
(-0.0309475 0.00835129 0)
(-0.0347926 0.00884684 0)
(-0.0388122 0.00930621 0)
(-0.0429832 0.00971867 0)
(-0.0472781 0.0100727 0)
(-0.0516647 0.0103561 0)
(-0.0561062 0.0105567 0)
(-0.0605616 0.0106624 0)
(-0.0649864 0.0106618 0)
(-0.0693324 0.0105442 0)
(-0.0735492 0.0103004 0)
(-0.0775847 0.00992307 0)
(-0.0813859 0.0094067 0)
(-0.0848999 0.00874827 0)
(-0.088075 0.00794737 0)
(-0.0908617 0.00700647 0)
(-0.0932136 0.00593101 0)
(-0.0950883 0.00472953 0)
(-0.0964483 0.00341363 0)
(-0.097262 0.00199798 0)
(-0.0975042 0.00050007 0)
(-0.0971564 -0.00106012 0)
(-0.0962079 -0.00265982 0)
(-0.0946562 -0.00427436 0)
(-0.092507 -0.00587751 0)
(-0.0897742 -0.00744187 0)
(-0.0864806 -0.00893945 0)
(-0.0826575 -0.0103423 0)
(-0.0783445 -0.0116231 0)
(-0.0735892 -0.0127561 0)
(-0.068447 -0.0137175 0)
(-0.0629798 -0.0144865 0)
(-0.0572559 -0.0150458 0)
(-0.0513487 -0.0153827 0)
(-0.0453351 -0.0154889 0)
(-0.0392948 -0.0153618 0)
(-0.0333083 -0.0150043 0)
(-0.0274553 -0.014425 0)
(-0.0218132 -0.0136384 0)
(-0.0164549 -0.012664 0)
(-0.0114476 -0.0115261 0)
(-0.0068508 -0.0102529 0)
(-0.002715 -0.00887584 0)
(0.000919509 -0.00742786 0)
(0.00402352 -0.00594283 0)
(0.0065795 -0.00445415 0)
(0.00858175 -0.00299371 0)
(0.0100364 -0.00159124 0)
(0.0109609 -0.000273604 0)
(0.0113835 0.000935163 0)
(0.0113426 0.00201362 0)
(0.0108856 0.00294208 0)
(0.0100687 0.00370142 0)
(0.00895635 0.0042716 0)
(0.00762076 0.00463005 0)
(0.00614217 0.00475054 0)
(0.00460925 0.00460313 0)
(0.00311765 0.00415634 0)
(0.00176846 0.0033823 0)
(0.000698613 0.00226708 0)
(0.000127383 0.000833146 0)
(2.35291e-05 -0.000441998 0)
(3.48974e-05 -0.000723215 0)
(-6.51421e-05 -0.000586085 0)
(-0.000342357 -0.000163298 0)
(-0.000837957 0.000448408 0)
(-0.00157677 0.00117685 0)
(-0.00257366 0.00197083 0)
(-0.00383713 0.00279664 0)
(-0.00537178 0.00363382 0)
(-0.00718008 0.00447145 0)
(-0.00926338 0.00530499 0)
(-0.0116225 0.00613361 0)
(-0.0142578 0.00695817 0)
(-0.017169 0.00777968 0)
(-0.0203547 0.00859817 0)
(-0.023812 0.009412 0)
(-0.0275356 0.0102174 0)
(-0.0315174 0.0110084 0)
(-0.0357456 0.0117764 0)
(-0.0402044 0.012511 0)
(-0.0448734 0.0131994 0)
(-0.0497272 0.0138274 0)
(-0.0547356 0.0143794 0)
(-0.0598628 0.0148388 0)
(-0.0650684 0.015189 0)
(-0.0703072 0.015413 0)
(-0.07553 0.0154949 0)
(-0.0806838 0.0154198 0)
(-0.0857133 0.0151745 0)
(-0.090561 0.0147479 0)
(-0.0951691 0.0141319 0)
(-0.0994795 0.013321 0)
(-0.103436 0.0123136 0)
(-0.106983 0.0111113 0)
(-0.11007 0.00971993 0)
(-0.112651 0.00814896 0)
(-0.114682 0.00641193 0)
(-0.116128 0.0045262 0)
(-0.116958 0.00251295 0)
(-0.117149 0.000396647 0)
(-0.116684 -0.0017956 0)
(-0.115554 -0.00403267 0)
(-0.11376 -0.00628176 0)
(-0.111308 -0.00850825 0)
(-0.108215 -0.0106762 0)
(-0.104505 -0.0127491 0)
(-0.100209 -0.0146905 0)
(-0.0953706 -0.0164649 0)
(-0.0900372 -0.0180385 0)
(-0.0842663 -0.0193803 0)
(-0.0781218 -0.0204626 0)
(-0.0716748 -0.0212626 0)
(-0.0650016 -0.0217624 0)
(-0.0581836 -0.0219504 0)
(-0.0513054 -0.0218219 0)
(-0.0444533 -0.0213793 0)
(-0.0377143 -0.0206325 0)
(-0.0311733 -0.0195987 0)
(-0.0249122 -0.0183024 0)
(-0.0190073 -0.0167746 0)
(-0.0135279 -0.0150517 0)
(-0.00853428 -0.0131746 0)
(-0.00407647 -0.0111874 0)
(-0.000192848 -0.00913555 0)
(0.00309065 -0.00706485 0)
(0.00576101 -0.00501964 0)
(0.00781844 -0.00304206 0)
(0.00927617 -0.00117093 0)
(0.0101599 0.000558407 0)
(0.0105072 0.00211389 0)
(0.0103667 0.00346599 0)
(0.00979743 0.00458639 0)
(0.00886801 0.00544634 0)
(0.00765615 0.00601485 0)
(0.00624859 0.00625724 0)
(0.00474143 0.00613471 0)
(0.00323899 0.00560555 0)
(0.00185301 0.00462884 0)
(0.000736767 0.00317111 0)
(0.000134949 0.00121758 0)
(4.98744e-06 -0.000442303 0)
(-7.77085e-05 -0.000613363 0)
(-0.000367819 -0.000294751 0)
(-0.000903166 0.00035477 0)
(-0.00171058 0.0012215 0)
(-0.00280715 0.0022219 0)
(-0.00420192 0.00329756 0)
(-0.00589958 0.00441047 0)
(-0.00790279 0.00553783 0)
(-0.0102133 0.00666756 0)
(-0.0128327 0.00779449 0)
(-0.015762 0.00891734 0)
(-0.0190018 0.0100363 0)
(-0.0225518 0.0111511 0)
(-0.0264096 0.0122603 0)
(-0.0305706 0.0133597 0)
(-0.0350267 0.0144425 0)
(-0.0397663 0.015499 0)
(-0.0447728 0.0165164 0)
(-0.0500251 0.0174793 0)
(-0.0554963 0.0183699 0)
(-0.0611541 0.0191686 0)
(-0.0669606 0.0198545 0)
(-0.0728727 0.0204058 0)
(-0.078842 0.0208008 0)
(-0.0848159 0.0210186 0)
(-0.0907381 0.0210394 0)
(-0.0965493 0.0208456 0)
(-0.102188 0.020422 0)
(-0.107594 0.0197571 0)
(-0.112704 0.0188425 0)
(-0.117459 0.0176744 0)
(-0.121799 0.0162533 0)
(-0.125672 0.0145841 0)
(-0.129026 0.0126766 0)
(-0.131814 0.0105454 0)
(-0.133998 0.00820936 0)
(-0.135541 0.00569216 0)
(-0.136415 0.00302158 0)
(-0.136599 0.000229202 0)
(-0.136079 -0.00265115 0)
(-0.134845 -0.00557996 0)
(-0.132898 -0.00851674 0)
(-0.130246 -0.0114189 0)
(-0.126904 -0.0142422 0)
(-0.122895 -0.0169419 0)
(-0.118252 -0.0194733 0)
(-0.113013 -0.0217927 0)
(-0.107227 -0.0238582 0)
(-0.10095 -0.025631 0)
(-0.0942462 -0.0270764 0)
(-0.0871862 -0.0281648 0)
(-0.0798481 -0.0288728 0)
(-0.0723155 -0.0291844 0)
(-0.0646767 -0.0290915 0)
(-0.057023 -0.0285949 0)
(-0.0494472 -0.0277046 0)
(-0.0420419 -0.02644 0)
(-0.0348972 -0.0248294 0)
(-0.0280988 -0.0229097 0)
(-0.0217259 -0.0207252 0)
(-0.0158491 -0.0183264 0)
(-0.0105288 -0.0157684 0)
(-0.00581349 -0.0131091 0)
(-0.0017384 -0.0104072 0)
(0.00167492 -0.00772089 0)
(0.00441944 -0.00510595 0)
(0.00650271 -0.00261479 0)
(0.00794624 -0.000295802 0)
(0.00878518 0.0018066 0)
(0.00906749 0.00365135 0)
(0.00885307 0.00519938 0)
(0.00821293 0.00641188 0)
(0.00722844 0.00724827 0)
(0.00599117 0.00766434 0)
(0.00460318 0.00761116 0)
(0.00317603 0.00703512 0)
(0.00183047 0.00587968 0)
(0.000730835 0.00408878 0)
(0.00013393 0.00160939 0)
(-1.65387e-05 -0.000378972 0)
(-0.000208834 -0.000340125 0)
(-0.00071957 0.000239402 0)
(-0.00155185 0.00117947 0)
(-0.00271398 0.0023532 0)
(-0.0042127 0.00366897 0)
(-0.00604939 0.00506398 0)
(-0.00822356 0.00649822 0)
(-0.010735 0.00794827 0)
(-0.0135842 0.00940203 0)
(-0.0167721 0.0108543 0)
(-0.0203001 0.0123035 0)
(-0.0241686 0.0137487 0)
(-0.0283764 0.0151882 0)
(-0.0329201 0.0166176 0)
(-0.0377927 0.0180298 0)
(-0.0429832 0.0194139 0)
(-0.0484754 0.0207552 0)
(-0.0542481 0.022036 0)
(-0.060274 0.0232352 0)
(-0.0665199 0.0243292 0)
(-0.0729465 0.0252926 0)
(-0.079509 0.0260988 0)
(-0.086157 0.0267211 0)
(-0.0928357 0.0271331 0)
(-0.0994861 0.02731 0)
(-0.106047 0.0272293 0)
(-0.112454 0.0268714 0)
(-0.118643 0.0262204 0)
(-0.12455 0.0252649 0)
(-0.130112 0.0239981 0)
(-0.135269 0.0224183 0)
(-0.139963 0.0205293 0)
(-0.144142 0.01834 0)
(-0.147757 0.0158649 0)
(-0.150762 0.0131237 0)
(-0.153121 0.0101411 0)
(-0.154799 0.0069466 0)
(-0.155771 0.00357413 0)
(-0.156017 6.18941e-05 0)
(-0.15552 -0.00354774 0)
(-0.154271 -0.00721017 0)
(-0.152271 -0.0108774 0)
(-0.149525 -0.0144993 0)
(-0.146046 -0.018024 0)
(-0.141854 -0.0213986 0)
(-0.136977 -0.0245705 0)
(-0.131453 -0.0274875 0)
(-0.125324 -0.0300998 0)
(-0.118646 -0.0323601 0)
(-0.111479 -0.034226 0)
(-0.103893 -0.0356602 0)
(-0.0959664 -0.0366328 0)
(-0.087784 -0.0371217 0)
(-0.0794364 -0.0371145 0)
(-0.0710192 -0.0366089 0)
(-0.0626311 -0.0356136 0)
(-0.0543719 -0.0341487 0)
(-0.0463403 -0.0322453 0)
(-0.038632 -0.0299455 0)
(-0.0313366 -0.0273008 0)
(-0.0245361 -0.0243709 0)
(-0.0183022 -0.0212221 0)
(-0.0126944 -0.0179249 0)
(-0.00775855 -0.0145521 0)
(-0.00352584 -0.0111765 0)
(-1.16883e-05 -0.00786896 0)
(0.0027844 -0.00469689 0)
(0.00487858 -0.00172341 0)
(0.00630231 0.000993078 0)
(0.00710154 0.00339829 0)
(0.00733576 0.00544089 0)
(0.00707708 0.0070706 0)
(0.00640937 0.00823597 0)
(0.00542784 0.00888211 0)
(0.00423936 0.00894876 0)
(0.0029614 0.00836914 0)
(0.00172175 0.00706994 0)
(0.000690896 0.00497217 0)
(0.000126817 0.0019878 0)
(-4.0569e-05 -0.000243414 0)
(-0.000355399 0.000118804 0)
(-0.00111225 0.00104797 0)
(-0.00227379 0.00234791 0)
(-0.00382613 0.00388322 0)
(-0.00576355 0.00555822 0)
(-0.00807808 0.00730917 0)
(-0.0107629 0.00909682 0)
(-0.0138141 0.0108992 0)
(-0.0172304 0.0127055 0)
(-0.0210119 0.0145112 0)
(-0.0251594 0.0163145 0)
(-0.0296728 0.0181133 0)
(-0.0345501 0.0199035 0)
(-0.039786 0.0216774 0)
(-0.0453708 0.0234235 0)
(-0.0512897 0.025126 0)
(-0.0575223 0.0267647 0)
(-0.0640419 0.0283157 0)
(-0.0708153 0.0297518 0)
(-0.077803 0.0310431 0)
(-0.0849593 0.0321584 0)
(-0.0922329 0.0330656 0)
(-0.0995676 0.0337331 0)
(-0.106903 0.0341306 0)
(-0.114176 0.0342303 0)
(-0.121321 0.0340077 0)
(-0.128273 0.0334424 0)
(-0.134965 0.0325191 0)
(-0.141333 0.0312275 0)
(-0.147315 0.0295632 0)
(-0.152853 0.0275277 0)
(-0.157891 0.0251286 0)
(-0.162379 0.0223792 0)
(-0.166269 0.0192988 0)
(-0.16952 0.0159123 0)
(-0.172096 0.0122495 0)
(-0.173966 0.00834559 0)
(-0.175102 0.00423968 0)
(-0.175484 -2.41763e-05 0)
(-0.175096 -0.004395 0)
(-0.173928 -0.00882507 0)
(-0.171975 -0.0132595 0)
(-0.169239 -0.017641 0)
(-0.16573 -0.0219107 0)
(-0.161462 -0.0260081 0)
(-0.156459 -0.0298726 0)
(-0.150751 -0.0334439 0)
(-0.144379 -0.0366634 0)
(-0.137391 -0.0394752 0)
(-0.129845 -0.0418279 0)
(-0.121808 -0.0436758 0)
(-0.113357 -0.0449809 0)
(-0.104576 -0.0457137 0)
(-0.0955586 -0.0458555 0)
(-0.0864031 -0.0453995 0)
(-0.077214 -0.0443512 0)
(-0.0680986 -0.0427299 0)
(-0.0591645 -0.0405684 0)
(-0.0505179 -0.0379123 0)
(-0.0422603 -0.0348198 0)
(-0.0344858 -0.0313594 0)
(-0.0272787 -0.0276086 0)
(-0.0207113 -0.023651 0)
(-0.0148414 -0.019574 0)
(-0.00971096 -0.0154662 0)
(-0.00534527 -0.0114147 0)
(-0.00175207 -0.00750373 0)
(0.0010783 -0.00381262 0)
(0.00317253 -0.000415514 0)
(0.00457355 0.00261845 0)
(0.00533956 0.00522406 0)
(0.00554292 0.00733813 0)
(0.00526914 0.00889705 0)
(0.00461633 0.00983408 0)
(0.00369517 0.0100767 0)
(0.00262783 0.00954424 0)
(0.00154727 0.0081467 0)
(0.000626141 0.00578369 0)
(0.000115639 0.00233756 0)
(-6.67959e-05 -2.82856e-05 0)
(-0.00051512 0.000781991 0)
(-0.00153921 0.00215705 0)
(-0.00305636 0.00389058 0)
(-0.0050275 0.00584385 0)
(-0.00743256 0.00792193 0)
(-0.0102529 0.0100641 0)
(-0.0134744 0.012235 0)
(-0.0170888 0.0144165 0)
(-0.0210923 0.0166005 0)
(-0.0254841 0.0187841 0)
(-0.0302639 0.0209652 0)
(-0.0354308 0.0231402 0)
(-0.0409812 0.0253021 0)
(-0.0469076 0.027439 0)
(-0.0531972 0.0295342 0)
(-0.0598313 0.0315661 0)
(-0.0667847 0.033508 0)
(-0.0740253 0.0353295 0)
(-0.0815142 0.0369967 0)
(-0.0892061 0.0384736 0)
(-0.0970494 0.0397228 0)
(-0.104988 0.0407074 0)
(-0.11296 0.0413915 0)
(-0.120902 0.0417418 0)
(-0.128748 0.0417285 0)
(-0.136432 0.0413263 0)
(-0.143885 0.0405153 0)
(-0.151045 0.0392813 0)
(-0.157846 0.0376164 0)
(-0.164231 0.0355194 0)
(-0.170142 0.0329954 0)
(-0.175527 0.0300559 0)
(-0.180337 0.026719 0)
(-0.18453 0.0230083 0)
(-0.188066 0.0189533 0)
(-0.190908 0.0145888 0)
(-0.193028 0.0099544 0)
(-0.194397 0.00509445 0)
(-0.194991 5.78141e-05 0)
(-0.194795 -0.0051017 0)
(-0.193796 -0.0103287 0)
(-0.191984 -0.0155631 0)
(-0.189357 -0.0207417 0)
(-0.185916 -0.0257991 0)
(-0.181672 -0.0306678 0)
(-0.17664 -0.0352795 0)
(-0.170846 -0.0395654 0)
(-0.164323 -0.0434581 0)
(-0.157113 -0.0468923 0)
(-0.149269 -0.0498069 0)
(-0.140853 -0.0521465 0)
(-0.131939 -0.0538632 0)
(-0.122611 -0.0549188 0)
(-0.112961 -0.0552863 0)
(-0.103091 -0.054952 0)
(-0.0931115 -0.0539166 0)
(-0.0831359 -0.0521966 0)
(-0.0732816 -0.0498242 0)
(-0.0636658 -0.0468479 0)
(-0.0544026 -0.0433309 0)
(-0.0456001 -0.0393503 0)
(-0.0373569 -0.0349943 0)
(-0.0297594 -0.03036 0)
(-0.0228792 -0.0255502 0)
(-0.0167712 -0.0206704 0)
(-0.0114719 -0.0158258 0)
(-0.0069988 -0.0111186 0)
(-0.00334995 -0.00664646 0)
(-0.000504524 -0.00250095 0)
(0.00157653 0.00123213 0)
(0.00294937 0.00447201 0)
(0.00368597 0.0071411 0)
(0.00387296 0.0091623 0)
(0.00361071 0.0104559 0)
(0.00301305 0.0109365 0)
(0.00220579 0.0105094 0)
(0.00132564 0.00906879 0)
(0.00054458 0.00649539 0)
(0.000102034 0.00264814 0)
(-9.49812e-05 0.000272745 0)
(-0.000685957 0.00166487 0)
(-0.00199435 0.00358792 0)
(-0.00388789 0.00583176 0)
(-0.00629975 0.0082603 0)
(-0.00919399 0.0107847 0)
(-0.0125402 0.0133517 0)
(-0.0163162 0.0159334 0)
(-0.0205089 0.0185179 0)
(-0.0251118 0.0211015 0)
(-0.0301223 0.0236835 0)
(-0.0355391 0.026262 0)
(-0.0413598 0.0288314 0)
(-0.0475789 0.0313809 0)
(-0.0541861 0.033894 0)
(-0.0611654 0.0363478 0)
(-0.0684939 0.038714 0)
(-0.0761414 0.0409591 0)
(-0.0840707 0.0430455 0)
(-0.0922377 0.0449327 0)
(-0.100592 0.0465784 0)
(-0.109077 0.0479401 0)
(-0.117632 0.0489761 0)
(-0.126193 0.0496476 0)
(-0.134694 0.049919 0)
(-0.143069 0.0497597 0)
(-0.151249 0.0491447 0)
(-0.15917 0.0480556 0)
(-0.166768 0.0464802 0)
(-0.173984 0.044414 0)
(-0.180759 0.0418589 0)
(-0.187042 0.038824 0)
(-0.192782 0.0353249 0)
(-0.197935 0.0313837 0)
(-0.202458 0.0270281 0)
(-0.206314 0.0222915 0)
(-0.209469 0.0172126 0)
(-0.21189 0.0118349 0)
(-0.213552 0.0062069 0)
(-0.214427 0.000381124 0)
(-0.214497 -0.00558692 0)
(-0.213745 -0.0116347 0)
(-0.212156 -0.0176979 0)
(-0.209722 -0.0237083 0)
(-0.206439 -0.0295945 0)
(-0.20231 -0.0352825 0)
(-0.197344 -0.0406966 0)
(-0.191558 -0.0457597 0)
(-0.184976 -0.0503952 0)
(-0.177633 -0.054528 0)
(-0.169576 -0.0580864 0)
(-0.16086 -0.0610041 0)
(-0.151553 -0.0632219 0)
(-0.141737 -0.0646907 0)
(-0.131504 -0.0653733 0)
(-0.120955 -0.0652468 0)
(-0.110206 -0.0643046 0)
(-0.0993753 -0.0625578 0)
(-0.0885908 -0.0600363 0)
(-0.077981 -0.0567889 0)
(-0.0676737 -0.0528829 0)
(-0.057792 -0.0484025 0)
(-0.0484508 -0.0434466 0)
(-0.0397529 -0.0381259 0)
(-0.0317859 -0.0325594 0)
(-0.0246197 -0.0268707 0)
(-0.0183044 -0.0211846 0)
(-0.0128689 -0.0156234 0)
(-0.0083208 -0.0103049 0)
(-0.00464629 -0.00534037 0)
(-0.00181123 -0.000834216 0)
(0.000237743 0.00311542 0)
(0.00157171 0.0064149 0)
(0.00227796 0.00897229 0)
(0.00245875 0.010694 0)
(0.00223052 0.0114811 0)
(0.00172208 0.0112252 0)
(0.00107296 0.00980574 0)
(0.000452965 0.00708788 0)
(8.73209e-05 0.00291298 0)
(-0.000124874 0.000665006 0)
(-0.000865876 0.00277991 0)
(-0.00247169 0.00535715 0)
(-0.00475692 0.00818971 0)
(-0.00762488 0.0111508 0)
(-0.0110226 0.0141634 0)
(-0.0149069 0.0171868 0)
(-0.0192472 0.0202043 0)
(-0.0240252 0.0232128 0)
(-0.0292313 0.0262146 0)
(-0.0348609 0.029212 0)
(-0.0409111 0.0322033 0)
(-0.0473777 0.0351806 0)
(-0.0542529 0.038129 0)
(-0.0615236 0.0410261 0)
(-0.0691698 0.0438424 0)
(-0.0771645 0.0465423 0)
(-0.0854728 0.0490851 0)
(-0.0940527 0.0514259 0)
(-0.102855 0.0535176 0)
(-0.111826 0.0553123 0)
(-0.120904 0.0567626 0)
(-0.130028 0.0578235 0)
(-0.13913 0.0584538 0)
(-0.148144 0.0586169 0)
(-0.157003 0.0582825 0)
(-0.165642 0.0574271 0)
(-0.173998 0.056034 0)
(-0.18201 0.0540945 0)
(-0.189621 0.0516069 0)
(-0.196777 0.0485772 0)
(-0.203429 0.045018 0)
(-0.20953 0.0409487 0)
(-0.215037 0.0363949 0)
(-0.21991 0.0313877 0)
(-0.224113 0.0259638 0)
(-0.227612 0.0201649 0)
(-0.230375 0.0140374 0)
(-0.232373 0.00763255 0)
(-0.23358 0.00100581 0)
(-0.233972 -0.00578352 0)
(-0.233529 -0.0126703 0)
(-0.232231 -0.0195862 0)
(-0.230065 -0.0264584 0)
(-0.227021 -0.0332106 0)
(-0.223093 -0.0397628 0)
(-0.218282 -0.0460321 0)
(-0.212597 -0.0519339 0)
(-0.206053 -0.0573822 0)
(-0.198675 -0.0622918 0)
(-0.190501 -0.06658 0)
(-0.181578 -0.0701681 0)
(-0.171967 -0.0729847 0)
(-0.161742 -0.0749676 0)
(-0.150993 -0.076067 0)
(-0.139822 -0.0762483 0)
(-0.128344 -0.0754947 0)
(-0.116684 -0.0738091 0)
(-0.104977 -0.071216 0)
(-0.0933637 -0.0677623 0)
(-0.081986 -0.063517 0)
(-0.0709837 -0.0585701 0)
(-0.0604895 -0.0530302 0)
(-0.0506251 -0.0470216 0)
(-0.0414971 -0.04068 0)
(-0.033193 -0.0341487 0)
(-0.0257791 -0.0275736 0)
(-0.0192986 -0.0210995 0)
(-0.0137705 -0.0148667 0)
(-0.00918989 -0.00900852 0)
(-0.00552886 -0.00365035 0)
(-0.00273777 0.00109018 0)
(-0.000747048 0.00510152 0)
(0.000530856 0.00827549 0)
(0.00119982 0.0105036 0)
(0.00137863 0.0116729 0)
(0.00119881 0.0116617 0)
(0.000802407 0.0103364 0)
(0.000356724 0.00754902 0)
(7.25264e-05 0.00312877 0)
(-0.000156144 0.00115276 0)
(-0.00105265 0.00413651 0)
(-0.00296498 0.00747657 0)
(-0.00565172 0.0109767 0)
(-0.00898465 0.0145266 0)
(-0.0128928 0.0180677 0)
(-0.01732 0.0215767 0)
(-0.0222266 0.0250522 0)
(-0.0275889 0.0285025 0)
(-0.0333939 0.0319377 0)
(-0.0396348 0.0353638 0)
(-0.0463068 0.0387793 0)
(-0.0534035 0.0421737 0)
(-0.0609145 0.0455273 0)
(-0.0688234 0.0488112 0)
(-0.0771065 0.0519889 0)
(-0.0857323 0.055017 0)
(-0.0946619 0.0578472 0)
(-0.103849 0.0604278 0)
(-0.11324 0.0627053 0)
(-0.122778 0.0646269 0)
(-0.132399 0.0661411 0)
(-0.14204 0.0672006 0)
(-0.151634 0.0677628 0)
(-0.161114 0.0677915 0)
(-0.170416 0.0672573 0)
(-0.179475 0.0661387 0)
(-0.188233 0.0644221 0)
(-0.19663 0.0621019 0)
(-0.204614 0.0591799 0)
(-0.212134 0.0556656 0)
(-0.219144 0.0515752 0)
(-0.225599 0.0469314 0)
(-0.231459 0.0417626 0)
(-0.236686 0.036103 0)
(-0.241244 0.0299916 0)
(-0.245101 0.0234725 0)
(-0.248223 0.0165943 0)
(-0.250583 0.00941026 0)
(-0.252151 0.00197796 0)
(-0.252902 -0.00564059 0)
(-0.252812 -0.0133783 0)
(-0.251859 -0.0211637 0)
(-0.250022 -0.0289208 0)
(-0.247287 -0.0365689 0)
(-0.24364 -0.0440231 0)
(-0.239073 -0.0511945 0)
(-0.233585 -0.057991 0)
(-0.227182 -0.0643183 0)
(-0.219878 -0.0700812 0)
(-0.211699 -0.0751852 0)
(-0.202681 -0.0795391 0)
(-0.192876 -0.0830575 0)
(-0.182348 -0.0856635 0)
(-0.171181 -0.0872926 0)
(-0.159473 -0.0878955 0)
(-0.147336 -0.0874417 0)
(-0.134899 -0.0859227 0)
(-0.122305 -0.083354 0)
(-0.109703 -0.0797771 0)
(-0.0972497 -0.0752598 0)
(-0.0851023 -0.0698957 0)
(-0.0734135 -0.0638016 0)
(-0.0623262 -0.0571147 0)
(-0.0519688 -0.0499879 0)
(-0.0424502 -0.0425851 0)
(-0.0338564 -0.0350756 0)
(-0.0262479 -0.027629 0)
(-0.0196583 -0.0204109 0)
(-0.0140939 -0.0135797 0)
(-0.00953488 -0.00728449 0)
(-0.00593669 -0.00166502 0)
(-0.00323213 0.00314716 0)
(-0.00133384 0.00702589 0)
(-0.000136531 0.00984664 0)
(0.000480897 0.011482 0)
(0.000652754 0.0117973 0)
(0.000523946 0.0106469 0)
(0.000259919 0.00787241 0)
(5.84017e-05 0.00329471 0)
(-0.000188405 0.00173912 0)
(-0.0012438 0.00574088 0)
(-0.00346755 0.00995321 0)
(-0.00656001 0.0141991 0)
(-0.0103603 0.0183924 0)
(-0.0147789 0.0224997 0)
(-0.0197461 0.0265208 0)
(-0.0252134 0.0304735 0)
(-0.0311512 0.0343804 0)
(-0.0375431 0.0382609 0)
(-0.0443797 0.0421252 0)
(-0.0516541 0.0459723 0)
(-0.0593574 0.0497887 0)
(-0.0674763 0.0535492 0)
(-0.0759909 0.0572181 0)
(-0.0848738 0.0607513 0)
(-0.0940895 0.0640975 0)
(-0.103595 0.067201 0)
(-0.11334 0.0700034 0)
(-0.123269 0.0724458 0)
(-0.133321 0.0744706 0)
(-0.143432 0.076024 0)
(-0.153538 0.0770568 0)
(-0.163571 0.0775262 0)
(-0.173469 0.077397 0)
(-0.183166 0.0766419 0)
(-0.192603 0.075242 0)
(-0.201722 0.0731868 0)
(-0.21047 0.070474 0)
(-0.218795 0.067109 0)
(-0.22665 0.0631046 0)
(-0.233991 0.0584802 0)
(-0.240777 0.0532613 0)
(-0.24697 0.047479 0)
(-0.252533 0.0411699 0)
(-0.257433 0.0343749 0)
(-0.261637 0.0271401 0)
(-0.265114 0.0195156 0)
(-0.267836 0.0115561 0)
(-0.269773 0.00332077 0)
(-0.2709 -0.00512692 0)
(-0.27119 -0.0137184 0)
(-0.270617 -0.0223806 0)
(-0.269159 -0.0310349 0)
(-0.266793 -0.0395981 0)
(-0.2635 -0.0479813 0)
(-0.259263 -0.056091 0)
(-0.254072 -0.0638289 0)
(-0.247921 -0.0710929 0)
(-0.240811 -0.0777786 0)
(-0.232755 -0.0837804 0)
(-0.223777 -0.088994 0)
(-0.213913 -0.0933192 0)
(-0.203218 -0.096663 0)
(-0.191762 -0.0989437 0)
(-0.179636 -0.100094 0)
(-0.166947 -0.100067 0)
(-0.153824 -0.0988387 0)
(-0.140412 -0.0964107 0)
(-0.126869 -0.0928152 0)
(-0.113364 -0.0881148 0)
(-0.100073 -0.0824031 0)
(-0.0871682 -0.0758029 0)
(-0.0748172 -0.0684626 0)
(-0.0631732 -0.0605523 0)
(-0.0523703 -0.0522574 0)
(-0.0425186 -0.0437723 0)
(-0.0336999 -0.0352944 0)
(-0.0259663 -0.0270178 0)
(-0.0193387 -0.0191293 0)
(-0.0138081 -0.0118054 0)
(-0.00933673 -0.00521097 0)
(-0.00586115 0.000499758 0)
(-0.00329486 0.00518055 0)
(-0.00153144 0.00868938 0)
(-0.000447324 0.0108837 0)
(9.50349e-05 0.0116158 0)
(0.000244193 0.0107289 0)
(0.000165223 0.00805575 0)
(4.54286e-05 0.00341176 0)
(-0.0002212 0.00242584 0)
(-0.00143664 0.0075958 0)
(-0.00397227 0.0127891 0)
(-0.00746896 0.017857 0)
(-0.0117325 0.0227458 0)
(-0.0166545 0.0274544 0)
(-0.0221518 0.0320112 0)
(-0.0281666 0.0364572 0)
(-0.0346637 0.0408323 0)
(-0.041623 0.0451664 0)
(-0.0490324 0.049475 0)
(-0.0568823 0.0537571 0)
(-0.0651614 0.057996 0)