/*--------------------------------*- C++ -*----------------------------------*\
  =========                 |
  \\      /  F ield         | OpenFOAM: The Open Source CFD Toolbox
   \\    /   O peration     | Website:  https://openfoam.org
    \\  /    A nd           | Version:  7
     \\/     M anipulation  |
\*---------------------------------------------------------------------------*/
FoamFile
{
    version     2.0;
    format      ascii;
    class       volScalarField;
    location    "0.95";
    object      p;
}
// * * * * * * * * * * * * * * * * * * * * * * * * * * * * * * * * * * * * * //

dimensions      [0 2 -2 0 0 0 0];

internalField   nonuniform List<scalar> 
6400
(
4.24121e-06
3.69477e-06
-0.000108579
-0.000328164
-0.000628503
-0.00098574
-0.00137876
-0.00178925
-0.00220182
-0.00260386
-0.00298504
-0.00333704
-0.00365317
-0.00392816
-0.00415786
-0.00433913
-0.00446963
-0.00454768
-0.00457217
-0.0045425
-0.00445841
-0.00432002
-0.00412774
-0.00388221
-0.00358433
-0.00323519
-0.00283611
-0.00238859
-0.00189433
-0.00135524
-0.000773438
-0.000151268
0.000508706
0.00120368
0.0019306
0.00268617
0.00346684
0.00426879
0.00508796
0.00592006
0.00676054
0.00760467
0.00844751
0.00928396
0.0101088
0.0109167
0.0117024
0.0124604
0.0131856
0.0138726
0.0145166
0.0151128
0.0156567
0.0161443
0.0165719
0.0169364
0.0172353
0.0174666
0.0176289
0.0177219
0.0177458
0.0177015
0.0175911
0.0174174
0.0171841
0.0168959
0.0165585
0.0161786
0.015764
0.0153235
0.0148673
0.0144065
0.0139539
0.0135236
0.0131311
0.0127934
0.0125281
0.0123523
0.0122816
0.0123052
1.06209e-05
7.70344e-06
-9.20825e-05
-0.000278548
-0.000530131
-0.000829754
-0.00116137
-0.00151018
-0.00186315
-0.00220915
-0.00253884
-0.00284442
-0.00311952
-0.00335895
-0.00355859
-0.00371518
-0.00382624
-0.00388994
-0.00390498
-0.00387053
-0.00378617
-0.00365183
-0.00346772
-0.00323433
-0.00295238
-0.00262282
-0.00224681
-0.00182572
-0.00136112
-0.000854771
-0.000308666
0.000275002
0.000893818
0.00154514
0.00222609
0.00293356
0.0036642
0.00441444
0.00518046
0.00595823
0.00674351
0.00753188
0.00831874
0.00909936
0.00986888
0.0106224
0.011355
0.0120617
0.0127377
0.0133783
0.0139788
0.014535
0.0150428
0.0154986
0.0158991
0.0162415
0.0165236
0.0167437
0.0169008
0.0169946
0.0170253
0.0169943
0.0169033
0.0167552
0.0165537
0.0163031
0.0160088
0.0156773
0.0153157
0.0149322
0.014536
0.0141372
0.0137471
0.0133779
0.0130425
0.0127544
0.0125267
0.0123716
0.0123046
0.0123286
0.000124204
0.000107842
7.5617e-06
-0.000164548
-0.000390387
-0.000656419
-0.000949796
-0.00125826
-0.00157075
-0.00187756
-0.00217034
-0.00244198
-0.00268656
-0.00289919
-0.00307588
-0.00321345
-0.00330942
-0.0033619
-0.00336953
-0.00333138
-0.00324691
-0.00311593
-0.00293854
-0.00271509
-0.00244619
-0.00213267
-0.00177556
-0.00137612
-0.000935784
-0.000456209
6.07529e-05
0.000613037
0.00119837
0.00181424
0.00245795
0.00312656
0.00381689
0.00452556
0.00524898
0.00598333
0.00672463
0.0074687
0.0082112
0.00894771
0.00967365
0.0103844
0.0110754
0.011742
0.0123797
0.0129841
0.0135508
0.014076
0.0145559
0.0149871
0.0153666
0.0156919
0.015961
0.0161724
0.0163252
0.0164192
0.0164549
0.0164334
0.0163567
0.0162274
0.016049
0.0158259
0.015563
0.0152664
0.0149427
0.0145996
0.0142454
0.0138894
0.0135414
0.0132122
0.0129127
0.0126545
0.0124481
0.0123036
0.0122371
0.0122584
0.000345018
0.000295061
0.000178924
5.63064e-06
-0.000211682
-0.000461711
-0.0007337
-0.00101741
-0.00130346
-0.00158348
-0.00185011
-0.00209704
-0.0023189
-0.0025112
-0.00267023
-0.002793
-0.00287714
-0.0029208
-0.00292264
-0.00288171
-0.00279742
-0.00266951
-0.00249801
-0.00228318
-0.00202554
-0.00172582
-0.00138496
-0.00100408
-0.000584533
-0.000127844
0.000364253
0.000889819
0.00144671
0.00203258
0.00264485
0.00328074
0.00393725
0.00461118
0.0052991
0.00599742
0.00670234
0.00740989
0.00811599
0.0088164
0.00950682
0.0101829
0.0108402
0.0114744
0.0120813
0.0126566
0.0131963
0.0136967
0.0141543
0.0145659
0.0149287
0.0152404
0.015499
0.0157033
0.0158524
0.0159462
0.0159852
0.0159706
0.0159042
0.0157887
0.0156273
0.0154241
0.0151839
0.0149123
0.0146155
0.0143006
0.0139752
0.0136477
0.0133269
0.0130222
0.0127434
0.0125002
0.0123019
0.0121577
0.0120819
0.0120844
0.000649001
0.000549055
0.000404863
0.000219853
5.51573e-07
-0.00024372
-0.000503958
-0.000771765
-0.00103933
-0.00129956
-0.00154613
-0.00177355
-0.00197707
-0.00215269
-0.00229705
-0.00240742
-0.0024816
-0.00251788
-0.00251497
-0.00247193
-0.0023882
-0.00226347
-0.00209772
-0.00189116
-0.00164422
-0.00135754
-0.00103197
-0.00066854
-0.00026847
0.00016682
0.00063572
0.00113642
0.00166692
0.002225
0.00280823
0.00341401
0.00403949
0.00468163
0.00533719
0.00600276
0.00667473
0.00734933
0.00802267
0.00869072
0.0093494
0.00999454
0.010622
0.0112275
0.0118072
0.0123569
0.0128729
0.0133516
0.0137897
0.0141842
0.0145323
0.014832
0.0150814
0.0152793
0.0154249
0.0155182
0.0155597
0.0155504
0.0154921
0.0153875
0.0152395
0.0150521
0.0148297
0.0145775
0.0143014
0.0140078
0.0137036
0.0133965
0.0130943
0.0128053
0.012538
0.0123008
0.0121019
0.0119494
0.0118537
0.0118217
0.00101403
0.000853905
0.000672726
0.000467602
0.000237746
-9.26274e-06
-0.000265906
-0.000525453
-0.000781547
-0.0010283
-0.00126041
-0.00147319
-0.00166256
-0.00182504
-0.00195769
-0.00205808
-0.00212425
-0.00215465
-0.0021481
-0.00210375
-0.00202103
-0.00189966
-0.00173959
-0.00154098
-0.0013042
-0.00102982
-0.000718595
-0.000371459
1.04687e-05
0.000425887
0.000873309
0.00135106
0.00185725
0.00238983
0.00294652
0.00352484
0.00412212
0.00473549
0.00536188
0.00599802
0.0066405
0.00728572
0.00792997
0.00856941
0.00920012
0.00981811
0.0104194
0.011
0.011556
0.0120836
0.0125792
0.0130392
0.0134606
0.0138403
0.0141759
0.0144653
0.0147067
0.014899
0.0150414
0.0151339
0.0151769
0.0151715
0.0151194
0.0150229
0.0148851
0.0147095
0.0145003
0.0142625
0.0140012
0.0137226
0.0134328
0.0131387
0.0128474
0.0125662
0.0123024
0.0120633
0.011856
0.0116876
0.0115636
0.0114862
0.00142061
0.00119465
0.000970422
0.000738704
0.000491376
0.000234565
-2.54437e-05
-0.000283397
-0.00053426
-0.000773268
-0.000996071
-0.00119879
-0.00137801
-0.0015308
-0.00165465
-0.0017475
-0.00180763
-0.00183372
-0.00182471
-0.00177987
-0.00169869
-0.00158091
-0.00142647
-0.00123552
-0.00100837
-0.000745529
-0.000447673
-0.000115648
0.000249531
0.000646675
0.00107442
0.0015312
0.0020153
0.00252476
0.00305748
0.00361112
0.00418315
0.00477086
0.00537134
0.00598148
0.00659802
0.00721753
0.00783645
0.00845108
0.00905766
0.00965237
0.0102313
0.0107907
0.0113267
0.0118357
0.0123141
0.0127585
0.0131659
0.0135335
0.0138587
0.0141395
0.0143743
0.0145618
0.0147013
0.0147928
0.0148367
0.0148338
0.014786
0.0146952
0.0145645
0.014397
0.0141968
0.0139683
0.0137166
0.013447
0.0131652
0.0128775
0.0125901
0.0123095
0.0120421
0.011794
0.0115717
0.0113812
0.0112225
0.0110928
0.00185175
0.00155731
0.00128621
0.00102324
0.000753215
0.000481092
0.00021215
-4.9664e-05
-0.000300503
-0.000536625
-0.000754579
-0.000951253
-0.00112389
-0.00127011
-0.00138785
-0.00147541
-0.00153138
-0.00155466
-0.00154437
-0.00149988
-0.00142079
-0.00130687
-0.00115809
-0.000974562
-0.000756588
-0.000504613
-0.000219242
9.87659e-05
0.000448492
0.000828855
0.0012386
0.00167631
0.00214037
0.00262899
0.00314018
0.00367175
0.00422133
0.00478634
0.00536401
0.00595139
0.00654536
0.00714262
0.00773974
0.00833318
0.00891927
0.00949432
0.0100546
0.0105963
0.0111158
0.0116094
0.0120738
0.0125056
0.0129018
0.0132595
0.0135764
0.0138504
0.0140798
0.0142634
0.0144006
0.014491
0.0145351
0.0145338
0.0144886
0.0144014
0.014275
0.0141125
0.0139174
0.0136941
0.0134471
0.0131813
0.0129021
0.0126149
0.0123254
0.0120393
0.0117622
0.0114993
0.0112565
0.011039
0.0108413
0.0106555
0.00229293
0.00192932
0.00160918
0.00131178
0.00101527
0.000723647
0.000441406
0.000171347
-8.37398e-05
-0.000321044
-0.000537941
-0.000732048
-0.000901239
-0.00104366
-0.00115771
-0.00124206
-0.00129562
-0.00131751
-0.00130705
-0.00126375
-0.00118731
-0.00107757
-0.000934498
-0.000758238
-0.000549053
-0.000307344
-3.36515e-05
0.000271345
0.000606819
0.000971796
0.00136514
0.00178554
0.00223153
0.00270143
0.00319339
0.00370538
0.00423514
0.00478024
0.00533805
0.00590574
0.00648032
0.00705861
0.00763731
0.00821297
0.00878203
0.00934088
0.00988586
0.0104133
0.0109196
0.0114011
0.0118545
0.0122764
0.012664
0.0130143
0.0133249
0.0135938
0.0138192
0.0139999
0.0141352
0.0142247
0.0142688
0.0142682
0.0142242
0.0141389
0.0140145
0.0138541
0.013661
0.0134391
0.0131926
0.0129262
0.0126447
0.012353
0.0120563
0.0117595
0.0114677
0.0111852
0.0109175
0.0106693
0.0104295
0.0101859
0.00273187
0.00229957
0.00192942
0.00159556
0.00126986
0.000955633
0.000656718
0.00037493
0.00011212
-0.000129741
-0.000348784
-0.000543306
-0.000711777
-0.000852857
-0.000965396
-0.00104843
-0.00110117
-0.001123
-0.00111343
-0.00107214
-0.000998907
-0.00089365
-0.000756394
-0.000587275
-0.000386543
-0.00015456
0.000108193
0.000401111
0.000723459
0.00107436
0.00145279
0.00185757
0.00228733
0.00274055
0.00321549
0.00371025
0.00422272
0.00475058
0.00529134
0.00584227
0.00640051
0.00696298
0.00752647
0.00808763
0.00864297
0.00918896
0.00972197
0.0102384
0.0107346
0.0112071
0.0116525
0.0120674
0.0124489
0.0127941
0.0131005
0.0133661
0.013589
0.0137679
0.013902
0.0139909
0.0140348
0.0140343
0.0139906
0.0139055
0.0137813
0.0136205
0.0134266
0.0132029
0.0129535
0.0126825
0.0123945
0.012094
0.0117856
0.0114739
0.0111631
0.0108571
0.0105611
0.0102793
0.00999557
0.00969352
0.00315807
0.00265826
0.00223793
0.00186642
0.00150974
0.00117065
0.000852507
0.000556268
0.00028295
3.37722e-05
-0.000190088
-0.000387554
-0.000557655
-0.000699541
-0.000812489
-0.000895897
-0.000949283
-0.000972272
-0.000964591
-0.000926056
-0.000856574
-0.000756133
-0.000624803
-0.000462733
-0.000270162
-4.74165e-05
0.000205076
0.000486784
0.000797057
0.00113512
0.00150006
0.00189079
0.00230609
0.00274455
0.00320457
0.00368437
0.00418195
0.00469513
0.00522151
0.0057585
0.00630331
0.00685298
0.00740437
0.00795418
0.00849901
0.00903534
0.00955961
0.0100682
0.0105575
0.011024
0.0114642
0.0118748
0.0122528
0.0125953
0.0128997
0.0131638
0.0133857
0.013564
0.0136978
0.0137866
0.0138304
0.0138297
0.0137856
0.0136997
0.0135739
0.013411
0.0132137
0.0129855
0.01273
0.0124512
0.0121532
0.0118402
0.0115164
0.0111859
0.0108526
0.0105199
0.0101928
0.00987528
0.00954659
0.00918624
0.00356243
0.00299668
0.00252654
0.00211682
0.00172803
0.00136253
0.00102328
0.000710513
0.000424495
0.000165776
-6.50974e-05
-0.000267622
-0.00044135
-0.000585892
-0.00070093
-0.000786212
-0.000841549
-0.000866812
-0.000861925
-0.000826862
-0.000761643
-0.000666334
-0.000541051
-0.000385963
-0.000201297
1.26512e-05
0.000255507
0.000526808
0.000825989
0.00115237
0.00150514
0.00188334
0.00228585
0.00271139
0.00315848
0.00362546
0.00411045
0.00461138
0.00512596
0.00565171
0.00618591
0.00672568
0.00726795
0.00780948
0.0083469
0.00887671
0.00939535
0.00989921
0.0103847
0.0108481
0.0112861
0.0116953
0.0120724
0.0124145
0.0127191
0.0129836
0.0132062
0.0133853
0.0135199
0.0136092
0.0136532
0.0136523
0.0136073
0.0135197
0.0133913
0.0132245
0.013022
0.0127869
0.0125228
0.0122333
0.0119222
0.0115935
0.0112511
0.0108988
0.01054
0.010178
0.00981759
0.00946281
0.00908843
0.00867028
0.00393698
0.00330706
0.00278781
0.0023398
0.00191829
0.00152535
0.00116368
0.000832831
0.000532423
0.000262399
2.27358e-05
-0.000186594
-0.000365624
-0.000514399
-0.00063298
-0.000721447
-0.000779893
-0.000808426
-0.000807162
-0.000776225
-0.000715747
-0.000625873
-0.000506766
-0.00035861
-0.000181625
2.39246e-05
0.000257716
0.000519354
0.000808356
0.00112414
0.00146599
0.00183307
0.00222437
0.00263873
0.00307478
0.00353099
0.00400559
0.00449661
0.00500187
0.00551896
0.00604526
0.00657795
0.007114
0.00765021
0.00818324
0.00870959
0.00922569
0.0097279
0.0102125
0.010676
0.0111146
0.0115251
0.011904
0.0122483
0.0125553
0.0128223
0.0130475
0.0132289
0.0133655
0.0134563
0.0135011
0.0135002
0.0134542
0.0133644
0.0132324
0.0130605
0.0128512
0.0126074
0.0123325
0.0120299
0.0117031
0.011356
0.0109923
0.0106155
0.0102288
0.00983527
0.00943974
0.00904644
0.00862595
0.00815062
0.00427463
0.00358237
0.00301496
0.00252887
0.00207443
0.00165347
0.00126848
0.000918433
0.000602365
0.000319668
6.98003e-05
-0.000147754
-0.000333475
-0.000487808
-0.000611174
-0.000703962
-0.000766534
-0.000799221
-0.000802322
-0.000776106
-0.000720812
-0.000636659
-0.000523854
-0.000382596
-0.000213096
-1.55867e-05
0.000209661
0.000462321
0.000741993
0.00104818
0.00138029
0.00173758
0.00211916
0.00252399
0.00295081
0.0033982
0.0038645
0.00434785
0.00484616
0.00535709
0.0058781
0.00640642
0.00693907
0.00747287
0.00800447
0.00853037
0.00904698
0.00955058
0.0100375
0.0105039
0.0109461
0.0113607
0.0117441
0.0120932
0.012405
0.0126769
0.0129065
0.013092
0.013232
0.0133255
0.013372
0.0133716
0.0133247
0.0132325
0.0130964
0.0129185
0.0127012
0.0124473
0.0121597
0.0118419
0.0114974
0.0111296
0.0107422
0.0103386
0.00992197
0.00949502
0.00906291
0.00863005
0.00816312
0.00763113
0.00456897
0.00381623
0.00320171
0.002678
0.00219069
0.00174145
0.0013326
0.000962602
0.000629952
0.000333548
7.23709e-05
-0.000154543
-0.000348087
-0.000509082
-0.000638279
-0.000736362
-0.000803943
-0.000841561
-0.00084969
-0.000828731
-0.000779026
-0.000700863
-0.000594485
-0.000460105
-0.000297921
-0.000108131
0.000109046
0.000353354
0.000624475
0.000922014
0.00124547
0.00159421
0.00196748
0.00236432
0.00278361
0.00322404
0.00368404
0.00416186
0.00465549
0.00516268
0.00568093
0.00620753
0.00673952
0.00727374
0.00780683
0.00833527
0.00885539
0.00936345
0.0098556
0.010328
0.0107769
0.0111985
0.0115893
0.0119459
0.0122651
0.0125441
0.0127804
0.012972
0.0131171
0.0132147
0.0132639
0.0132648
0.0132175
0.013123
0.0129826
0.0127982
0.0125721
0.0123067
0.0120052
0.0116706
0.0113065
0.0109161
0.0105031
0.0100708
0.00962225
0.00916026
0.00869024
0.00821691
0.00770317
0.00711485
0.00481416
0.00400272
0.00334223
0.00278152
0.00226162
0.00178409
0.00135113
0.0009607
0.000610835
0.000299969
2.66426e-05
-0.000210521
-0.000412799
-0.000581359
-0.000717263
-0.000821467
-0.000894815
-0.000938045
-0.000951787
-0.000936568
-0.000892823
-0.000820899
-0.000721073
-0.000593565
-0.000438555
-0.000256204
-4.66751e-05
0.000189847
0.000453132
0.000742879
0.00105869
0.00140005
0.00176631
0.00215663
0.00257
0.00300522
0.00346083
0.00393517
0.00442631
0.00493206
0.00545001
0.00597746
0.00651148
0.00704891
0.00758637
0.0081203
0.00864697
0.00916253
0.00966305
0.0101446
0.0106031
0.0110349
0.011436
0.0118028
0.0121322
0.0124209
0.0126663
0.0128661
0.0130183
0.0131216
0.013175
0.0131782
0.0131313
0.013035
0.0128905
0.0126994
0.0124638
0.0121863
0.0118697
0.0115171
0.0111318
0.0107172
0.0102769
0.00981414
0.00933212
0.00883363
0.00832446
0.00780974
0.00724873
0.00660414
0.00500475
0.00413637
0.00343108
0.00283408
0.00228204
0.0017764
0.00131927
0.00090818
0.000540702
0.000214849
-7.12422e-05
-0.000319336
-0.000531065
-0.000707922
-0.000851256
-0.000962276
-0.00104204
-0.00109147
-0.00111135
-0.0011023
-0.00106485
-0.000999406
-0.000906258
-0.000785631
-0.000637683
-0.000462532
-0.000260281
-3.10391e-05
0.000225051
0.000507788
0.000816882
0.00115193
0.00151239
0.00189755
0.00230652
0.00273819
0.00319122
0.00366402
0.00415477
0.00466134
0.00518135
0.00571216
0.00625084
0.00679423
0.00733891
0.00788127
0.0084175
0.00894366
0.00945569
0.00994947
0.0104209
0.0108658
0.0112803
0.0116606
0.012003
0.0123042
0.0125613
0.0127717
0.0129332
0.0130442
0.0131035
0.0131105
0.0130651
0.0129677
0.0128194
0.0126218
0.0123766
0.0120864
0.011754
0.0113823
0.0109747
0.0105345
0.0100654
0.00957079
0.00905382
0.00851746
0.00796795
0.00741088
0.00680195
0.0061008
0.00513566
0.00421202
0.0034631
0.00283061
0.00224698
0.00171357
0.0012324
0.000800586
0.000415286
7.41148e-05
-0.000225173
-0.000484702
-0.000706436
-0.000892171
-0.00104353
-0.00116194
-0.00124868
-0.00130483
-0.00133129
-0.00132881
-0.00129797
-0.00123923
-0.00115289
-0.00103917
-0.000898207
-0.000730062
-0.000534774
-0.000312374
-6.29093e-05
0.000213519
0.000516732
0.000846444
0.00120223
0.0015835
0.00198947
0.00241914
0.00287129
0.00334442
0.00383678
0.00434631
0.00487069
0.00540729
0.00595321
0.00650527
0.00706
0.00761374
0.00816259
0.00870248
0.0092292
0.00973848
0.010226
0.0106875
0.0111186
0.0115154
0.011874
0.0121908
0.0124624
0.0126861
0.0128594
0.0129804
0.0130476
0.0130601
0.0130176
0.0129203
0.0127691
0.0125653
0.0123107
0.0120077
0.0116589
0.0112674
0.0108365
0.0103697
0.00987056
0.00934271
0.00878943
0.00821388
0.00762282
0.00702234
0.00636463
0.00560625
0.00520206
0.00422477
0.0034334
0.00276627
0.00215169
0.00159095
0.00108599
0.000633551
0.000230375
-0.000126292
-0.000439053
-0.000710374
-0.00094253
-0.0011376
-0.00129745
-0.00142375
-0.00151793
-0.00158124
-0.0016147
-0.00161914
-0.00159521
-0.00154339
-0.00146401
-0.00135725
-0.00122323
-0.00106194
-0.000873365
-0.000657436
-0.000414109
-0.000143376
0.0001547
0.000479952
0.000832077
0.00121061
0.00161488
0.00204402
0.00249689
0.0029721
0.00346798
0.00398255
0.00451351
0.00505829
0.00561397
0.00617737
0.00674497
0.00731304
0.00787757
0.00843436
0.00897905
0.00950718
0.0100142
0.0104956
0.0109469
0.0113636
0.0117417
0.0120773
0.0123667
0.0126067
0.0127946
0.0129281
0.0130055
0.0130256
0.0129878
0.012892
0.012739
0.0125299
0.0122664
0.0119507
0.0115854
0.0111737
0.0107188
0.0102244
0.00969409
0.00913178
0.00854091
0.00792486
0.00729098
0.00664592
0.00593832
0.00512166
0.00519933
0.00416995
0.00333733
0.00263642
0.00199159
0.00140405
0.000875666
0.000402797
-1.81872e-05
-0.0003904
-0.000716788
-0.00100014
-0.00124302
-0.00144777
-0.00161651
-0.00175108
-0.00185311
-0.00192397
-0.00196479
-0.00197649
-0.00195975
-0.00191509
-0.00184282
-0.00174311
-0.00161603
-0.00146151
-0.00127945
-0.0010697
-0.000832111
-0.000566551
-0.000272968
4.85961e-05
0.000397967
0.000774804
0.00117857
0.00160851
0.00206359
0.00254254
0.00304375
0.00356532
0.00410502
0.00466028
0.00522821
0.00580558
0.00638885
0.00697419
0.0075575
0.00813443
0.00870045
0.00925088
0.00978095
0.0102859
0.0107608
0.0112012
0.0116025
0.0119603
0.0122709
0.0125305
0.0127362
0.0128852
0.0129755
0.0130056
0.0129746
0.0128822
0.0127289
0.0125156
0.012244
0.011916
0.0115344
0.0111022
0.0106229
0.0101001
0.00953778
0.00893989
0.00831018
0.00765231
0.00697425
0.00628326
0.00552441
0.00464798
0.00512305
0.0040431
0.00317037
0.0024366
0.00176226
0.00114851
0.000597134
0.000104134
-0.000334493
-0.000722203
-0.00106227
-0.00135778
-0.00161159
-0.0018263
-0.00200422
-0.00214741
-0.00225764
-0.0023364
-0.00238492
-0.00240419
-0.00239493
-0.00235765
-0.00229267
-0.00220014
-0.00208004
-0.00193227
-0.00175662
-0.00155283
-0.00132066
-0.00105985
-0.000770226
-0.00045169
-0.000104285
0.000271785
0.000676113
0.00110806
0.00156674
0.00205095
0.00255921
0.00308966
0.00364015
0.00420813
0.00479072
0.00538467
0.00598639
0.00659197
0.00719718
0.00779754
0.00838832
0.00896462
0.00952141
0.0100536
0.0105561
0.0110239
0.0114522
0.0118362
0.0121717
0.0124547
0.0126816
0.0128494
0.0129557
0.0129986
0.0129769
0.0128902
0.0127384
0.0125225
0.0122438
0.0119044
0.0115069
0.0110544
0.0105503
0.00999866
0.00940343
0.00876893
0.00809916
0.00739811
0.0066744
0.00593598
0.00512421
0.00418613
0.00496892
0.00383988
0.0029282
0.00216247
0.00145941
0.000820086
0.000246222
-0.000266544
-0.000722573
-0.00112565
-0.00147936
-0.0017871
-0.00205198
-0.00227683
-0.00246418
-0.00261627
-0.00273499
-0.00282197
-0.00287852
-0.00290566
-0.00290416
-0.00287452
-0.00281706
-0.00273186
-0.00261886
-0.00247786
-0.00230857
-0.00211063
-0.00188367
-0.0016273
-0.00134121
-0.00102516
-0.000679054
-0.000302956
0.000102872
0.000537927
0.00100144
0.00149233
0.00200921
0.00255033
0.00311356
0.00369642
0.00429603
0.00490911
0.00553205
0.00616082
0.0067911
0.00741823
0.0080373
0.00864316
0.00923051
0.00979395
0.0103281
0.0108275
0.0112869
0.0117012
0.0120657
0.012376
0.012628
0.0128183
0.0129441
0.0130031
0.0129938
0.0129152
0.0127673
0.0125506
0.0122664
0.0119167
0.011504
0.0110315
0.0105027
0.00992175
0.00929295
0.00862087
0.00790983
0.00716417
0.00639324
0.00560569
0.00473904
0.00373699
0.00473278
0.00355611
0.00260664
0.00180987
0.00107889
0.000414669
-0.000181143
-0.000713259
-0.00118639
-0.00160464
-0.00197191
-0.00229186
-0.00256788
-0.00280302
-0.003
-0.00316122
-0.00328872
-0.00338422
-0.00344909
-0.00348441
-0.00349096
-0.00346925
-0.00341955
-0.00334189
-0.00323615
-0.00310204
-0.00293916
-0.00274704
-0.00252518
-0.00227304
-0.00199019
-0.00167622
-0.00133089
-0.000954104
-0.000545979
-0.000106872
0.000362583
0.000861439
0.00138841
0.00194184
0.00251968
0.00311948
0.00373839
0.00437312
0.00502
0.00567493
0.00633345
0.00699075
0.00764172
0.00828095
0.00890285
0.0095017
0.0100717
0.010607
0.011102
0.0115511
0.0119491
0.0122911
0.0125725
0.0127895
0.0129387
0.0130175
0.0130239
0.0129566
0.0128152
0.0126001
0.0123123
0.0119538
0.0115269
0.011035
0.0104817
0.00987128
0.00920836
0.00849781
0.00774429
0.00695255
0.00613268
0.0052941
0.00437034
0.00330156
0.00441058
0.00318772
0.0022016
0.00137474
0.000616659
-7.17584e-05
-0.000688941
-0.00123995
-0.00172983
-0.00216301
-0.0025437
-0.00287582
-0.003163
-0.00340852
-0.0036153
-0.00378586
-0.00392238
-0.00402667
-0.00410017
-0.00414399
-0.00415892
-0.00414544
-0.00410378
-0.00403394
-0.00393569
-0.00380866
-0.00365233
-0.00346611
-0.00324934
-0.00300137
-0.00272158
-0.00240942
-0.00206448
-0.0016865
-0.00127543
-0.000831469
-0.000355112
0.000152839
0.000691221
0.00125848
0.00185266
0.00247138
0.00311178
0.00377061
0.00444412
0.00512815
0.00581812
0.00650904
0.0071956
0.00787213
0.00853274
0.00917133
0.00978172
0.0103577
0.010893
0.0113817
0.011818
0.0121965
0.0125121
0.0127604
0.0129374
0.0130402
0.0130661
0.0130136
0.012882
0.0126712
0.0123821
0.0120165
0.0115769
0.0110665
0.0104892
0.00984933
0.00915186
0.00840201
0.00760481
0.00676544
0.0058948
0.0050031
0.00401968
0.002881
0.00399837
0.00273077
0.00170914
0.000853129
6.8784e-05
-0.000643104
-0.00128105
-0.00185046
-0.00235671
-0.00280456
-0.00319847
-0.00354267
-0.00384101
-0.00409698
-0.00431367
-0.00449376
-0.00463955
-0.0047529
-0.00483534
-0.00488798
-0.00491162
-0.00490671
-0.00487345
-0.00481174
-0.00472129
-0.00460161
-0.00445206
-0.00427192
-0.00406037
-0.00381662
-0.00353986
-0.00322939
-0.00288461
-0.00250508
-0.00209058
-0.00164114
-0.00115709
-0.000639065
-8.81041e-05
0.00049437
0.0011065
0.00174596
0.00240996
0.00309523
0.00379802
0.00451407
0.00523869
0.00596673
0.00669265
0.00741052
0.00811413
0.00879702
0.00945257
0.0100741
0.0106549
0.0111884
0.0116682
0.0120884
0.0124434
0.012728
0.0129378
0.0130692
0.0131191
0.0130855
0.0129672
0.012764
0.0124764
0.0121061
0.0116555
0.0111279
0.0105272
0.00985815
0.00912585
0.00833594
0.00749388
0.00660527
0.0056819
0.00473479
0.00368886
0.00247668
0.00349231
0.0021814
0.00112542
0.000241209
-0.000568552
-0.00130317
-0.00196126
-0.00254855
-0.00307078
-0.00353297
-0.00393991
-0.00429606
-0.00460552
-0.00487198
-0.0050987
-0.0052885
-0.00544376
-0.00556646
-0.00565814
-0.00571994
-0.00575266
-0.00575671
-0.00573223
-0.00567905
-0.00559678
-0.00548481
-0.00534238
-0.0051686
-0.00496253
-0.00472317
-0.00444957
-0.00414082
-0.00379613
-0.00341487
-0.00299664
-0.00254126
-0.00204889
-0.00152
-0.000955459
-0.000356556
0.000274966
0.000936882
0.00162646
0.00234045
0.00307507
0.00382602
0.00458848
0.00535716
0.00612627
0.00688963
0.00764069
0.00837261
0.00907832
0.00975062
0.0103823
0.0109661
0.0114952
0.0119629
0.0123629
0.0126894
0.0129375
0.0131027
0.0131816
0.0131715
0.0130708
0.0128788
0.012596
0.0122238
0.0117644
0.0112211
0.0105981
0.00990022
0.00913298
0.00830238
0.00741428
0.00647478
0.00549658
0.00449158
0.00338001
0.00209031
0.00288865
0.00153588
0.000446722
-0.000464741
-0.00129907
-0.00205567
-0.00273326
-0.00333791
-0.00387567
-0.00435189
-0.00477162
-0.00513958
-0.00546011
-0.00573707
-0.00597391
-0.00617356
-0.00633853
-0.00647084
-0.00657208
-0.00664341
-0.0066856
-0.00669903
-0.00668377
-0.00663958
-0.00656594
-0.00646213
-0.00632725
-0.00616026
-0.00596004
-0.00572541
-0.00545523
-0.00514839
-0.0048039
-0.00442092
-0.00399882
-0.00353725
-0.00303613
-0.00249576
-0.00191683
-0.00130046
-0.00064826
3.76589e-05
0.000754647
0.00149949
0.00226842
0.00305708
0.00386055
0.00467338
0.00548957
0.00630267
0.00710578
0.00789164
0.00865274
0.00938134
0.0100696
0.0107098
0.0112942
0.0118155
0.0122667
0.0126414
0.0129337
0.0131386
0.013252
0.0132706
0.0131923
0.013016
0.0127418
0.0123708
0.0119051
0.0113482
0.0107043
0.00997833
0.00917623
0.00830439
0.00736912
0.00637704
0.0053418
0.00427625
0.00309561
0.00172395
0.00218377
0.0007906
-0.000330586
-0.00126834
-0.00212636
-0.0029042
-0.00360065
-0.00422211
-0.00477497
-0.00526487
-0.00569713
-0.00607674
-0.00640824
-0.00669572
-0.00694274
-0.0071524
-0.00732728
-0.00746948
-0.00758061
-0.00766184
-0.00771392
-0.0077372
-0.00773165
-0.00769695
-0.00763248
-0.00753738
-0.00741059
-0.00725092
-0.00705705
-0.00682763
-0.0065613
-0.00625673
-0.00591272
-0.00552821
-0.00510233
-0.00463449
-0.0041244
-0.00357215
-0.00297822
-0.00234355
-0.00166958
-0.000958291
-0.000212219
0.00056549
0.00137108
0.00220017
0.00304775
0.00390824
0.00477542
0.00564256
0.00650243
0.00734734
0.00816929
0.00895999
0.009711
0.0104138
0.0110602
0.0116418
0.012151
0.0125805
0.0129237
0.0131748
0.0133289
0.0133821
0.0133316
0.0131759
0.0129146
0.0125486
0.0120799
0.0115118
0.0108486
0.0100956
0.0092589
0.00834542
0.00736192
0.00631553
0.00522095
0.004092
0.00283858
0.00138012
0.00137414
-5.79677e-05
-0.00121001
-0.00217309
-0.00305395
-0.00385225
-0.0045669
-0.00520463
-0.00577213
-0.00627535
-0.00671987
-0.00711095
-0.00745333
-0.00775129
-0.00800856
-0.00822836
-0.00841335
-0.0085657
-0.00868705
-0.00877858
-0.008841
-0.0088746
-0.00887931
-0.00885468
-0.00879998
-0.00871422
-0.00859617
-0.00844446
-0.00825759
-0.00803399
-0.00777209
-0.00747034
-0.00712729
-0.00674162
-0.00631224
-0.00583829
-0.00531924
-0.00475493
-0.00414561
-0.00349202
-0.0027954
-0.00205757
-0.00128093
-0.000468524
0.000375933
0.00124806
0.00214279
0.00305438
0.00397646
0.004902
0.00582343
0.00673265
0.00762113
0.00847999
0.00930016
0.0100724
0.0107876
0.0114368
0.0120113
0.012503
0.0129044
0.0132088
0.0134105
0.0135048
0.0134883
0.0133589
0.0131156
0.0127589
0.0122908
0.0117144
0.0110341
0.0102554
0.00938471
0.00842937
0.00739664
0.00629423
0.00513791
0.00394254
0.00261236
0.00106184
0.000456348
-0.00101321
-0.00219494
-0.00318238
-0.00408523
-0.00490323
-0.00563543
-0.00628885
-0.00687053
-0.00738669
-0.00784319
-0.00824552
-0.00859866
-0.00890706
-0.00917461
-0.00940465
-0.00959994
-0.0097627
-0.0098946
-0.00999682
-0.01007
-0.0101145
-0.01013
-0.0101161
-0.0100718
-0.00999613
-0.00988756
-0.00974457
-0.00956547
-0.00934847
-0.00909175
-0.00879353
-0.00845209
-0.00806586
-0.00763347
-0.00715378
-0.006626
-0.00604969
-0.00542484
-0.00475195
-0.00403204
-0.00326671
-0.00245823
-0.00160949
-0.00072414
0.000193477
0.00113825
0.00210435
0.00308519
0.00407352
0.00506139
0.00604029
0.00700117
0.00793453
0.00883062
0.00967944
0.010471
0.0111954
0.0118431
0.012405
0.0128725
0.0132381
0.013495
0.0136378
0.0136622
0.0135653
0.0133458
0.0130036
0.0125404
0.0119592
0.0112644
0.0104617
0.00955782
0.0085606
0.00747778
0.00631765
0.00509713
0.00383219
0.00242099
0.000772754
-0.000572865
-0.0020784
-0.00328865
-0.00429951
-0.00522347
-0.00606043
-0.00680951
-0.00747807
-0.00807344
-0.00860214
-0.00907031
-0.00948366
-0.0098474
-0.0101662
-0.010444
-0.0106844
-0.0108901
-0.0110635
-0.0112063
-0.0113196
-0.011404
-0.0114599
-0.0114869
-0.0114843
-0.0114512
-0.0113863
-0.0112881
-0.0111547
-0.0109842
-0.0107747
-0.0105241
-0.0102303
-0.00989133
-0.00950533
-0.00907064
-0.00858583
-0.00804979
-0.00746179
-0.00682153
-0.00612921
-0.00538561
-0.00459211
-0.00375074
-0.00286427
-0.00193619
-0.000970809
2.67753e-05
0.00105064
0.00209406
0.00314952
0.00420875
0.00526281
0.00630211
0.00731655
0.00829561
0.00922851
0.0101043
0.0109123
0.0116416
0.0122823
0.0128246
0.01326
0.0135806
0.01378
0.013853
0.0137959
0.0136066
0.0132847
0.0128313
0.0122494
0.0115432
0.0107187
0.00978293
0.00874406
0.00761042
0.00639092
0.0051037
0.00376588
0.00226916
0.000517153
-0.00171663
-0.00325668
-0.00449429
-0.00552763
-0.00647188
-0.00732703
-0.00809234
-0.00877545
-0.00938403
-0.00992485
-0.0104043
-0.0108284
-0.0112026
-0.0115316
-0.0118197
-0.0120704
-0.0122867
-0.0124709
-0.0126249
-0.0127496
-0.0128458
-0.0129135
-0.0129526
-0.0129621
-0.0129409
-0.0128877
-0.0128007
-0.0126778
-0.0125171
-0.0123161
-0.0120726
-0.0117843
-0.0114488
-0.0110641
-0.010628
-0.0101389
-0.00959536
-0.00899624
-0.00834094
-0.00762937
-0.00686197
-0.00603986
-0.00516484
-0.00423947
-0.00326709
-0.00225188
-0.00119893
-0.00011418
0.000995506
0.00212239
0.00325791
0.00439266
0.00551654
0.00661881
0.00768819
0.00871304
0.0096815
0.0105817
0.0114018
0.0121306
0.0127572
0.0132718
0.0136653
0.0139303
0.0140604
0.0140511
0.0138995
0.0136044
0.0131666
0.0125887
0.011875
0.0110314
0.0100653
0.00898529
0.00780031
0.00651987
0.00516342
0.0037493
0.00216232
0.000300097
-0.00297794
-0.00455106
-0.00581491
-0.0068698
-0.0078335
-0.00870612
-0.00948699
-0.0101841
-0.0108053
-0.0113578
-0.0118483
-0.0122828
-0.0126671
-0.0130062
-0.0133044
-0.0135654
-0.0137924
-0.0139876
-0.0141529
-0.0142894
-0.0143977
-0.0144779
-0.0145296
-0.0145518
-0.0145435
-0.0145028
-0.0144279
-0.0143167
-0.0141667
-0.0139755
-0.0137403
-0.0134587
-0.013128
-0.0127457
-0.0123094
-0.0118171
-0.011267
-0.0106576
-0.00998791
-0.00925752
-0.00846651
-0.00761568
-0.00670654
-0.0057414
-0.00472339
-0.00365656
-0.0025459
-0.00139735
-0.000217863
0.000984645
0.00220129
0.00342229
0.004637
0.00583403
0.00700132
0.00812633
0.00919619
0.0101979
0.0111185
0.0119454
0.0126664
0.0132704
0.0137471
0.0140875
0.0142843
0.0143318
0.0142261
0.0139653
0.0135497
0.0129814
0.0122645
0.011405
0.0104107
0.00929052
0.00805392
0.00671111
0.00528291
0.003789
0.00210676
0.000127494
-0.0043596
-0.0059644
-0.0072534
-0.00832897
-0.00931133
-0.0102007
-0.0109965
-0.0117069
-0.0123403
-0.012904
-0.0134049
-0.0138495
-0.0142437