/*--------------------------------*- C++ -*----------------------------------*\
  =========                 |
  \\      /  F ield         | OpenFOAM: The Open Source CFD Toolbox
   \\    /   O peration     | Website:  https://openfoam.org
    \\  /    A nd           | Version:  7
     \\/     M anipulation  |
\*---------------------------------------------------------------------------*/
FoamFile
{
    version     2.0;
    format      ascii;
    class       surfaceScalarField;
    location    "1.4";
    object      phi;
}
// * * * * * * * * * * * * * * * * * * * * * * * * * * * * * * * * * * * * * //

dimensions      [0 3 -1 0 0 0 0];

internalField   nonuniform List<scalar> 
12640
(
2.99321e-10
-2.99048e-10
8.67569e-10
-5.68257e-10
1.37519e-09
-5.0761e-10
1.63711e-09
-2.61927e-10
1.57066e-09
6.64318e-11
1.15085e-09
4.19792e-10
3.83902e-10
7.66963e-10
-7.07483e-10
1.09138e-09
-2.0934e-09
1.38592e-09
-3.74212e-09
1.64873e-09
-5.62317e-09
1.88104e-09
-7.70895e-09
2.0858e-09
-9.97558e-09
2.26664e-09
-1.24029e-08
2.42728e-09
-1.49741e-08
2.5712e-09
-1.76753e-08
2.70124e-09
-2.04949e-08
2.8196e-09
-2.34226e-08
2.92767e-09
-2.64487e-08
3.02611e-09
-2.95635e-08
3.11482e-09
-3.27566e-08
3.19306e-09
-3.60161e-08
3.25951e-09
-3.93285e-08
3.31238e-09
-4.2678e-08
3.34949e-09
-4.60464e-08
3.36841e-09
-4.9413e-08
3.36657e-09
-5.27543e-08
3.3413e-09
-5.60442e-08
3.28995e-09
-5.92542e-08
3.21004e-09
-6.23535e-08
3.09925e-09
-6.53091e-08
2.95561e-09
-6.80866e-08
2.77748e-09
-7.06503e-08
2.56372e-09
-7.2964e-08
2.31372e-09
-7.49915e-08
2.02748e-09
-7.66972e-08
1.70568e-09
-7.80469e-08
1.34973e-09
-7.90088e-08
9.61836e-10
-7.95538e-08
5.45009e-10
-7.96569e-08
1.03105e-10
-7.92975e-08
-3.59349e-10
-7.84607e-08
-8.36827e-10
-7.71375e-08
-1.32322e-09
-7.53258e-08
-1.81174e-09
-7.30306e-08
-2.29509e-09
-7.02651e-08
-2.76559e-09
-6.70498e-08
-3.21529e-09
-6.34136e-08
-3.6362e-09
-5.93931e-08
-4.02051e-09
-5.50323e-08
-4.36075e-09
-5.03823e-08
-4.64999e-09
-4.55002e-08
-4.88212e-09
-4.04482e-08
-5.05196e-09
-3.52927e-08
-5.15553e-09
-3.01026e-08
-5.19008e-09
-2.49483e-08
-5.15431e-09
-1.98999e-08
-5.04836e-09
-1.50261e-08
-4.87388e-09
-1.03921e-08
-4.63398e-09
-6.059e-09
-4.33312e-09
-2.08192e-09
-3.97706e-09
1.49079e-09
-3.57271e-09
4.61863e-09
-3.12785e-09
7.26959e-09
-2.65097e-09
9.42076e-09
-2.15117e-09
1.10587e-08
-1.63789e-09
1.21795e-08
-1.12083e-09
1.27893e-08
-6.09811e-10
1.29042e-08
-1.14906e-10
1.25507e-08
3.53482e-10
1.17665e-08
7.84278e-10
1.06013e-08
1.16521e-09
9.11924e-09
1.48201e-09
7.40201e-09
1.71725e-09
5.55323e-09
1.8488e-09
3.70489e-09
1.84834e-09
2.02363e-09
1.68125e-09
7.16259e-10
1.30737e-09
1.81067e-11
6.98152e-10
1.81017e-11
5.74229e-10
-8.73286e-10
1.38962e-09
-1.38368e-09
1.91719e-09
-1.03517e-09
1.83388e-09
-1.78599e-10
9.60617e-10
9.39696e-10
-7.77385e-10
2.15781e-09
-3.38622e-09
3.37576e-09
-6.83035e-09
4.53553e-09
-1.10515e-08
5.60707e-09
-1.59814e-08
6.57861e-09
-2.15501e-08
7.44975e-09
-2.7691e-08
8.22669e-09
-3.43434e-08
8.91904e-09
-4.14536e-08
9.53753e-09
-4.89748e-08
1.00924e-08
-5.6866e-08
1.05924e-08
-6.50907e-08
1.10443e-08
-7.36152e-08
1.14523e-08
-8.24072e-08
1.18181e-08
-9.14336e-08
1.21412e-08
-1.00659e-07
1.24186e-08
-1.10045e-07
1.26456e-08
-1.19548e-07
1.28156e-08
-1.2912e-07
1.29211e-08
-1.38705e-07
1.29534e-08
-1.48242e-07
1.29035e-08
-1.57663e-07
1.27622e-08
-1.66893e-07
1.25204e-08
-1.75853e-07
1.21696e-08
-1.84456e-07
1.17023e-08
-1.92612e-07
1.1112e-08
-2.00229e-07
1.03938e-08
-2.0721e-07
9.54448e-09
-2.13459e-07
8.56284e-09
-2.18881e-07
7.45e-09
-2.23385e-07
6.20955e-09
-2.26883e-07
4.84767e-09
-2.29295e-07
3.37337e-09
-2.30548e-07
1.79845e-09
-2.30583e-07
1.37784e-10
-2.2935e-07
-1.59175e-09
-2.26817e-07
-3.36959e-09
-2.22967e-07
-5.17343e-09
-2.178e-07
-6.97875e-09
-2.11336e-07
-8.75934e-09
-2.03614e-07
-1.04878e-08
-1.94693e-07
-1.21361e-08
-1.84653e-07
-1.36761e-08
-1.73593e-07
-1.50805e-08
-1.61631e-07
-1.63231e-08
-1.48901e-07
-1.73801e-08
-1.35553e-07
-1.82301e-08
-1.21749e-07
-1.88552e-08
-1.07663e-07
-1.92416e-08
-9.34737e-08
-1.93798e-08
-7.93628e-08
-1.92652e-08
-6.55131e-08
-1.88981e-08
-5.21027e-08
-1.82842e-08
-3.93025e-08
-1.74342e-08
-2.72722e-08
-1.63634e-08
-1.61575e-08
-1.50919e-08
-6.08658e-09
-1.36436e-08
2.83155e-09
-1.2046e-08
1.05099e-08
-1.03293e-08
1.68848e-08
-8.52608e-09
2.19174e-08
-6.67043e-09
2.55943e-08
-4.7978e-09
2.79292e-08
-2.94469e-09
2.8963e-08
-1.14867e-09
2.87653e-08
5.51138e-10
2.74362e-08
2.11342e-09
2.51085e-08
3.49294e-09
2.19515e-08
4.63904e-09
1.81756e-08
5.49316e-09
1.40378e-08
5.98654e-09
9.84658e-09
6.03957e-09
5.96153e-09
5.5663e-09
2.78066e-09
4.48824e-09
6.9502e-10
2.78381e-09
7.13131e-10
5.21276e-10
-1.39455e-09
1.04597e-09
-1.90838e-09
9.73938e-10
-9.63165e-10
-6.31003e-11
8.58421e-10
-2.27837e-09
3.155e-09
-5.76919e-09
5.64861e-09
-1.05485e-08
8.15512e-09
-1.65749e-08
1.05619e-08
-2.37743e-08
1.28064e-08
-3.2056e-08
1.48603e-08
-4.1324e-08
1.67177e-08
-5.14839e-08
1.83865e-08
-6.24471e-08
1.98823e-08
-7.41329e-08
2.12233e-08
-8.64685e-08
2.24279e-08
-9.9388e-08
2.35119e-08
-1.12831e-07
2.4487e-08
-1.26739e-07
2.53609e-08
-1.41057e-07
2.6136e-08
-1.55726e-07
2.68103e-08
-1.70685e-07
2.73772e-08
-1.85866e-07
2.78264e-08
-2.01194e-07
2.81444e-08
-2.16589e-07
2.83154e-08
-2.31957e-07
2.83218e-08
-2.47199e-07
2.8145e-08
-2.62203e-07
2.77666e-08
-2.76851e-07
2.71685e-08
-2.91016e-07
2.63341e-08
-3.04562e-07
2.52485e-08
-3.1735e-07
2.38998e-08
-3.29235e-07
2.22791e-08
-3.40072e-07
2.03813e-08
-3.49715e-07
1.82059e-08
-3.58022e-07
1.57568e-08
-3.64855e-07
1.30432e-08
-3.70087e-07
1.008e-08
-3.73601e-07
6.88733e-09
-3.75294e-07
3.49143e-09
-3.75081e-07
-7.53966e-11
-3.72896e-07
-3.7772e-09
-3.68695e-07
-7.57017e-09
-3.62461e-07
-1.14077e-08
-3.54201e-07
-1.52387e-08
-3.43951e-07
-1.90089e-08
-3.31777e-07
-2.2662e-08
-3.17773e-07
-2.61404e-08
-3.02062e-07
-2.93871e-08
-2.84796e-07
-3.23462e-08
-2.66154e-07
-3.49649e-08
-2.4634e-07
-3.71946e-08
-2.25578e-07
-3.89923e-08
-2.04111e-07
-4.03219e-08
-1.82197e-07
-4.11553e-08
-1.60104e-07
-4.1473e-08
-1.38104e-07
-4.12656e-08
-1.16468e-07
-4.05337e-08
-9.54644e-08
-3.9288e-08
-7.53488e-08
-3.75498e-08
-5.63622e-08
-3.535e-08
-3.87252e-08
-3.27288e-08
-2.26338e-08
-2.9735e-08
-8.25536e-09
-2.64244e-08
4.27447e-09
-2.28591e-08
1.48547e-08
-1.91063e-08
2.34213e-08
-1.5237e-08
2.99491e-08
-1.13256e-08
3.44534e-08
-7.44902e-09
3.69916e-08
-3.68683e-09
3.76649e-08
-1.22097e-10
3.662e-08
3.15833e-09
3.40525e-08
6.06039e-09
3.02099e-08
8.48173e-09
2.53947e-08
1.03083e-08
1.99687e-08
1.14126e-08
1.43528e-08
1.16555e-08
9.02312e-09
1.0896e-08
4.49658e-09
9.01479e-09
1.30503e-09
5.97537e-09
2.01817e-09
2.67885e-10
-1.66243e-09
1.36342e-10
-1.77683e-09
-9.72685e-10
1.45838e-10
-3.41705e-09
3.3028e-09
-7.40414e-09
7.14206e-09
-1.30249e-08
1.12693e-08
-2.0286e-08
1.54163e-08
-2.91366e-08
1.94125e-08
-3.94893e-08
2.31591e-08
-5.12367e-08
2.66078e-08
-6.42639e-08
2.97449e-08
-7.84559e-08
3.25785e-08
-9.37027e-08
3.51291e-08
-1.09902e-07
3.74224e-08
-1.26958e-07
3.94844e-08
-1.44784e-07
4.13378e-08
-1.63296e-07
4.29993e-08
-1.82415e-07
4.4479e-08
-2.02058e-07
4.57792e-08
-2.22143e-07
4.68951e-08
-2.4258e-07
4.78149e-08
-2.63275e-07
4.85208e-08
-2.8412e-07
4.89901e-08
-3.05002e-07
4.91967e-08
-3.25791e-07
4.91115e-08
-3.46351e-07
4.87046e-08
-3.6653e-07
4.7946e-08
-3.86169e-07
4.68072e-08
-4.05097e-07
4.52618e-08
-4.23136e-07
4.32874e-08
-4.40102e-07
4.08659e-08
-4.55808e-07
3.79849e-08
-4.70065e-07
3.46387e-08
-4.82688e-07
3.08286e-08
-4.93495e-07
2.65641e-08
-5.02315e-07
2.18631e-08
-5.08988e-07
1.67526e-08
-5.13369e-07
1.12689e-08
-5.15335e-07
5.45724e-09
-5.14783e-07
-6.27555e-10
-5.11637e-07
-6.92288e-09
-5.0585e-07
-1.33568e-08
-4.97407e-07
-1.9851e-08
-4.86325e-07
-2.6321e-08
-4.72656e-07
-3.26774e-08
-4.56491e-07
-3.88277e-08
-4.37953e-07
-4.46782e-08
-4.17204e-07
-5.01358e-08
-3.94441e-07
-5.51098e-08
-3.69891e-07
-5.95147e-08
-3.43814e-07
-6.32717e-08
-3.16495e-07
-6.63111e-08
-2.88243e-07
-6.85741e-08
-2.59383e-07
-7.00151e-08
-2.30254e-07
-7.06023e-08
-2.012e-07
-7.03195e-08
-1.72566e-07
-6.91671e-08
-1.44693e-07
-6.71617e-08
-1.17906e-07
-6.43367e-08
-9.25141e-08
-6.07415e-08
-6.88021e-08
-5.64409e-08
-4.70238e-08
-5.15133e-08
-2.73985e-08
-4.60497e-08
-1.01061e-08
-4.01516e-08
4.7172e-09
-3.39296e-08
1.69814e-08
-2.75012e-08
2.66461e-08
-2.09902e-08
3.37223e-08
-1.45253e-08
3.82752e-08
-8.23975e-09
4.04254e-08
-2.27227e-09
4.03517e-08
3.2321e-09
3.82926e-08
8.11949e-09
3.45493e-08
1.2225e-08
2.94875e-08
1.53701e-08
2.35385e-08
1.73617e-08
1.71982e-08
1.79958e-08
1.10247e-08
1.70695e-08
5.63201e-09
1.44075e-08
1.69225e-09
9.91515e-09
3.71041e-09
-9.66274e-11
-1.56582e-09
-1.13467e-09
-7.38782e-10
-3.60324e-09
2.61443e-09
-7.80562e-09
7.50515e-09
-1.39097e-08
1.32461e-08
-2.19793e-08
1.93389e-08
-3.20005e-08
2.54375e-08
-4.39051e-08
3.13171e-08
-5.75899e-08
3.68439e-08
-7.29324e-08
4.19503e-08
-8.98015e-08
4.6614e-08
-1.08066e-07
5.08427e-08
-1.27598e-07
5.46613e-08
-1.48278e-07
5.81022e-08
-1.69992e-07
6.11984e-08
-1.92632e-07
6.39784e-08
-2.16096e-07
6.64629e-08
-2.4028e-07
6.86633e-08
-2.65081e-07
7.05802e-08
-2.90391e-07
7.22045e-08
-3.16093e-07
7.35172e-08
-3.42064e-07
7.44914e-08
-3.68167e-07
7.50932e-08
-3.94254e-07
7.52839e-08
-4.20164e-07
7.50217e-08
-4.45723e-07
7.42635e-08
-4.70744e-07
7.29667e-08
-4.95028e-07
7.1091e-08
-5.18366e-07
6.86002e-08
-5.40542e-07
6.54639e-08
-5.61335e-07
6.16585e-08
-5.80519e-07
5.71691e-08
-5.97871e-07
5.19907e-08
-6.13171e-07
4.61289e-08
-6.26209e-07
3.96011e-08
-6.36783e-07
3.24373e-08
-6.4471e-07
2.46802e-08
-6.49827e-07
1.63858e-08
-6.51993e-07
7.62341e-09
-6.51096e-07
-1.52499e-09
-6.47053e-07
-1.09656e-08
-6.39817e-07
-2.05927e-08
-6.29377e-07
-3.02912e-08
-6.15761e-07
-3.99377e-08
-5.99036e-07
-4.94024e-08
-5.79312e-07
-5.85515e-08
-5.5674e-07
-6.72497e-08
-5.31513e-07
-7.53628e-08
-5.03863e-07
-8.27607e-08
-4.74057e-07
-8.93202e-08
-4.42401e-07
-9.49282e-08
-4.09227e-07
-9.94845e-08
-3.74897e-07
-1.02904e-07
-3.39791e-07
-1.05121e-07
-3.04305e-07
-1.06088e-07
-2.68842e-07
-1.05782e-07
-2.33809e-07
-1.04201e-07
-1.99604e-07
-1.01367e-07
-1.66614e-07
-9.73263e-08
-1.35206e-07
-9.21491e-08
-1.05721e-07
-8.59266e-08
-7.8463e-08
-7.8771e-08
-5.37e-08
-7.08127e-08
-3.16532e-08
-6.21984e-08
-1.24941e-08
-5.30887e-08
3.65999e-09
-4.36553e-08
1.67495e-08
-3.40797e-08
2.67753e-08
-2.45511e-08
3.38018e-08
-1.52662e-08
3.79584e-08
-6.42887e-09
3.9442e-08
1.74849e-09
3.85183e-08
9.04321e-09
3.55232e-08
1.52201e-08
3.08638e-08
2.00294e-08
2.50188e-08
2.32067e-08
1.85377e-08
2.44768e-08
1.2042e-08
2.35653e-08
6.22894e-09
2.02205e-08
1.89154e-09
1.42525e-08
5.60194e-09
-5.23857e-10
-1.04198e-09
-2.63668e-09
1.37405e-09
-6.69854e-09
6.67628e-09
-1.2925e-08
1.37316e-08
-2.14206e-08
2.17418e-08
-3.22027e-08
3.0121e-08
-4.52232e-08
3.84579e-08
-6.03879e-08
4.64819e-08
-7.75736e-08
5.40295e-08
-9.66401e-08
6.10168e-08
-1.17441e-07
6.74151e-08
-1.39831e-07
7.32322e-08
-1.63667e-07
7.84975e-08
-1.88814e-07
8.32496e-08
-2.15143e-07
8.75274e-08
-2.42529e-07
9.13644e-08
-2.7085e-07
9.47837e-08
-2.99983e-07
9.77963e-08
-3.29803e-07
1.004e-07
-3.60177e-07
1.02578e-07
-3.90964e-07
1.04304e-07
-4.22012e-07
1.0554e-07
-4.53157e-07
1.06238e-07
-4.84218e-07
1.06345e-07
-5.15003e-07
1.05807e-07
-5.45304e-07
1.04565e-07
-5.749e-07
1.02563e-07
-6.03559e-07
9.97492e-08
-6.31036e-07
9.60776e-08
-6.57082e-07
9.151e-08
-6.81442e-07
8.60185e-08
-7.0386e-07
7.95871e-08
-7.24082e-07
7.22131e-08
-7.41862e-07
6.39088e-08
-7.56963e-07
5.47022e-08
-7.69164e-07
4.46382e-08
-7.78263e-07
3.37786e-08
-7.8408e-07
2.22029e-08
-7.86464e-07
1.00076e-08
-7.85295e-07
-2.69383e-09
-7.80488e-07
-1.57727e-08
-7.71995e-07
-2.90854e-08
-7.5981e-07
-4.24762e-08
-7.43969e-07
-5.57785e-08
-7.24553e-07
-6.88184e-08
-7.01688e-07
-8.14166e-08
-6.75545e-07
-9.33924e-08
-6.46341e-07
-1.04567e-07
-6.14336e-07
-1.14766e-07
-5.7983e-07
-1.23826e-07
-5.43161e-07
-1.31596e-07
-5.04704e-07
-1.37942e-07
-4.64859e-07
-1.42749e-07
-4.24052e-07
-1.45928e-07
-3.82726e-07
-1.47414e-07
-3.41334e-07
-1.47174e-07
-3.00332e-07
-1.45203e-07
-2.60172e-07
-1.41527e-07
-2.21293e-07
-1.36205e-07
-1.84114e-07
-1.29329e-07
-1.49024e-07
-1.21016e-07
-1.16379e-07
-1.11416e-07
-8.64897e-08
-1.00702e-07
-5.96196e-08
-8.90686e-08
-3.59757e-08
-7.67325e-08
-1.57056e-08
-6.39255e-08
1.10777e-09
-5.08931e-08
1.44494e-08
-3.78927e-08
2.43749e-08
-2.51918e-08
3.10133e-08
-1.30673e-08
3.45683e-08
-1.80654e-09
3.53198e-08
8.29176e-09
3.36244e-08
1.69156e-08
2.99158e-08
2.3738e-08
2.47053e-08
2.84172e-08
1.85823e-08
3.05998e-08
1.22187e-08
2.99289e-08
6.37917e-09
2.60601e-08
1.94725e-09
1.86844e-08
7.54919e-09
-9.88665e-10
-5.3302e-11
-4.28799e-09
4.67334e-09
-1.01099e-08
1.24982e-08
-1.85603e-08
2.21821e-08
-2.96613e-08
3.28427e-08
-4.33681e-08
4.38279e-08
-5.95866e-08
5.46764e-08
-7.81883e-08
6.50835e-08
-9.90236e-08
7.48649e-08
-1.21933e-07
8.39257e-08
-1.46752e-07
9.22347e-08
-1.73322e-07
9.98023e-08
-2.01488e-07
1.06663e-07
-2.31099e-07
1.12861e-07
-2.62014e-07
1.18442e-07
-2.94091e-07
1.23442e-07
-3.27193e-07
1.27885e-07
-3.61178e-07
1.31781e-07
-3.959e-07
1.35122e-07
-4.31205e-07
1.37883e-07
-4.66927e-07
1.40027e-07
-5.02889e-07
1.41502e-07
-5.38898e-07
1.42247e-07
-5.74747e-07
1.42194e-07
-6.10211e-07
1.41271e-07
-6.45053e-07
1.39407e-07
-6.79021e-07
1.36531e-07
-7.11851e-07
1.32579e-07
-7.43269e-07
1.27496e-07
-7.72997e-07
1.21238e-07
-8.0075e-07
1.13772e-07
-8.26247e-07
1.05084e-07
-8.49208e-07
9.51745e-08
-8.69365e-07
8.40657e-08
-8.86461e-07
7.17982e-08
-9.00257e-07
5.84343e-08
-9.10536e-07
4.40579e-08
-9.17108e-07
2.87745e-08
-9.19812e-07
1.27112e-08
-9.18521e-07
-3.98451e-09
-9.13148e-07
-2.11461e-08
-9.03644e-07
-3.8589e-08
-8.90006e-07
-5.61139e-08
-8.72276e-07
-7.35085e-08
-8.50543e-07
-9.05514e-08
-8.24945e-07
-1.07015e-07
-7.95667e-07
-1.22671e-07
-7.62942e-07
-1.37291e-07
-7.27053e-07
-1.50656e-07
-6.88321e-07
-1.62558e-07
-6.47115e-07
-1.72803e-07
-6.03835e-07
-1.81221e-07
-5.58918e-07
-1.87666e-07
-5.12826e-07
-1.9202e-07
-4.6604e-07
-1.942e-07
-4.19057e-07
-1.94157e-07
-3.72377e-07
-1.91883e-07
-3.26499e-07
-1.87405e-07
-2.81908e-07
-1.80796e-07
-2.39073e-07
-1.72164e-07
-1.98432e-07
-1.61658e-07
-1.60386e-07
-1.49462e-07
-1.25292e-07
-1.35795e-07
-9.34557e-08
-1.20905e-07
-6.5122e-08
-1.05066e-07
-4.0472e-08
-8.85755e-08
-1.96167e-08
-7.17484e-08
-2.59315e-09
-5.49163e-08
1.06391e-08
-3.8424e-08
2.02e-08
-2.26282e-08
2.62911e-08
-7.8977e-09
2.91965e-08
5.38639e-09
2.92829e-08
1.68291e-08
2.70003e-08
2.60206e-08
2.28821e-08
3.25354e-08
1.75476e-08
3.59344e-08
1.17072e-08
3.57693e-08
6.17564e-09
3.15917e-08
1.89643e-09
2.29636e-08
9.44563e-09
-1.47567e-09
1.42235e-09
-6.03729e-09
9.23495e-09
-1.37376e-08
2.01985e-08
-2.45596e-08
3.3004e-08
-3.84288e-08
4.67119e-08
-5.52265e-08
6.06255e-08
-7.48021e-08
7.4252e-08
-9.69849e-08
8.72664e-08
-1.21594e-07
9.94741e-08
-1.48446e-07
1.10778e-07
-1.77359e-07
1.21148e-07
-2.08159e-07
1.30602e-07
-2.40677e-07
1.39181e-07
-2.74752e-07
1.46936e-07
-3.10229e-07
1.53918e-07
-3.46953e-07
1.60166e-07
-3.84772e-07
1.65704e-07
-4.23527e-07
1.70536e-07
-4.63054e-07
1.74649e-07
-5.03179e-07
1.78008e-07
-5.43713e-07
1.80561e-07
-5.84454e-07
1.82244e-07
-6.25186e-07
1.82978e-07
-6.65673e-07
1.82681e-07
-7.05665e-07
1.81263e-07
-7.44897e-07
1.78638e-07
-7.83088e-07
1.74722e-07
-8.19948e-07
1.69439e-07
-8.55178e-07
1.62726e-07
-8.88471e-07
1.54531e-07
-9.19521e-07
1.44822e-07
-9.48022e-07
1.33585e-07
-9.73675e-07
1.20828e-07
-9.96193e-07
1.06584e-07
-1.0153e-06
9.09074e-08
-1.03075e-06
7.38813e-08
-1.0423e-06
5.56131e-08
-1.04977e-06
3.62369e-08
-1.05297e-06
1.59119e-08
-1.05177e-06
-5.1781e-09
-1.04609e-06
-2.68268e-08
-1.03588e-06
-4.88069e-08
-1.02112e-06
-7.08734e-08
-1.00186e-06
-9.27664e-08
-9.78195e-07
-1.14215e-07
-9.50268e-07
-1.34942e-07
-9.18273e-07
-1.54666e-07
-8.82453e-07
-1.73111e-07
-8.43101e-07
-1.90007e-07
-8.0056e-07
-2.05099e-07
-7.55213e-07
-2.1815e-07
-7.07486e-07
-2.28948e-07
-6.57843e-07
-2.3731e-07
-6.06774e-07
-2.43089e-07
-5.54797e-07
-2.46177e-07
-5.02444e-07
-2.4651e-07
-4.50257e-07
-2.4407e-07
-3.98778e-07
-2.38885e-07
-3.48538e-07
-2.31035e-07
-3.00053e-07
-2.20649e-07
-2.5381e-07
-2.07901e-07
-2.10256e-07
-1.93015e-07
-1.69798e-07
-1.76254e-07
-1.32782e-07
-1.5792e-07
-9.94985e-08
-1.3835e-07
-7.01643e-08
-1.1791e-07
-4.4924e-08
-9.69886e-08
-2.38424e-08
-7.59979e-08
-6.90118e-09
-5.53652e-08
6.00396e-09
-3.55333e-08
1.50647e-08
-1.69584e-08
2.05613e-08
-1.10188e-10
2.28628e-08
1.45277e-08
2.24274e-08
2.6456e-08
1.98029e-08
3.51598e-08
1.56295e-08
4.01078e-08
1.06456e-08
4.07532e-08
5.69928e-09
3.6538e-08
1.76827e-09
2.68947e-08
1.12139e-08
-1.97805e-09
3.40042e-09
-7.85214e-09
1.5109e-08
-1.75137e-08
2.986e-08
-3.08134e-08
4.63037e-08
-4.75709e-08
6.34695e-08
-6.75841e-08
8.06387e-08
-9.06382e-08
9.73061e-08
-1.16514e-07
1.13142e-07
-1.44994e-07
1.27954e-07
-1.75867e-07
1.41651e-07
-2.08932e-07
1.54214e-07
-2.43999e-07
1.65669e-07
-2.80887e-07
1.76068e-07
-3.19422e-07
1.85472e-07
-3.59438e-07
1.93934e-07
-4.00769e-07
2.01497e-07
-4.43248e-07
2.08183e-07
-4.86702e-07
2.13991e-07
-5.30951e-07
2.18898e-07
-5.75801e-07
2.22857e-07
-6.21044e-07
2.25804e-07
-6.66456e-07
2.27656e-07
-7.11798e-07
2.2832e-07
-7.5681e-07
2.27693e-07
-8.01218e-07
2.25672e-07
-8.44733e-07
2.22152e-07
-8.87049e-07
2.17039e-07
-9.27854e-07
2.10244e-07
-9.66823e-07
2.01695e-07
-1.00363e-06
1.91338e-07
-1.03795e-06
1.79139e-07
-1.06945e-06
1.65089e-07
-1.09783e-06
1.49202e-07
-1.12277e-06
1.31524e-07
-1.14398e-06
1.12126e-07
-1.16122e-06
9.11119e-08
-1.17422e-06
6.86149e-08
-1.18278e-06
4.47983e-08
-1.18672e-06
1.9855e-08
-1.18591e-06
-5.99391e-09
-1.18023e-06
-3.25015e-08
-1.16964e-06
-5.93965e-08
-1.15413e-06
-8.63873e-08
-1.13373e-06
-1.13165e-07
-1.10853e-06
-1.39409e-07
-1.07869e-06
-1.64788e-07
-1.04438e-06
-1.8897e-07
-1.00587e-06
-2.11625e-07
-9.63447e-07
-2.32431e-07
-9.17464e-07
-2.51083e-07
-8.68318e-07
-2.67296e-07
-8.16454e-07
-2.80812e-07
-7.62353e-07
-2.9141e-07
-7.06534e-07
-2.98907e-07
-6.49544e-07
-3.03168e-07
-5.91949e-07
-3.04106e-07
-5.34329e-07
-3.01689e-07
-4.77269e-07
-2.95945e-07
-4.21347e-07
-2.86958e-07
-3.67125e-07
-2.74871e-07
-3.15139e-07
-2.59887e-07
-2.6589e-07
-2.42264e-07
-2.19831e-07
-2.22313e-07
-1.77361e-07
-2.0039e-07
-1.38813e-07
-1.76898e-07
-1.04449e-07
-1.52274e-07
-7.44512e-08
-1.26986e-07
-4.89188e-08
-1.0153e-07
-2.78615e-08
-7.64226e-08
-1.11973e-08
-5.21975e-08
1.24901e-09
-2.94047e-08
9.74752e-09
-8.60871e-09
1.46632e-08
9.61198e-09
1.6456e-08
2.46632e-08
1.56817e-08
3.59341e-08
1.29939e-08
4.27956e-08
9.14901e-09
4.45981e-08
5.0149e-09
4.06721e-08
1.58443e-09
3.03251e-08
1.27983e-08
-2.48994e-09
5.89034e-09
-9.71015e-09
2.23292e-08
-2.13887e-08
4.15386e-08
-3.72393e-08
6.21543e-08
-5.69692e-08
8.31993e-08
-8.02861e-08
1.03956e-07
-1.06905e-07
1.23925e-07
-1.36552e-07
1.4279e-07
-1.68971e-07
1.60372e-07
-2.0392e-07
1.766e-07
-2.41176e-07
1.9147e-07
-2.80532e-07
2.05025e-07
-3.21794e-07
2.1733e-07
-3.64777e-07
2.28456e-07
-4.09306e-07
2.38462e-07
-4.55202e-07
2.47394e-07
-5.02288e-07
2.55269e-07
-5.50377e-07
2.6208e-07
-5.99274e-07
2.67795e-07
-6.48769e-07
2.72352e-07
-6.98635e-07
2.75671e-07
-7.48631e-07
2.77652e-07
-7.98495e-07
2.78184e-07
-8.47948e-07
2.77146e-07
-8.96695e-07
2.74418e-07
-9.44424e-07
2.69881e-07
-9.9081e-07
2.63425e-07
-1.03552e-06
2.54953e-07
-1.07821e-06
2.44385e-07
-1.11854e-06
2.31664e-07
-1.15615e-06
2.16756e-07
-1.19072e-06
1.99657e-07
-1.22191e-06
1.8039e-07
-1.2494e-06
1.59013e-07
-1.27289e-06
1.35617e-07
-1.2921e-06
1.10325e-07
-1.30679e-06
8.32983e-08
-1.31672e-06
5.47289e-08
-1.32171e-06
2.4844e-08
-1.3216e-06
-6.09809e-09
-1.31629e-06
-3.78095e-08
-1.30572e-06
-6.99748e-08
-1.28985e-06
-1.02256e-07
-1.26872e-06
-1.34294e-07
-1.24241e-06
-1.65716e-07
-1.21106e-06
-1.96139e-07
-1.17485e-06
-2.25176e-07
-1.13404e-06
-2.52442e-07
-1.08891e-06
-2.7756e-07
-1.03982e-06
-3.00171e-07
-9.87179e-07
-3.19937e-07
-9.31437e-07
-3.36554e-07
-8.73094e-07
-3.49753e-07
-8.1269e-07
-3.59311e-07
-7.50798e-07
-3.6506e-07
-6.88017e-07
-3.66887e-07
-6.24964e-07
-3.64742e-07
-5.62268e-07
-3.58642e-07
-5.00551e-07
-3.48674e-07
-4.40428e-07
-3.34994e-07
-3.82488e-07
-3.17828e-07
-3.27285e-07
-2.97468e-07
-2.75327e-07
-2.7427e-07
-2.27067e-07
-2.4865e-07
-1.82891e-07
-2.21074e-07
-1.4311e-07
-1.92055e-07
-1.07952e-07
-1.62145e-07
-7.75537e-08
-1.31928e-07
-5.19614e-08
-1.02015e-07
-3.11214e-08
-7.30375e-08
-1.48805e-08
-4.56456e-08
-2.98478e-09
-2.05045e-08
4.92115e-09
1.70604e-09
9.2938e-09
2.02906e-08
1.06911e-08
3.45368e-08
9.77379e-09
4.37129e-08
7.30828e-09
4.70636e-08
4.17198e-09
4.38083e-08
1.36049e-09
3.31366e-08
1.41588e-08
-3.00768e-09
8.898e-09
-1.15947e-08
3.09162e-08
-2.5325e-08
5.5269e-08
-4.37724e-08
8.06017e-08
-6.65273e-08
1.05954e-07
-9.32031e-08
1.30631e-07
-1.2344e-07
1.54162e-07
-1.56908e-07
1.76257e-07
-1.93304e-07
1.96769e-07
-2.32358e-07
2.15653e-07
-2.73821e-07
2.32933e-07
-3.17469e-07
2.48673e-07
-3.63096e-07
2.62957e-07
-4.10506e-07
2.75866e-07
-4.59512e-07
2.87469e-07
-5.09929e-07
2.9781e-07
-5.61567e-07
3.06907e-07
-6.14229e-07
3.14742e-07
-6.67705e-07
3.21271e-07
-7.21773e-07
3.26419e-07
-7.7619e-07
3.30088e-07
-8.30698e-07
3.32159e-07
-8.85017e-07
3.32503e-07
-9.38852e-07
3.30981e-07
-9.91887e-07
3.27454e-07
-1.04379e-06
3.21789e-07
-1.09423e-06
3.13863e-07
-1.14285e-06
3.03569e-07
-1.18928e-06
2.90822e-07
-1.23318e-06
2.75561e-07
-1.27418e-06
2.57754e-07
-1.31192e-06
2.37402e-07
-1.34607e-06
2.14539e-07
-1.37629e-06
1.89234e-07
-1.40228e-06
1.61598e-07
-1.42372e-06
1.31775e-07
-1.44038e-06
9.99513e-08
-1.452e-06
6.63495e-08
-1.45838e-06
3.12294e-08
-1.45937e-06
-5.11341e-09
-1.45483e-06
-4.23513e-08
-1.44468e-06
-8.01251e-08
-1.42888e-06
-1.1805e-07
-1.40746e-06
-1.55718e-07
-1.38047e-06
-1.92704e-07
-1.34804e-06
-2.28571e-07
-1.31034e-06
-2.62876e-07
-1.2676e-06
-2.95175e-07
-1.22013e-06
-3.25036e-07
-1.16826e-06
-3.52041e-07
-1.1124e-06
-3.75795e-07
-1.05301e-06
-3.9594e-07
-9.9061e-07
-4.12156e-07
-9.25746e-07
-4.24176e-07
-8.59018e-07
-4.31788e-07
-7.91059e-07
-4.34847e-07
-7.22521e-07
-4.33279e-07
-6.54076e-07
-4.27087e-07
-5.86398e-07
-4.16352e-07
-5.20152e-07
-4.01239e-07
-4.55986e-07
-3.81994e-07
-3.94513e-07
-3.5894e-07
-3.36304e-07
-3.3248e-07
-2.8187e-07
-3.03084e-07
-2.31658e-07
-2.71286e-07
-1.86034e-07
-2.37679e-07
-1.45277e-07
-2.02901e-07
-1.09575e-07
-1.67631e-07
-7.90116e-08
-1.32578e-07
-5.35697e-08
-9.84794e-08
-3.31243e-08
-6.60911e-08
-1.74427e-08
-3.61861e-08
-6.18421e-09
-9.55248e-09
1.09947e-09
1.30069e-08
4.96373e-09
3.06726e-08
6.07108e-09
4.26056e-08
5.19209e-09
4.79426e-08
3.20703e-09
4.57934e-08
1.10747e-09
3.52362e-08
1.52663e-08
-3.52827e-09
1.24263e-08
-1.34921e-08
4.088e-08
-2.92911e-08
7.10681e-08
-5.03574e-08
1.01668e-07
-7.61626e-08
1.31759e-07
-1.06223e-07
1.60692e-07
-1.40101e-07
1.8804e-07
-1.77407e-07
2.13562e-07
-2.17793e-07
2.37155e-07
-2.60953e-07
2.58813e-07
-3.06617e-07
2.78596e-07
-3.54541e-07
2.96597e-07
-4.04505e-07
3.12921e-07
-4.56305e-07
3.27666e-07
-5.09745e-07
3.40908e-07
-5.64629e-07
3.52695e-07
-6.2076e-07
3.63038e-07
-6.77931e-07
3.71913e-07
-7.35921e-07
3.79262e-07
-7.94495e-07
3.84994e-07
-8.53399e-07
3.88992e-07
-9.12358e-07
3.91119e-07
-9.71081e-07
3.91225e-07
-1.02925e-06
3.89154e-07
-1.08655e-06
3.8475e-07
-1.14263e-06
3.77864e-07
-1.19712e-06
3.6836e-07
-1.24968e-06
3.56124e-07
-1.29992e-06
3.41064e-07
-1.34748e-06
3.23117e-07
-1.39197e-06
3.02253e-07
-1.43305e-06
2.78478e-07
-1.47035e-06
2.51836e-07
-1.50352e-06
2.22411e-07
-1.53226e-06
1.90328e-07
-1.55623e-06
1.55755e-07
-1.57518e-06
1.18901e-07
-1.58885e-06
8.0018e-08
-1.59702e-06
3.93973e-08
-1.5995e-06
-2.63002e-09
-1.59616e-06
-4.56978e-08
-1.58688e-06
-8.94043e-08
-1.57161e-06
-1.33319e-07
-1.55034e-06
-1.76985e-07
-1.52312e-06
-2.19925e-07
-1.49005e-06
-2.61647e-07
-1.45127e-06
-3.01651e-07
-1.40701e-06
-3.39433e-07
-1.35755e-06
-3.745e-07
-1.30322e-06
-4.06372e-07
-1.24442e-06
-4.34595e-07
-1.18161e-06
-4.58747e-07
-1.11531e-06
-4.78454e-07
-1.0461e-06
-4.93392e-07
-9.7458e-07
-5.03304e-07
-9.01423e-07
-5.08004e-07
-8.27318e-07
-5.07384e-07
-7.52981e-07
-5.01424e-07
-6.79135e-07
-4.90198e-07
-6.06506e-07
-4.73869e-07
-5.35802e-07
-4.52698e-07
-4.67702e-07
-4.27039e-07
-4.02846e-07
-3.97336e-07
-3.41813e-07
-3.64116e-07
-2.85117e-07
-3.27983e-07
-2.33187e-07
-2.89609e-07
-1.86365e-07
-2.49723e-07
-1.44892e-07
-2.09104e-07
-1.08902e-07
-1.68568e-07
-7.84183e-08
-1.28963e-07
-5.33511e-08
-9.11583e-08
-3.34943e-08
-5.60429e-08
-1.85269e-08
-2.45199e-08
-8.01326e-09
2.49319e-09
-1.40456e-09
2.40639e-08
1.95958e-09
3.92414e-08
2.84989e-09
4.70523e-08
2.14583e-09
4.64975e-08
8.32924e-10
3.65491e-08
1.60992e-08
-4.04886e-09
1.64752e-08
-1.53899e-08
5.2221e-08
-3.32586e-08
8.89368e-08
-5.69449e-08
1.25354e-07
-8.58005e-08
1.60615e-07
-1.19243e-07
1.94134e-07
-1.56757e-07
2.25554e-07
-1.9789e-07
2.54695e-07
-2.42249e-07
2.81514e-07
-2.89493e-07
3.06058e-07
-3.39327e-07
3.28429e-07
-3.91488e-07
3.48759e-07
-4.45745e-07
3.67178e-07
-5.01883e-07
3.83804e-07
-5.59697e-07
3.98722e-07
-6.18986e-07
4.11983e-07
-6.79543e-07
4.23595e-07
-7.41154e-07
4.33524e-07
-8.0359e-07
4.41698e-07
-8.66605e-07
4.48008e-07
-9.29933e-07
4.5232e-07
-9.93291e-07
4.54476e-07
-1.05637e-06
4.54307e-07
-1.11886e-06
4.51637e-07
-1.1804e-06
4.46293e-07
-1.24065e-06
4.38112e-07
-1.29923e-06
4.26947e-07
-1.35578e-06
4.12673e-07
-1.40991e-06
3.95194e-07
-1.46124e-06
3.74446e-07
-1.50939e-06
3.50399e-07
-1.55398e-06
3.23066e-07
-1.59464e-06
2.92498e-07
-1.63102e-06
2.58794e-07
-1.66279e-06
2.22094e-07
-1.68962e-06
1.82585e-07
-1.71122e-06
1.405e-07
-1.72732e-06
9.61165e-08
-1.73767e-06
4.97558e-08
-1.74209e-06
1.78259e-09
-1.74038e-06
-4.74006e-08
-1.73244e-06
-9.7351e-08
-1.71816e-06
-1.47594e-07
-1.69752e-06
-1.97625e-07
-1.67053e-06
-2.46915e-07
-1.63726e-06
-2.94916e-07
-1.59785e-06
-3.41069e-07
-1.55247e-06
-3.8481e-07
-1.50139e-06
-4.2558e-07
-1.44493e-06
-4.62834e-07
-1.38347e-06
-4.96051e-07
-1.31748e-06
-5.24743e-07
-1.24746e-06
-5.4847e-07
-1.174e-06
-5.66849e-07
-1.09774e-06
-5.79563e-07
-1.01937e-06
-5.86378e-07
-9.39609e-07
-5.87144e-07
-8.59223e-07
-5.8181e-07
-7.7899e-07
-5.7043e-07
-6.99697e-07
-5.53162e-07
-6.22119e-07
-5.30276e-07
-5.4701e-07
-5.02149e-07
-4.75083e-07
-4.69264e-07
-4.06994e-07
-4.32204e-07
-3.43334e-07
-3.91643e-07
-2.84607e-07
-3.48336e-07
-2.31223e-07
-3.03107e-07
-1.83487e-07
-2.5684e-07
-1.41592e-07
-2.10464e-07
-1.05609e-07
-1.64946e-07
-7.54904e-08
-1.21277e-07
-5.10626e-08
-8.04706e-08
-3.20292e-08
-4.35533e-08
-1.79714e-08
-1.15646e-08
-8.35065e-09
1.44431e-08
-2.51158e-09
3.34024e-08
3.14473e-10
4.42262e-08
1.00544e-09
4.58065e-08
5.41775e-10
3.70128e-08
1.6641e-08
-4.56644e-09
2.10416e-08
-1.72759e-08
6.49304e-08
-3.72003e-08
1.08861e-07
-6.34877e-08
1.51642e-07
-9.53702e-08
1.92497e-07
-1.32167e-07
2.30931e-07
-1.73284e-07
2.6667e-07
-2.18206e-07
2.99618e-07
-2.66495e-07
3.29803e-07
-3.17774e-07
3.57337e-07
-3.71722e-07
3.82377e-07
-4.28061e-07
4.05098e-07
-4.86545e-07
4.25662e-07
-5.4695e-07
4.44209e-07
-6.09065e-07
4.60837e-07
-6.72682e-07
4.756e-07
-7.37588e-07
4.88501e-07
-8.03563e-07
4.99499e-07
-8.70369e-07
5.08504e-07
-9.37755e-07
5.15393e-07
-1.00544e-06
5.2001e-07
-1.07315e-06
5.22179e-07
-1.14055e-06
5.21708e-07
-1.20731e-06
5.18404e-07
-1.2731e-06
5.12077e-07
-1.33754e-06
5.02549e-07
-1.40025e-06
4.89662e-07
-1.46086e-06
4.73283e-07
-1.51897e-06
4.53309e-07
-1.5742e-06
4.29674e-07
-1.62616e-06
4.02352e-07
-1.67445e-06
3.71359e-07
-1.7187e-06
3.36755e-07
-1.75856e-06
2.98648e-07
-1.79366e-06
2.57194e-07
-1.82367e-06
2.12597e-07
-1.84828e-06
1.6511e-07
-1.8672e-06
1.15036e-07
-1.88017e-06
6.27217e-08
-1.88695e-06
8.56283e-09
-1.88734e-06
-4.70029e-08
-1.8812e-06
-1.03495e-07
-1.8684e-06
-1.60397e-07
-1.84886e-06
-2.17158e-07
-1.82258e-06
-2.73196e-07
-1.78959e-06
-3.2791e-07
-1.74998e-06
-3.8068e-07
-1.70391e-06
-4.30879e-07
-1.65161e-06
-4.77881e-07
-1.59337e-06
-5.21069e-07
-1.52957e-06
-5.59852e-07
-1.46065e-06
-5.93668e-07
-1.38711e-06
-6.22004e-07
-1.30956e-06
-6.44406e-07
-1.22863e-06
-6.60493e-07
-1.14504e-06
-6.69967e-07
-1.05955e-06
-6.7263e-07
-9.72975e-07
-6.68386e-07
-8.86145e-07
-6.57261e-07
-7.99909e-07
-6.39397e-07
-7.1512e-07
-6.15065e-07
-6.32608e-07
-5.84661e-07
-5.5317e-07
-5.48702e-07
-4.77551e-07
-5.07823e-07
-4.06427e-07
-4.62768e-07
-3.40385e-07
-4.14377e-07
-2.79918e-07
-3.63574e-07
-2.25404e-07
-3.11354e-07
-1.77101e-07
-2.58766e-07
-1.35142e-07
-2.06905e-07
-9.95262e-08
-1.56893e-07
-7.01198e-08
-1.09877e-07
-4.66564e-08
-6.70167e-08
-2.87384e-08
-2.94827e-08
-1.58406e-08
1.54529e-09
-7.31477e-09
2.48765e-08
-2.39495e-09
3.93064e-08
-2.0424e-10
4.36158e-08
2.36816e-10
3.65717e-08
1.68778e-08
-5.07775e-09
2.61193e-08
-1.91374e-08
7.89901e-08
-4.10887e-08
1.30813e-07
-6.99393e-08
1.80492e-07
-1.04803e-07
2.27361e-07
-1.44901e-07
2.71029e-07
-1.89561e-07
3.1133e-07
-2.38208e-07
3.48265e-07
-2.90356e-07
3.81951e-07
-3.45595e-07
4.12576e-07
-4.03578e-07
4.40361e-07
-4.64012e-07
4.65531e-07
-5.26636e-07
4.88287e-07
-5.9122e-07
5.08793e-07
-6.57544e-07
5.27162e-07
-7.25397e-07
5.43453e-07
-7.94561e-07
5.57665e-07
-8.6481e-07
5.69747e-07
-9.35903e-07
5.79597e-07
-1.00758e-06
5.8707e-07
-1.07956e-06
5.91993e-07
-1.15155e-06
5.94167e-07
-1.22323e-06
5.93383e-07
-1.29425e-06
5.89427e-07
-1.36427e-06
5.82093e-07
-1.4329e-06
5.71189e-07
-1.49979e-06
5.56544e-07
-1.56452e-06
5.38018e-07
-1.62672e-06
5.15503e-07
-1.68597e-06
4.88929e-07
-1.74189e-06
4.58272e-07
-1.79408e-06
4.2355e-07
-1.84216e-06
3.84831e-07
-1.88574e-06
3.42232e-07
-1.92447e-06
2.9592e-07
-1.95799e-06
2.46115e-07
-1.98596e-06
1.93088e-07
-2.00809e-06
1.3716e-07
-2.02407e-06
7.8705e-08
-2.03365e-06
1.81445e-08
-2.03661e-06
-4.40519e-08
-2.03273e-06
-1.07369e-07
-2.02188e-06
-1.71249e-07
-2.00394e-06
-2.35097e-07
-1.97886e-06
-2.98282e-07
-1.94662e-06
-3.60147e-07
-1.90729e-06
-4.20013e-07
-1.86098e-06
-4.77187e-07
-1.80788e-06
-5.30974e-07
-1.74827e-06
-5.80683e-07
-1.68248e-06
-6.25643e-07
-1.61093e-06
-6.65215e-07
-1.53413e-06
-6.98804e-07
-1.45266e-06
-7.25876e-07
-1.36718e-06
-7.45973e-07
-1.27842e-06
-7.58725e-07