/*--------------------------------*- C++ -*----------------------------------*\
  =========                 |
  \\      /  F ield         | OpenFOAM: The Open Source CFD Toolbox
   \\    /   O peration     | Website:  https://openfoam.org
    \\  /    A nd           | Version:  7
     \\/     M anipulation  |
\*---------------------------------------------------------------------------*/
FoamFile
{
    version     2.0;
    format      ascii;
    class       surfaceScalarField;
    location    "2.2";
    object      phi;
}
// * * * * * * * * * * * * * * * * * * * * * * * * * * * * * * * * * * * * * //

dimensions      [0 3 -1 0 0 0 0];

internalField   nonuniform List<scalar> 
12640
(
3.19014e-10
-3.15504e-10
9.49673e-10
-6.30713e-10
1.54254e-09
-5.92811e-10
1.89098e-09
-3.48479e-10
1.89956e-09
-8.62797e-12
1.5358e-09
3.63738e-10
8.01574e-10
7.34273e-10
-2.81442e-10
1.08308e-09
-1.68373e-09
1.40228e-09
-3.37312e-09
1.68934e-09
-5.31831e-09
1.94517e-09
-7.49093e-09
2.17262e-09
-9.86629e-09
2.37537e-09
-1.24236e-08
2.55729e-09
-1.51455e-08
2.72191e-09
-1.80177e-08
2.87221e-09
-2.1028e-08
3.01036e-09
-2.41657e-08
3.13769e-09
-2.74205e-08
3.25475e-09
-3.07818e-08
3.3613e-09
-3.42381e-08
3.45636e-09
-3.77765e-08
3.53835e-09
-4.13817e-08
3.6052e-09
-4.50361e-08
3.65444e-09
-4.87194e-08
3.68333e-09
-5.24084e-08
3.68899e-09
-5.60769e-08
3.66846e-09
-5.96957e-08
3.61884e-09
-6.32331e-08
3.53735e-09
-6.66546e-08
3.42151e-09
-6.99237e-08
3.26911e-09
-7.30021e-08
3.07841e-09
-7.58503e-08
2.84815e-09
-7.8428e-08
2.5777e-09
-8.06951e-08
2.26709e-09
-8.26122e-08
1.91711e-09
-8.41415e-08
1.52934e-09
-8.52478e-08
1.10624e-09
-8.58989e-08
6.51135e-10
-8.60672e-08
1.68289e-10
-8.57299e-08
-3.37258e-10
-8.48705e-08
-8.5943e-10
-8.3479e-08
-1.3915e-09
-8.1553e-08
-1.92599e-09
-7.90982e-08
-2.45487e-09
-7.61285e-08
-2.96969e-09
-7.26668e-08
-3.46173e-09
-6.87445e-08
-3.92224e-09
-6.44019e-08
-4.34265e-09
-5.96871e-08
-4.71478e-09
-5.4656e-08
-5.03107e-09
-4.93712e-08
-5.28485e-09
-4.39007e-08
-5.47052e-09
-3.8317e-08
-5.58373e-09
-3.26954e-08
-5.62157e-09
-2.71127e-08
-5.58269e-09
-2.16454e-08
-5.46733e-09
-1.6368e-08
-5.27739e-09
-1.13516e-08
-5.01637e-09
-6.66234e-09
-4.68928e-09
-2.35985e-09
-4.3025e-09
1.50379e-09
-3.86364e-09
4.88509e-09
-3.3813e-09
7.74989e-09
-2.8648e-09
1.0074e-08
-2.3241e-09
1.18435e-08
-1.76946e-09
1.30548e-08
-1.21139e-09
1.37153e-08
-6.60482e-10
1.38429e-08
-1.27542e-10
1.34665e-08
3.76341e-10
1.26271e-08
8.39395e-10
1.13785e-08
1.24861e-09
9.78967e-09
1.58885e-09
7.94807e-09
1.8416e-09
5.96484e-09
1.98323e-09
3.98137e-09
1.98346e-09
2.17632e-09
1.80505e-09
7.71673e-10
1.40465e-09
2.05297e-11
7.51131e-10
2.05153e-11
6.39729e-10
-9.55283e-10
1.59227e-09
-1.58322e-09
2.28604e-09
-1.28657e-09
2.36357e-09
-4.25933e-10
1.62017e-09
7.34775e-10
-3.62228e-11
2.0201e-09
-2.62032e-09
3.31836e-09
-6.10322e-09
4.56599e-09
-1.04284e-08
5.72748e-09
-1.55276e-08
6.78853e-09
-2.13298e-08
7.74738e-09
-2.77669e-08
8.60969e-09
-3.47765e-08
9.38496e-09
-4.23033e-08
1.0084e-08
-5.02986e-08
1.07173e-08
-5.872e-08
1.12936e-08
-6.75292e-08
1.18195e-08
-7.66905e-08
1.2299e-08
-8.6169e-08
1.27332e-08
-9.59287e-08
1.3121e-08
-1.05931e-07
1.34585e-08
-1.16132e-07
1.37399e-08
-1.26485e-07
1.39579e-08
-1.36934e-07
1.41036e-08
-1.47418e-07
1.41674e-08
-1.57868e-07
1.41392e-08
-1.68209e-07
1.40087e-08
-1.78356e-07
1.3766e-08
-1.8822e-07
1.34018e-08
-1.97707e-07
1.29079e-08
-2.06715e-07
1.22771e-08
-2.15141e-07
1.15044e-08
-2.22879e-07
1.05862e-08
-2.29822e-07
9.52142e-09
-2.35867e-07
8.31153e-09
-2.4091e-07
6.96059e-09
-2.44857e-07
5.47561e-09
-2.47617e-07
3.86662e-09
-2.49113e-07
2.14679e-09
-2.49277e-07
3.32436e-10
-2.48057e-07
-1.55744e-09
-2.45416e-07
-3.50048e-09
-2.41335e-07
-5.47202e-09
-2.35816e-07
-7.4451e-09
-2.2888e-07
-9.39095e-09
-2.2057e-07
-1.12795e-08
-2.10952e-07
-1.30801e-08
-2.00112e-07
-1.47621e-08
-1.88159e-07
-1.62954e-08
-1.75222e-07
-1.76518e-08
-1.61448e-07
-1.88049e-08
-1.47001e-07
-1.97319e-08
-1.32058e-07
-2.04133e-08
-1.16808e-07
-2.08341e-08
-1.01445e-07
-2.09844e-08
-8.61686e-08
-2.08592e-08
-7.11764e-08
-2.04595e-08
-5.66623e-08
-1.97915e-08
-4.28114e-08
-1.88673e-08
-2.97965e-08
-1.77041e-08
-1.7775e-08
-1.6324e-08
-6.8853e-09
-1.47534e-08
2.75587e-09
-1.30225e-08
1.10554e-08
-1.11643e-08
1.79457e-08
-9.21443e-09
2.33862e-08
-7.20988e-09
2.73638e-08
-5.18904e-09
2.98945e-08
-3.19121e-09
3.10237e-08
-1.25672e-09
3.08274e-08
5.72657e-10
2.94139e-08
2.25288e-09
2.69266e-08
3.73591e-09
2.35476e-08
4.96789e-09
1.95026e-08
5.88651e-09
1.50675e-08
6.41836e-09
1.05728e-08
6.47819e-09
6.40422e-09
5.9736e-09
2.98916e-09
4.81972e-09
7.48074e-10
2.99224e-09
7.68582e-10
6.087e-10
-1.56392e-09
1.3e-09
-2.27461e-09
1.4152e-09
-1.40185e-09
5.43746e-10
4.45527e-10
-1.55917e-09
2.83775e-09
-5.01151e-09
5.47252e-09
-9.84074e-09
8.14758e-09
-1.60124e-08
1.07376e-08
-2.34561e-08
1.31712e-08
-3.20821e-08
1.54145e-08
-4.17933e-08
1.74587e-08
-5.24938e-08
1.93101e-08
-6.40927e-08
2.09838e-08
-7.65066e-08
2.2498e-08
-8.96602e-08
2.38709e-08
-1.03484e-07
2.51179e-08
-1.17916e-07
2.62506e-08
-1.32892e-07
2.72756e-08
-1.48353e-07
2.81941e-08
-1.64235e-07
2.90025e-08
-1.80468e-07
2.96924e-08
-1.9698e-07
3.02515e-08
-2.13686e-07
3.0664e-08
-2.30495e-07
3.0912e-08
-2.47303e-07
3.09755e-08
-2.63997e-07
3.08339e-08
-2.80456e-07
3.04668e-08
-2.96544e-07
2.98543e-08
-3.1212e-07
2.89781e-08
-3.27035e-07
2.78225e-08
-3.41132e-07
2.63743e-08
-3.54252e-07
2.46244e-08
-3.66233e-07
2.25676e-08
-3.76916e-07
2.02035e-08
-3.86141e-07
1.75373e-08
-3.9376e-07
1.45795e-08
-3.99631e-07
1.13466e-08
-4.03626e-07
7.86164e-09
-4.05633e-07
4.15355e-09
-4.05559e-07
2.57911e-10
-4.03331e-07
-3.78488e-09
-3.98904e-07
-7.92724e-09
-3.92259e-07
-1.21176e-08
-3.83404e-07
-1.63e-08
-3.7238e-07
-2.04149e-08
-3.59259e-07
-2.44007e-08
-3.44144e-07
-2.81947e-08
-3.27172e-07
-3.17345e-08
-3.08508e-07
-3.49595e-08
-2.88347e-07
-3.78121e-08
-2.66913e-07
-4.02397e-08
-2.44449e-07
-4.21957e-08
-2.21221e-07
-4.36411e-08
-1.97509e-07
-4.45457e-08
-1.73605e-07
-4.48891e-08
-1.49803e-07
-4.46614e-08
-1.26398e-07
-4.38638e-08
-1.03681e-07
-4.25089e-08
-8.19278e-08
-4.06203e-08
-6.13996e-08
-3.82324e-08
-4.2334e-08
-3.53896e-08
-2.4942e-08
-3.21454e-08
-9.40335e-09
-2.85611e-08
4.13674e-09
-2.47044e-08
1.55709e-08
-2.06485e-08
2.48316e-08
-1.64706e-08
3.18934e-08
-1.22508e-08
3.67744e-08
-8.07223e-09
3.95378e-08
-4.02016e-09
4.02938e-08
-1.83359e-10
3.92012e-08
3.34546e-09
3.64709e-08
6.46628e-09
3.23686e-08
9.07015e-09
2.72195e-08
1.10356e-08
2.14114e-08
1.22265e-08
1.53956e-08
1.2494e-08
9.68288e-09
1.16863e-08
4.82794e-09
9.67465e-09
1.40232e-09
6.41787e-09
2.1709e-09
3.55705e-10
-1.91961e-09
3.80482e-10
-2.29935e-09
-5.70628e-10
-4.50808e-10
-2.90166e-09
2.77652e-09
-6.8529e-09
6.78905e-09
-1.25385e-08
1.11582e-08
-1.99802e-08
1.55892e-08
-2.91352e-08
1.98926e-08
-3.99206e-08
2.39565e-08
-5.22302e-08
2.77241e-08
-6.59482e-08
3.11767e-08
-8.09578e-08
3.43197e-08
-9.71462e-08
3.71722e-08
-1.14407e-07
3.97593e-08
-1.32643e-07
4.21065e-08
-1.51761e-07
4.42355e-08
-1.71672e-07
4.61621e-08
-1.92291e-07
4.78943e-08
-2.13529e-07
4.94324e-08
-2.35295e-07
5.07685e-08
-2.57491e-07
5.18878e-08
-2.80008e-07
5.27688e-08
-3.02729e-07
5.33854e-08
-3.25525e-07
5.37075e-08
-3.48252e-07
5.37026e-08
-3.70755e-07
5.33373e-08
-3.92867e-07
5.25787e-08
-4.14408e-07
5.13952e-08
-4.35189e-07
4.97586e-08
-4.55011e-07
4.76446e-08
-4.73671e-07
4.50342e-08
-4.90961e-07
4.19145e-08
-5.06673e-07
3.82801e-08
-5.20604e-07
3.41336e-08
-5.32553e-07
2.94863e-08
-5.42332e-07
2.4359e-08
-5.49768e-07
1.87822e-08
-5.54702e-07
1.27964e-08
-5.57001e-07
6.45212e-09
-5.56554e-07
-1.89491e-10
-5.53278e-07
-7.06034e-09
-5.47125e-07
-1.40803e-08
-5.38079e-07
-2.11638e-08
-5.26161e-07
-2.82182e-08
-5.11429e-07
-3.5146e-08
-4.93984e-07
-4.18462e-08
-4.73962e-07
-4.82168e-08
-4.5154e-07
-5.41564e-08
-4.26933e-07
-5.95669e-08
-4.00389e-07
-6.43554e-08
-3.72192e-07
-6.84368e-08
-3.42652e-07
-7.17358e-08
-3.12104e-07
-7.41895e-08
-2.80901e-07
-7.57487e-08
-2.4941e-07
-7.638e-08
-2.18004e-07
-7.60668e-08
-1.87058e-07
-7.48102e-08
-1.56937e-07
-7.26296e-08
-1.27996e-07
-6.95621e-08
-1.00565e-07
-6.56626e-08
-7.49528e-08
-6.10021e-08
-5.14314e-08
-5.56668e-08
-3.02364e-08
-4.97561e-08
-1.15603e-08
-4.33806e-08
4.45149e-09
-3.66603e-08
1.77038e-08
-2.97229e-08
2.81548e-08
-2.27018e-08
3.5818e-08
-1.57355e-08
4.07649e-08
-8.9671e-09
4.31265e-08
-2.54497e-09
4.30959e-08
3.37612e-09
4.09298e-08
8.6323e-09
3.6952e-08
1.30479e-08
3.15548e-08
1.64328e-08
2.52005e-08
1.85808e-08
1.8421e-08
1.92735e-08
1.18141e-08
1.82932e-08
6.03853e-09
1.54502e-08
1.81574e-09
1.06407e-08
3.98664e-09
-2.49775e-11
-1.89465e-09
-9.49577e-10
-1.37471e-09
-3.33191e-09
1.93154e-09
-7.52097e-09
6.9656e-09
-1.37171e-08
1.29851e-08
-2.2006e-08
1.94471e-08
-3.23879e-08
2.59711e-08
-4.48027e-08
3.23075e-08
-5.91514e-08
3.83052e-08
-7.53123e-08
4.3885e-08
-9.31534e-08
4.90178e-08
-1.12541e-07
5.37072e-08
-1.33344e-07
5.79757e-08
-1.55439e-07
6.18543e-08
-1.78707e-07
6.53745e-08
-2.03035e-07
6.85632e-08
-2.28312e-07
7.14389e-08
-2.54427e-07
7.40098e-08
-2.81268e-07
7.62728e-08
-3.08713e-07
7.82143e-08
-3.36636e-07
7.98104e-08
-3.64896e-07
8.10289e-08
-3.93341e-07
8.18306e-08
-4.21805e-07
8.21714e-08
-4.50107e-07
8.20044e-08
-4.78051e-07
8.12816e-08
-5.05429e-07
7.99564e-08
-5.32019e-07
7.79848e-08
-5.57588e-07
7.53281e-08
-5.81897e-07
7.19537e-08
-6.047e-07
6.78372e-08
-6.2575e-07
6.2964e-08
-6.44799e-07
5.73299e-08
-6.61609e-07
5.09429e-08
-6.75946e-07
4.3824e-08
-6.87595e-07
3.60076e-08
-6.96355e-07
2.75423e-08
-7.0205e-07
1.84908e-08
-7.04528e-07
8.93023e-09
-7.03669e-07
-1.04847e-09
-6.99387e-07
-1.13422e-08
-6.91633e-07
-2.18346e-08
-6.80397e-07
-3.23997e-08
-6.65712e-07
-4.29026e-08
-6.47656e-07
-5.3202e-08
-6.2635e-07
-6.31522e-08
-6.01961e-07
-7.26064e-08
-5.74698e-07
-8.14192e-08
-5.44815e-07
-8.94498e-08
-5.12605e-07
-9.65653e-08
-4.78398e-07
-1.02644e-07
-4.42557e-07
-1.07577e-07
-4.05471e-07
-1.11275e-07
-3.67553e-07
-1.13666e-07
-3.29231e-07
-1.14702e-07
-2.90941e-07
-1.14357e-07
-2.5312e-07
-1.12631e-07
-2.16199e-07
-1.09551e-07
-1.80594e-07
-1.05167e-07
-1.46701e-07
-9.95557e-08
-1.14885e-07
-9.28185e-08
-8.54739e-08
-8.50777e-08
-5.87544e-08
-7.64756e-08
-3.49634e-08
-6.71716e-08
-1.4284e-08
-5.73397e-08
3.15903e-09
-4.7166e-08
1.73032e-08
-3.6846e-08
2.8151e-08
-2.65832e-08
3.57728e-08
-1.65889e-08
4.03088e-08
-7.08099e-09
4.19712e-08
1.71373e-09
4.10456e-08
9.55791e-09
3.78926e-08
1.62009e-08
3.29487e-08
2.13767e-08
2.67266e-08
2.48029e-08
1.98149e-08
2.61853e-08
1.2879e-08
2.52291e-08
6.66597e-09
2.16632e-08
2.02586e-09
1.52808e-08
6.0125e-09
-4.78525e-10
-1.41617e-09
-2.54859e-09
6.95387e-10
-6.63177e-09
6.01482e-09
-1.2986e-08
1.33199e-08
-2.17447e-08
2.17438e-08
-3.29442e-08
3.06465e-08
-4.65482e-08
3.9575e-08
-6.24691e-08
4.82285e-08
-8.05865e-08
5.64226e-08
-1.00761e-07
6.40591e-08
-1.22843e-07
7.11006e-08
-1.46686e-07
7.75496e-08
-1.72142e-07
8.3432e-08
-1.99071e-07
8.87837e-08
-2.27338e-07
9.36416e-08
-2.56811e-07
9.80358e-08
-2.87358e-07
1.01986e-07
-3.18846e-07
1.05498e-07
-3.51138e-07
1.08564e-07
-3.84086e-07
1.11162e-07
-4.17533e-07
1.13258e-07
-4.51309e-07
1.14805e-07
-4.85228e-07
1.1575e-07
-5.1909e-07
1.16033e-07
-5.52676e-07
1.15591e-07
-5.85755e-07
1.14361e-07
-6.1808e-07
1.12281e-07
-6.49392e-07
1.09296e-07
-6.79419e-07
1.05356e-07
-7.07887e-07
1.00421e-07
-7.34513e-07
9.44632e-08
-7.59016e-07
8.74671e-08
-7.81119e-07
7.94329e-08
-8.00552e-07
7.03764e-08
-8.1706e-07
6.03314e-08
-8.30401e-07
4.93493e-08
-8.4036e-07
3.75006e-08
-8.46743e-07
2.48741e-08
-8.4939e-07
1.15774e-08
-8.48174e-07
-2.26418e-09
-8.43008e-07
-1.6509e-08
-8.33843e-07
-3.09996e-08
-8.20677e-07
-4.55657e-08
-8.03553e-07
-6.00261e-08
-7.82564e-07
-7.41915e-08
-7.57848e-07
-8.78678e-08
-7.29595e-07
-1.00859e-07
-6.98041e-07
-1.12973e-07
-6.6347e-07
-1.24021e-07
-6.26208e-07
-1.33827e-07
-5.86622e-07
-1.4223e-07
-5.45116e-07
-1.49084e-07
-5.02123e-07
-1.54268e-07
-4.58102e-07
-1.57687e-07
-4.13531e-07
-1.59273e-07
-3.68897e-07
-1.58991e-07
-3.24691e-07
-1.56837e-07
-2.81399e-07
-1.52842e-07
-2.39493e-07
-1.47073e-07
-1.99422e-07
-1.39627e-07
-1.61606e-07
-1.30635e-07
-1.26423e-07
-1.2026e-07
-9.42085e-08
-1.0869e-07
-6.52433e-08
-9.61367e-08
-3.97491e-08
-8.2834e-08
-1.78828e-08
-6.90323e-08
2.67616e-10
-5.49964e-08
1.46873e-08
-4.10029e-08
2.54369e-08
-2.73385e-08
3.26556e-08
-1.42997e-08
3.65626e-08
-2.19321e-09
3.7458e-08
8.66246e-09
3.57242e-08
1.79348e-08
3.18256e-08
2.52753e-08
2.63092e-08
3.03193e-08
1.98054e-08
3.2689e-08
1.30328e-08
3.20017e-08
6.80927e-09
2.78867e-08
2.08042e-09
2.00096e-08
8.09292e-09
-9.7893e-10
-4.37238e-10
-4.32671e-09
4.04319e-09
-1.03069e-08
1.1995e-08
-1.90602e-08
2.20732e-08
-3.06316e-08
3.33151e-08
-4.49905e-08
4.50054e-08
-6.20509e-08
5.66354e-08
-8.16881e-08
6.78657e-08
-1.03754e-07
7.8488e-08
-1.28086e-07
8.83914e-08
-1.5452e-07
9.75343e-08
-1.8289e-07
1.05921e-07
-2.13038e-07
1.1358e-07
-2.44808e-07
1.20554e-07
-2.78049e-07
1.26883e-07
-3.12613e-07
1.32599e-07
-3.48348e-07
1.37721e-07
-3.85101e-07
1.42252e-07
-4.22712e-07
1.46175e-07
-4.61008e-07
1.49458e-07
-4.99804e-07
1.52054e-07
-5.389e-07
1.53901e-07
-5.78081e-07
1.5493e-07
-6.17111e-07
1.55063e-07
-6.55742e-07
1.54222e-07
-6.93706e-07
1.52325e-07
-7.30723e-07
1.49298e-07
-7.66499e-07
1.45072e-07
-8.00733e-07
1.39589e-07
-8.33115e-07
1.32803e-07
-8.63334e-07
1.24683e-07
-8.91083e-07
1.15215e-07
-9.16057e-07
1.04407e-07
-9.37964e-07
9.22842e-08
-9.56529e-07
7.88964e-08
-9.71495e-07
6.43153e-08
-9.82631e-07
4.86359e-08
-9.89733e-07
3.19766e-08
-9.92634e-07
1.44785e-08
-9.91203e-07
-3.69562e-09
-9.85349e-07
-2.23628e-08
-9.75027e-07
-4.13213e-08
-9.60239e-07
-6.03537e-08
-9.41036e-07
-7.92299e-08
-9.17517e-07
-9.77097e-08
-8.89838e-07
-1.15548e-07
-8.58201e-07
-1.32496e-07
-8.22862e-07
-1.48312e-07
-7.84125e-07
-1.62757e-07
-7.42343e-07
-1.7561e-07
-6.97909e-07
-1.86663e-07
-6.51258e-07
-1.95734e-07
-6.02859e-07
-2.02667e-07
-5.53209e-07
-2.07338e-07
-5.02824e-07
-2.09658e-07
-4.52238e-07
-2.09578e-07
-4.01986e-07
-2.07088e-07
-3.52604e-07
-2.02224e-07
-3.04614e-07
-1.95063e-07
-2.58514e-07
-1.85726e-07
-2.14776e-07
-1.74374e-07
-1.73829e-07
-1.61208e-07
-1.36054e-07
-1.46464e-07
-1.01779e-07
-1.30412e-07
-7.12647e-08
-1.13348e-07
-4.47049e-08
-9.55921e-08
-2.22176e-08
-7.74837e-08
-3.84178e-09
-5.93787e-08
1.04665e-08
-4.16468e-08
2.08363e-08
-2.46695e-08
2.74838e-08
-8.84068e-09
3.07129e-08
5.43329e-09
3.09162e-08
1.77315e-08
2.85745e-08
2.7617e-08
2.42577e-08
3.46361e-08
1.86269e-08
3.83198e-08
1.24408e-08
3.81878e-08
6.5691e-09
3.37584e-08
2.01945e-09
2.45593e-08
1.01124e-08
-1.50847e-09
1.07128e-09
-6.22623e-09
8.76091e-09
-1.42454e-08
2.00141e-08
-2.5573e-08
3.34009e-08
-4.01495e-08
4.78916e-08
-5.78638e-08
6.27197e-08
-7.85684e-08
7.73401e-08
-1.02093e-07
9.13902e-08
-1.28254e-07
1.04649e-07
-1.56866e-07
1.17003e-07
-1.87743e-07
1.28411e-07
-2.20704e-07
1.38882e-07
-2.55576e-07
1.48452e-07
-2.92189e-07
1.57167e-07
-3.3038e-07
1.65073e-07
-3.69984e-07
1.72202e-07
-4.10833e-07
1.7857e-07
-4.52755e-07
1.84174e-07
-4.95567e-07
1.88987e-07
-5.39074e-07
1.92965e-07
-5.83065e-07
1.96045e-07
-6.27314e-07
1.9815e-07
-6.71575e-07
1.99191e-07
-7.15585e-07
1.99073e-07
-7.59063e-07
1.977e-07
-8.01714e-07
1.94975e-07
-8.43224e-07
1.90809e-07
-8.83274e-07
1.85122e-07
-9.21531e-07
1.77847e-07
-9.57661e-07
1.68933e-07
-9.91328e-07
1.5835e-07
-1.0222e-06
1.46088e-07
-1.04996e-06
1.32162e-07
-1.07428e-06
1.16612e-07
-1.09489e-06
9.95043e-08
-1.11151e-06
8.09338e-08
-1.1239e-06
6.10227e-08
-1.13184e-06
3.99208e-08
-1.13517e-06
1.78049e-08
-1.13374e-06
-5.12274e-09
-1.12747e-06
-2.86361e-08
-1.1163e-06
-5.24872e-08
-1.10025e-06
-7.64101e-08
-1.07935e-06
-1.00123e-07
-1.05373e-06
-1.23335e-07
-1.02353e-06
-1.45745e-07
-9.88971e-07
-1.67054e-07
-9.50319e-07
-1.86963e-07
-9.07891e-07
-2.05185e-07
-8.62055e-07
-2.21446e-07
-8.13226e-07
-2.35493e-07
-7.6186e-07
-2.471e-07
-7.08453e-07
-2.56074e-07
-6.53532e-07
-2.62259e-07
-5.9765e-07
-2.6554e-07
-5.41377e-07
-2.6585e-07
-4.85292e-07
-2.63173e-07
-4.29975e-07
-2.57542e-07
-3.75993e-07
-2.49045e-07
-3.23898e-07
-2.37821e-07
-2.74209e-07
-2.24063e-07
-2.27406e-07
-2.0801e-07
-1.83921e-07
-1.89949e-07
-1.44127e-07
-1.70206e-07
-1.08331e-07
-1.49144e-07
-7.67673e-08
-1.27156e-07
-4.95888e-08
-1.04662e-07
-2.68649e-08
-8.21026e-08
-8.57573e-09
-5.9936e-08
5.39025e-09
-3.86355e-08
1.52379e-08
-1.86883e-08
2.12663e-08
-5.95177e-10
2.38695e-08
1.51283e-08
2.35361e-08
2.79504e-08
2.08502e-08
3.73221e-08
1.64938e-08
4.26761e-08
1.12538e-08
4.34279e-08
6.03354e-09
3.89787e-08
1.87465e-09
2.87181e-08
1.1987e-08
-2.05771e-09
3.12901e-09
-8.20903e-09
1.49122e-08
-1.83684e-08
3.01734e-08
-3.23984e-08
4.74309e-08
-5.01234e-08
6.56166e-08
-7.1341e-08
8.39373e-08
-9.58334e-08
1.01832e-07
-1.23377e-07
1.18934e-07
-1.53748e-07
1.35021e-07
-1.86732e-07
1.49987e-07
-2.2212e-07
1.63799e-07
-2.59716e-07
1.76477e-07
-2.99331e-07
1.88066e-07
-3.40783e-07
1.98619e-07
-3.83894e-07
2.08185e-07
-4.28487e-07
2.16795e-07
-4.74378e-07
2.24462e-07
-5.21378e-07
2.31173e-07
-5.69284e-07
2.36893e-07
-6.17879e-07
2.41561e-07
-6.66931e-07
2.45097e-07
-7.16187e-07
2.47406e-07
-7.65376e-07
2.4838e-07
-8.14209e-07
2.47906e-07
-8.62378e-07
2.45869e-07
-9.0956e-07
2.42157e-07
-9.55418e-07
2.36668e-07
-9.99606e-07
2.29309e-07
-1.04177e-06
2.20009e-07
-1.08155e-06
2.08714e-07
-1.11859e-06
1.95394e-07
-1.15255e-06
1.80044e-07
-1.18308e-06
1.62692e-07
-1.20986e-06
1.4339e-07
-1.23258e-06
1.22227e-07
-1.25097e-06
9.93196e-08
-1.26476e-06
7.48199e-08
-1.27375e-06
4.89102e-08
-1.27775e-06
2.1804e-08
-1.27662e-06
-6.25592e-09
-1.27025e-06
-3.49998e-08
-1.25861e-06
-6.41328e-08
-1.24168e-06
-9.33394e-08
-1.21952e-06
-1.22287e-07
-1.19222e-06
-1.50628e-07
-1.15996e-06
-1.78011e-07
-1.12293e-06
-2.04078e-07
-1.08142e-06
-2.28478e-07
-1.03574e-06
-2.50866e-07
-9.86267e-07
-2.70916e-07
-9.33434e-07
-2.88327e-07
-8.7771e-07
-3.02824e-07
-8.19612e-07
-3.14172e-07
-7.59693e-07
-3.22178e-07
-6.98535e-07
-3.26698e-07
-6.36743e-07
-3.27643e-07
-5.74935e-07
-3.24981e-07
-5.13733e-07
-3.18744e-07
-4.53754e-07
-3.09024e-07
-3.95597e-07
-2.95978e-07
-3.39834e-07
-2.79825e-07
-2.87e-07
-2.60845e-07
-2.37577e-07
-2.39372e-07
-1.91991e-07
-2.15792e-07
-1.50598e-07
-1.90537e-07
-1.13678e-07
-1.64076e-07
-8.14258e-08
-1.36914e-07
-5.39473e-08
-1.09581e-07
-3.12532e-08
-8.26301e-08
-1.32567e-08
-5.6632e-08
2.28767e-10
-3.21738e-08
9.4906e-09
-9.85701e-09
1.49171e-08
9.70181e-09
1.69976e-08
2.58699e-08
1.63232e-08
3.79965e-08
1.35887e-08
4.54106e-08
9.59816e-09
4.74184e-08
5.27359e-09
4.33033e-08
1.66969e-09
3.2322e-08
1.36567e-08
-2.62026e-09
5.74924e-09
-1.02484e-08
2.25403e-08
-2.26178e-08
4.25428e-08
-3.94396e-08
6.42528e-08
-6.04142e-08
8.65911e-08
-8.52399e-08
1.08763e-07
-1.13622e-07
1.30214e-07
-1.45276e-07
1.50588e-07
-1.79937e-07
1.69682e-07
-2.17354e-07
1.87404e-07
-2.57297e-07
2.03742e-07
-2.9955e-07
2.1873e-07
-3.43909e-07
2.32425e-07
-3.9018e-07
2.44891e-07
-4.38174e-07
2.56178e-07
-4.87699e-07
2.6632e-07
-5.38559e-07
2.75322e-07
-5.90548e-07
2.83162e-07
-6.43446e-07
2.89791e-07
-6.97018e-07
2.95132e-07
-7.51009e-07
2.99088e-07
-8.05145e-07
3.01542e-07
-8.59134e-07
3.02368e-07
-9.12661e-07
3.01434e-07
-9.65398e-07
2.98606e-07
-1.017e-06
2.93757e-07
-1.0671e-06
2.86772e-07
-1.11535e-06
2.77552e-07
-1.16135e-06
2.66016e-07
-1.20475e-06
2.5211e-07
-1.24516e-06
2.35807e-07
-1.28223e-06
2.17112e-07
-1.3156e-06
1.9606e-07
-1.34493e-06
1.72723e-07
-1.36991e-06
1.47209e-07
-1.39025e-06
1.1966e-07
-1.40569e-06
9.02578e-08
-1.416e-06
5.92167e-08
-1.42098e-06
2.67875e-08
-1.42049e-06
-6.74676e-09
-1.41442e-06
-4.10728e-08
-1.4027e-06
-7.5849e-08
-1.38533e-06
-1.1071e-07
-1.36234e-06
-1.45272e-07
-1.33384e-06
-1.79134e-07
-1.29996e-06
-2.11887e-07
-1.26092e-06
-2.43118e-07
-1.21698e-06
-2.72417e-07
-1.16847e-06
-2.99384e-07
-1.11575e-06
-3.23635e-07
-1.05926e-06
-3.44815e-07
-9.99486e-07
-3.62597e-07
-9.36957e-07
-3.767e-07
-8.72247e-07
-3.86888e-07
-8.05964e-07
-3.92981e-07
-7.38744e-07
-3.94862e-07
-6.71244e-07
-3.92481e-07
-6.0413e-07
-3.85858e-07
-5.38066e-07
-3.75088e-07
-4.73704e-07
-3.6034e-07
-4.1167e-07
-3.41859e-07
-3.52556e-07
-3.1996e-07
-2.96903e-07
-2.95025e-07
-2.45192e-07
-2.67502e-07
-1.97837e-07
-2.37892e-07
-1.55168e-07
-2.06745e-07
-1.1743e-07
-1.74652e-07
-8.47708e-08
-1.42241e-07
-5.72388e-08
-1.10162e-07
-3.47787e-08
-7.90922e-08
-1.72285e-08
-4.97239e-08
-4.31921e-09
-2.27663e-08
4.32616e-09
1.05644e-09
9.1918e-09
2.10043e-08
1.08694e-08
3.63188e-08
1.00596e-08
4.62204e-08
7.57458e-09
4.99034e-08
4.34391e-09
4.65339e-08
1.42174e-09
3.52442e-08
1.50785e-08
-3.19137e-09
8.9406e-09
-1.23238e-08
3.16727e-08
-2.69475e-08
5.71666e-08
-4.66181e-08
8.39234e-08
-7.09063e-08
1.10879e-07
-9.94059e-08
1.37263e-07
-1.31739e-07
1.62548e-07
-1.6756e-07
1.86409e-07
-2.06554e-07
2.08675e-07
-2.48435e-07
2.29286e-07
-2.92947e-07
2.48254e-07
-3.39854e-07
2.65637e-07
-3.88939e-07
2.81511e-07
-4.39995e-07
2.95947e-07
-4.9282e-07
3.09004e-07
-5.47212e-07
3.20712e-07
-6.02962e-07
3.31072e-07
-6.59849e-07
3.4005e-07
-7.1764e-07
3.47582e-07
-7.76081e-07
3.53573e-07
-8.349e-07
3.57907e-07
-8.93805e-07
3.60447e-07
-9.52483e-07
3.61046e-07
-1.0106e-06
3.59552e-07
-1.06781e-06
3.55816e-07
-1.12375e-06
3.49694e-07
-1.17804e-06
3.41061e-07
-1.23029e-06
3.29808e-07
-1.28013e-06
3.15851e-07
-1.32715e-06
2.99136e-07
-1.37099e-06
2.7964e-07
-1.41125e-06
2.57375e-07
-1.44758e-06
2.32391e-07
-1.47963e-06
2.04775e-07
-1.50708e-06
1.74657e-07
-1.52962e-06
1.42204e-07
-1.54699e-06
1.07624e-07
-1.55894e-06
7.11672e-08
-1.56527e-06
3.31181e-08
-1.56582e-06
-6.20021e-09
-1.56046e-06
-4.64324e-08
-1.54912e-06
-8.71909e-08
-1.53176e-06
-1.28062e-07
-1.50843e-06
-1.6861e-07
-1.47918e-06
-2.0838e-07
-1.44416e-06
-2.46907e-07
-1.40356e-06
-2.8372e-07
-1.35763e-06
-3.18349e-07
-1.30668e-06
-3.50334e-07
-1.25108e-06
-3.79233e-07
-1.19126e-06
-4.0463e-07
-1.12772e-06
-4.26143e-07
-1.06098e-06
-4.43435e-07
-9.91649e-07
-4.56223e-07
-9.20346e-07
-4.64284e-07
-8.47742e-07
-4.67467e-07
-7.7453e-07
-4.65693e-07
-7.0142e-07
-4.58968e-07
-6.29126e-07
-4.47382e-07
-5.58356e-07
-4.31111e-07
-4.89795e-07
-4.1042e-07
-4.24096e-07
-3.85658e-07
-3.61866e-07
-3.57256e-07
-3.0365e-07
-3.25718e-07
-2.49923e-07
-2.91619e-07
-2.01076e-07
-2.55592e-07
-1.57408e-07
-2.1832e-07
-1.19119e-07
-1.8053e-07
-8.63016e-08
-1.42979e-07
-5.89389e-08
-1.06455e-07
-3.68999e-08
-7.17629e-08
-1.99394e-08
-3.97269e-08
-7.69755e-09
-1.11854e-08
2.99487e-10
1.30072e-08
4.63891e-09
3.19794e-08
6.02102e-09
4.48383e-08
5.25998e-09
5.06645e-08
3.28521e-09
4.85087e-08
1.14307e-09
3.73863e-08
1.62215e-08
-3.76706e-09
1.27077e-08
-1.44179e-08
4.23236e-08
-3.13187e-08
7.40674e-08
-5.38662e-08
1.06471e-07
-8.14988e-08
1.38512e-07
-1.13702e-07
1.69466e-07
-1.50013e-07
1.98859e-07
-1.90019e-07
2.26415e-07
-2.33354e-07
2.5201e-07
-2.79698e-07
2.75629e-07
-3.28764e-07
2.9732e-07
-3.80298e-07
3.17172e-07
-4.34068e-07
3.3528e-07
-4.89854e-07
3.51733e-07
-5.47444e-07
3.66594e-07
-6.06625e-07
3.79893e-07
-6.67177e-07
3.91623e-07
-7.28868e-07
4.01741e-07
-7.9145e-07
4.10164e-07
-8.54656e-07
4.16779e-07
-9.18198e-07
4.2145e-07
-9.8177e-07
4.24018e-07
-1.04504e-06
4.24317e-07
-1.10766e-06
4.22175e-07
-1.16927e-06
4.17426e-07
-1.22949e-06
4.09914e-07
-1.28793e-06
3.995e-07
-1.34419e-06
3.8607e-07
-1.39788e-06
3.69536e-07
-1.44859e-06
3.49846e-07
-1.49593e-06
3.26982e-07
-1.53952e-06
3.00963e-07
-1.57898e-06
2.71853e-07
-1.61396e-06
2.39756e-07
-1.64413e-06
2.04821e-07
-1.66916e-06
1.6724e-07
-1.68879e-06
1.27249e-07
-1.70275e-06
8.51276e-08
-1.71083e-06
4.11951e-08
-1.71284e-06
-4.1876e-09
-1.70864e-06
-5.06261e-08
-1.69815e-06
-9.76874e-08
-1.6813e-06
-1.44911e-07
-1.6581e-06
-1.9181e-07
-1.6286e-06
-2.37878e-07
-1.59292e-06
-2.82592e-07
-1.55121e-06
-3.25421e-07
-1.50373e-06
-3.65836e-07
-1.45075e-06
-4.03312e-07
-1.39264e-06
-4.37344e-07
-1.32982e-06
-4.67452e-07
-1.26277e-06
-4.93191e-07
-1.19204e-06
-5.14165e-07
-1.11823e-06
-5.30033e-07
-1.04199e-06
-5.40522e-07
-9.6402e-07
-5.45437e-07
-8.85047e-07
-5.44666e-07
-8.05825e-07
-5.3819e-07
-7.27122e-07
-5.26085e-07
-6.49704e-07
-5.08529e-07
-5.7432e-07
-4.85803e-07
-5.01694e-07
-4.58285e-07
-4.325e-07
-4.26449e-07
-3.67358e-07
-3.90861e-07
-3.06812e-07
-3.52165e-07
-2.51322e-07
-3.11082e-07
-2.01253e-07
-2.6839e-07
-1.56862e-07
-2.24921e-07
-1.18295e-07
-1.81546e-07
-8.55799e-08
-1.3917e-07
-5.86239e-08
-9.8719e-08
-3.72115e-08
-6.11392e-08
-2.10054e-08
-2.73915e-08
-9.5469e-09
1.54869e-09
-2.2579e-09
2.46904e-08
1.55733e-09
4.10231e-08
2.71052e-09
4.95113e-08
2.12663e-09
4.90926e-08
8.42187e-10
3.86708e-08
1.70637e-08
-4.34353e-09
1.70512e-08
-1.6515e-08
5.4495e-08
-3.56954e-08
9.32478e-08
-6.11223e-08
1.31898e-07
-9.20997e-08
1.69489e-07
-1.28004e-07
2.0537e-07
-1.68284e-07
2.39139e-07
-2.12458e-07
2.70589e-07
-2.60111e-07
2.99663e-07
-3.10882e-07
3.264e-07
-3.64459e-07
3.50897e-07
-4.20566e-07
3.73279e-07
-4.78955e-07
3.9367e-07
-5.39396e-07
4.12174e-07
-6.01667e-07
4.28864e-07
-6.65545e-07
4.4377e-07
-7.308e-07
4.56878e-07
-7.9719e-07
4.68131e-07
-8.64457e-07
4.7743e-07
-9.32321e-07
4.84644e-07
-1.00048e-06
4.89613e-07
-1.06862e-06
4.92159e-07
-1.1364e-06
4.92094e-07
-1.20346e-06
4.89229e-07
-1.26941e-06
4.8338e-07
-1.33387e-06
4.74379e-07
-1.39645e-06
4.62077e-07
-1.45674e-06
4.46354e-07
-1.51432e-06
4.27121e-07
-1.5688e-06
4.04324e-07
-1.61977e-06
3.77951e-07
-1.66684e-06
3.48033e-07
-1.70963e-06
3.14643e-07
-1.74778e-06
2.77903e-07
-1.78094e-06
2.3798e-07
-1.80878e-06
1.95087e-07
-1.83102e-06
1.49487e-07
-1.84738e-06
1.01487e-07
-1.85762e-06
5.14387e-08
-1.86155e-06
-2.6066e-10
-1.85899e-06
-5.31846e-08
-1.84983e-06
-1.06852e-07
-1.83398e-06
-1.60759e-07
-1.81142e-06
-2.14372e-07
-1.78217e-06
-2.67128e-07
-1.74631e-06
-3.1845e-07
-1.70398e-06
-3.67748e-07
-1.65539e-06
-4.14428e-07
-1.6008e-06
-4.579e-07
-1.54056e-06
-4.9759e-07
-1.47506e-06
-5.32948e-07
-1.40479e-06
-5.63463e-07
-1.33029e-06
-5.88668e-07
-1.25216e-06
-6.0816e-07
-1.17108e-06
-6.21606e-07
-1.08776e-06
-6.28755e-07
-1.00297e-06
-6.29452e-07
-9.17517e-07
-6.23644e-07
-8.32214e-07
-6.11387e-07
-7.47893e-07
-5.92851e-07
-6.65373e-07
-5.68323e-07
-5.8545e-07
-5.38207e-07
-5.08882e-07
-5.03018e-07
-4.36365e-07
-4.63377e-07
-3.68527e-07
-4.20004e-07
-3.05904e-07
-3.73704e-07
-2.48935e-07
-3.25359e-07
-1.97947e-07
-2.75909e-07
-1.53146e-07
-2.26347e-07
-1.14615e-07
-1.77701e-07
-8.23043e-08
-1.31029e-07
-5.60363e-08
-8.74072e-08
-3.55008e-08
-4.7927e-08
-2.02591e-08
-1.3693e-08
-9.74609e-09
1.41774e-08
-3.27407e-09
3.4551e-08
-3.66762e-11
4.62739e-08
8.87681e-10
4.81682e-08
5.2471e-10
3.90337e-08
1.75884e-08
-4.91684e-09
2.1968e-08
-1.85992e-08
6.81774e-08
-4.00435e-08
1.14692e-07
-6.83277e-08
1.60182e-07
-1.02622e-07
2.03783e-07
-1.42192e-07
2.4494e-07
-1.86398e-07
2.83346e-07
-2.34693e-07
3.18884e-07
-2.86606e-07
3.51577e-07
-3.4174e-07
3.81533e-07
-3.99753e-07
4.0891e-07
-4.60351e-07
4.33876e-07
-5.2327e-07
4.56589e-07
-5.88269e-07
4.77173e-07
-6.55117e-07
4.95712e-07
-7.23582e-07
5.12235e-07
-7.93427e-07
5.26723e-07
-8.64401e-07
5.39106e-07
-9.36238e-07
5.49267e-07
-1.00865e-06
5.57055e-07
-1.08133e-06
5.6229e-07
-1.15394e-06
5.64771e-07
-1.22614e-06
5.64291e-07
-1.29755e-06
5.60643e-07
-1.3678e-06
5.53627e-07
-1.43648e-06
5.43063e-07
-1.5032e-06
5.28792e-07
-1.56753e-06
5.1069e-07
-1.62908e-06
4.88664e-07
-1.68742e-06
4.62665e-07
-1.74215e-06
4.32683e-07
-1.79287e-06
3.98758e-07
-1.8392e-06
3.60974e-07
-1.88077e-06
3.19467e-07
-1.91721e-06
2.74422e-07
-1.94819e-06
2.26072e-07
-1.97341e-06
1.74701e-07
-1.99256e-06
1.20642e-07
-2.0054e-06
6.42759e-08
-2.01169e-06
6.02849e-09
-2.01124e-06
-5.36319e-08
-2.0039e-06
-1.14192e-07
-1.98956e-06
-1.75103e-07
-1.96815e-06
-2.35783e-07
-1.93965e-06
-2.9562e-07
-1.90412e-06
-3.5398e-07
-1.86166e-06
-4.10211e-07
-1.81243e-06
-4.63656e-07
-1.75668e-06
-5.13656e-07
-1.6947e-06
-5.59564e-07
-1.62689e-06
-6.00758e-07
-1.55371e-06
-6.36648e-07
-1.47568e-06
-6.66694e-07
-1.39342e-06
-6.90417e-07
-1.30762e-06
-7.07414e-07
-1.219e-06
-7.17372e-07
-1.12837e-06
-7.20078e-07
-1.03658e-06
-7.15435e-07
-9.44506e-07
-7.03465e-07
-8.53035e-07
-6.84322e-07
-7.63067e-07
-6.58292e-07
-6.75479e-07
-6.25795e-07
-5.91115e-07
-5.87382e-07
-5.10763e-07
-5.43729e-07
-4.3514e-07
-4.95627e-07
-3.64874e-07
-4.43971e-07
-3.00487e-07
-3.89746e-07
-2.42385e-07
-3.34011e-07
-1.90847e-07
-2.77884e-07
-1.46019e-07
-2.2253e-07
-1.07904e-07
-1.69144e-07
-7.63677e-08
-1.18943e-07
-5.11339e-08
-7.31608e-08
-3.17883e-08
-3.30387e-08
-1.77824e-08
1.71506e-10
-8.43864e-09
2.52072e-08
-2.95614e-09
4.07914e-08
-4.19373e-10
4.56315e-08
1.94007e-10
3.84204e-08
1.77824e-08
-5.48282e-09
2.74508e-08
-2.06548e-08
8.33494e-08
-4.43287e-08
1.38366e-07
-7.54247e-08
1.91278e-07
-1.1298e-07
2.41338e-07
-1.5615e-07
2.88111e-07
-2.04211e-07
3.31406e-07
-2.56544e-07
3.71217e-07
-3.12629e-07
4.07662e-07
-3.7203e-07
4.40934e-07
-4.34377e-07
4.71258e-07
-4.99356e-07
4.98855e-07
-5.6669e-07
5.23923e-07
-6.36126e-07
5.4661e-07
-7.07425e-07
5.67011e-07
-7.8035e-07
5.8516e-07
-8.54655e-07
6.01029e-07
-9.30085e-07
6.14536e-07
-1.00636e-06
6.25547e-07
-1.0832e-06
6.33891e-07
-1.16028e-06
6.39366e-07
-1.23726e-06
6.41751e-07
-1.31378e-06
6.4082e-07
-1.38949e-06
6.36346e-07
-1.46398e-06
6.28116e-07
-1.53685e-06
6.15937e-07
-1.6077e-06
5.99645e-07
-1.67612e-06
5.79106e-07
-1.74168e-06
5.5423e-07
-1.80398e-06
5.24965e-07
-1.86261e-06
4.91308e-07
-1.91716e-06
4.53305e-07
-1.96723e-06
4.11051e-07
-2.01246e-06
3.64693e-07
-2.05247e-06
3.14429e-07
-2.0869e-06
2.60511e-07
-2.11545e-06
2.03242e-07
-2.13778e-06
1.42976e-07
-2.15362e-06
8.01191e-08
-2.16272e-06
1.5125e-08
-2.16485e-06
-5.1505e-08
-2.15981e-06
-1.19224e-07
-2.14747e-06
-1.87443e-07
-2.12772e-06
-2.55534e-07
-2.10051e-06
-3.22838e-07
-2.06582e-06
-3.88664e-07
-2.02373e-06
-4.52301e-07
-1.97436e-06
-5.13026e-07
-1.91791e-06
-5.70108e-07
-1.85465e-06
-6.22826e-07
-1.78493e-06
-6.70477e-07
-1.70919e-06
-7.12388e-07
-1.62795e-06
-7.47937e-07
-1.5418e-06
-7.76559e-07
-1.45145e-06
-7.97772e-07
-1.35763e-06
-8.11186e-07
-1.26119e-06
-8.16519e-07
-1.16301e-06