/*--------------------------------*- C++ -*----------------------------------*\
  =========                 |
  \\      /  F ield         | OpenFOAM: The Open Source CFD Toolbox
   \\    /   O peration     | Website:  https://openfoam.org
    \\  /    A nd           | Version:  7
     \\/     M anipulation  |
\*---------------------------------------------------------------------------*/
FoamFile
{
    version     2.0;
    format      ascii;
    class       volVectorField;
    location    "2.3";
    object      U;
}
// * * * * * * * * * * * * * * * * * * * * * * * * * * * * * * * * * * * * * //

dimensions      [0 1 -1 0 0 0 0];

internalField   nonuniform List<vector> 
6400
(
(1.15753e-05 -1.13144e-05 0)
(4.99292e-05 -2.39146e-05 0)
(0.000102348 -2.43278e-05 0)
(0.000142932 -1.78083e-05 0)
(0.000158627 -8.39735e-06 0)
(0.000144933 1.75145e-06 0)
(0.000100996 1.16181e-05 0)
(2.79645e-05 2.06298e-05 0)
(-7.19547e-05 2.86533e-05 0)
(-0.000196219 3.56868e-05 0)
(-0.000342236 4.18091e-05 0)
(-0.000507591 4.71448e-05 0)
(-0.000690147 5.18316e-05 0)
(-0.000888082 5.60004e-05 0)
(-0.00109987 5.97673e-05 0)
(-0.00132427 6.32272e-05 0)
(-0.00156022 6.64497e-05 0)
(-0.00180681 6.94794e-05 0)
(-0.00206323 7.23365e-05 0)
(-0.00232864 7.50183e-05 0)
(-0.00260218 7.75021e-05 0)
(-0.00288287 7.9749e-05 0)
(-0.00316959 8.17055e-05 0)
(-0.00346103 8.33076e-05 0)
(-0.00375567 8.44831e-05 0)
(-0.00405177 8.51547e-05 0)
(-0.00434734 8.52424e-05 0)
(-0.00464015 8.46665e-05 0)
(-0.00492777 8.33501e-05 0)
(-0.00520753 8.12209e-05 0)
(-0.00547658 7.82136e-05 0)
(-0.0057319 7.42728e-05 0)
(-0.00597036 6.9355e-05 0)
(-0.00618875 6.34307e-05 0)
(-0.00638385 5.64874e-05 0)
(-0.00655243 4.85314e-05 0)
(-0.00669139 3.95889e-05 0)
(-0.00679779 2.97094e-05 0)
(-0.0068689 1.89666e-05 0)
(-0.00690232 7.45798e-06 0)
(-0.006896 -4.69567e-06 0)
(-0.00684836 -1.73475e-05 0)
(-0.00675832 -3.03288e-05 0)
(-0.00662536 -4.34506e-05 0)
(-0.00644963 -5.6506e-05 0)
(-0.00623189 -6.92748e-05 0)
(-0.00597361 -8.15287e-05 0)
(-0.005677 -9.30352e-05 0)
(-0.0053449 -0.000103565 0)
(-0.00498089 -0.000112899 0)
(-0.00458915 -0.000120832 0)
(-0.00417445 -0.000127185 0)
(-0.00374203 -0.000131804 0)
(-0.00329757 -0.000134572 0)
(-0.002847 -0.000135411 0)
(-0.00239647 -0.000134282 0)
(-0.00195214 -0.000131194 0)
(-0.00152009 -0.000126199 0)
(-0.0011062 -0.000119392 0)
(-0.000715985 -0.00011091 0)
(-0.00035451 -0.000100925 0)
(-2.6276e-05 -8.9641e-05 0)
(0.000264867 -7.72852e-05 0)
(0.000515796 -6.41009e-05 0)
(0.000724163 -5.03452e-05 0)
(0.000888434 -3.62788e-05 0)
(0.00100791 -2.21624e-05 0)
(0.00108273 -8.25508e-06 0)
(0.00111391 5.18471e-06 0)
(0.00110331 1.78932e-05 0)
(0.00105373 2.95909e-05 0)
(0.00096892 3.99581e-05 0)
(0.000853775 4.86028e-05 0)
(0.0007145 5.50047e-05 0)
(0.000558982 5.84336e-05 0)
(0.000397296 5.78538e-05 0)
(0.000242241 5.1853e-05 0)
(0.000109743 3.86006e-05 0)
(1.94737e-05 1.68106e-05 0)
(-6.18978e-06 -6.15772e-06 0)
(2.4432e-05 -4.98336e-05 0)
(9.04487e-05 -8.95702e-05 0)
(0.000163894 -8.13004e-05 0)
(0.000201075 -4.43044e-05 0)
(0.000177634 7.07625e-06 0)
(8.29562e-05 6.38724e-05 0)
(-8.66651e-05 0.000120784 0)
(-0.000330256 0.000174886 0)
(-0.000643906 0.000224734 0)
(-0.0010225 0.000269825 0)
(-0.00146032 0.000310211 0)
(-0.00195174 0.000346263 0)
(-0.00249147 0.000378499 0)
(-0.0030748 0.000407475 0)
(-0.00369759 0.000433711 0)
(-0.00435619 0.000457642 0)
(-0.0050474 0.000479594 0)
(-0.00576831 0.000499767 0)
(-0.0065161 0.000518238 0)
(-0.00728798 0.000534962 0)
(-0.00808097 0.000549787 0)
(-0.00889183 0.000562468 0)
(-0.0097169 0.000572684 0)
(-0.0105521 0.000580052 0)
(-0.0113927 0.00058415 0)
(-0.0122335 0.00058453 0)
(-0.0130688 0.000580737 0)
(-0.013892 0.000572325 0)
(-0.0146964 0.000558871 0)
(-0.0154743 0.000539992 0)
(-0.016218 0.000515358 0)
(-0.0169193 0.000484708 0)
(-0.0175697 0.00044786 0)
(-0.0181606 0.000404729 0)
(-0.0186836 0.000355334 0)
(-0.0191304 0.000299813 0)
(-0.0194928 0.000238427 0)
(-0.0197636 0.000171573 0)
(-0.0199359 9.97859e-05 0)
(-0.0200039 2.37376e-05 0)
(-0.0199626 -5.57686e-05 0)
(-0.0198086 -0.000137788 0)
(-0.0195395 -0.000221263 0)
(-0.0191547 -0.00030503 0)
(-0.0186549 -0.00038784 0)
(-0.0180428 -0.000468379 0)
(-0.0173228 -0.000545301 0)
(-0.0165009 -0.000617252 0)
(-0.015585 -0.000682909 0)
(-0.0145847 -0.000741009 0)
(-0.013511 -0.000790394 0)
(-0.0123765 -0.000830033 0)
(-0.0111949 -0.000859066 0)
(-0.00998095 -0.000876826 0)
(-0.00875002 -0.000882867 0)
(-0.00751802 -0.000876977 0)
(-0.00630092 -0.000859196 0)
(-0.00511451 -0.000829815 0)
(-0.00397403 -0.000789368 0)
(-0.00289392 -0.000738627 0)
(-0.00188747 -0.000678576 0)
(-0.000966597 -0.000610387 0)
(-0.000141566 -0.000535386 0)
(0.000579165 -0.000455024 0)
(0.00118913 -0.000370842 0)
(0.00168396 -0.000284444 0)
(0.00206151 -0.000197472 0)
(0.00232186 -0.000111597 0)
(0.00246746 -2.85207e-05 0)
(0.00250315 4.99965e-05 0)
(0.00243629 0.000122091 0)
(0.00227689 0.000185706 0)
(0.00203793 0.000238477 0)
(0.00173565 0.000277565 0)
(0.00139007 0.000299459 0)
(0.00102551 0.000299839 0)
(0.000670575 0.00027369 0)
(0.000357397 0.000215893 0)
(0.000124343 0.000124582 0)
(1.66156e-05 1.93593e-05 0)
(2.52741e-05 -0.0001035 0)
(8.2826e-05 -0.000163543 0)
(0.000124504 -0.00012411 0)
(0.00010171 -2.36969e-05 0)
(-1.33922e-05 0.000110145 0)
(-0.0002341 0.000258456 0)
(-0.000565474 0.000408856 0)
(-0.00100677 0.00055402 0)
(-0.00155338 0.000689798 0)
(-0.00219865 0.000814364 0)
(-0.00293491 0.000927359 0)
(-0.00375431 0.0010293 0)
(-0.00464931 0.00112118 0)
(-0.00561292 0.00120416 0)
(-0.00663878 0.00127938 0)
(-0.00772114 0.00134779 0)
(-0.00885473 0.00141014 0)
(-0.0100346 0.00146683 0)
(-0.0112558 0.00151799 0)
(-0.0125135 0.00156345 0)
(-0.0138023 0.00160276 0)
(-0.0151166 0.00163525 0)
(-0.0164501 0.00166003 0)
(-0.0177958 0.0016761 0)
(-0.0191458 0.00168233 0)
(-0.0204915 0.00167754 0)
(-0.0218234 0.00166057 0)
(-0.0231312 0.00163026 0)
(-0.0244039 0.00158555 0)
(-0.0256297 0.00152551 0)
(-0.0267963 0.00144935 0)
(-0.027891 0.00135647 0)
(-0.0289008 0.00124654 0)
(-0.029813 0.00111946 0)
(-0.0306145 0.000975422 0)
(-0.031293 0.000814962 0)
(-0.0318369 0.000638935 0)
(-0.0322351 0.000448552 0)
(-0.0324781 0.000245383 0)
(-0.0325575 3.13549e-05 0)
(-0.0324666 -0.000191265 0)
(-0.0322008 -0.000419872 0)
(-0.0317573 -0.000651574 0)
(-0.0311357 -0.000883226 0)
(-0.0303379 -0.00111148 0)
(-0.0293685 -0.00133284 0)
(-0.0282344 -0.00154376 0)
(-0.0269453 -0.00174069 0)
(-0.0255134 -0.00192016 0)
(-0.0239531 -0.00207889 0)
(-0.0222813 -0.00221388 0)
(-0.0205167 -0.00232246 0)
(-0.0186798 -0.00240241 0)
(-0.0167927 -0.00245199 0)
(-0.0148783 -0.00247006 0)
(-0.0129603 -0.00245604 0)
(-0.0110623 -0.00241005 0)
(-0.009208 -0.00233279 0)
(-0.00742018 -0.00222565 0)
(-0.00572048 -0.0020906 0)
(-0.00412899 -0.0019302 0)
(-0.00266376 -0.0017475 0)
(-0.00134056 -0.00154597 0)
(-0.000172446 -0.00132948 0)
(0.000830387 -0.00110212 0)
(0.00166089 -0.00086825 0)
(0.00231532 -0.000632341 0)
(0.00279333 -0.000399009 0)
(0.00309817 -0.000172997 0)
(0.00323673 4.07802e-05 0)
(0.00321977 0.000237133 0)
(0.00306202 0.000410459 0)
(0.00278253 0.000554529 0)
(0.00240489 0.000662252 0)
(0.00195765 0.000725475 0)
(0.00147457 0.000735011 0)
(0.00099396 0.000681277 0)
(0.00055731 0.000556038 0)
(0.000215963 0.000357579 0)
(3.83015e-05 0.00010924 0)
(1.88713e-05 -0.000145469 0)
(4.39361e-05 -0.000199751 0)
(1.6542e-05 -0.000100081 0)
(-0.00010775 9.47254e-05 0)
(-0.000355387 0.000343414 0)
(-0.000739625 0.000616543 0)
(-0.00126524 0.000894111 0)
(-0.00193091 0.00116351 0)
(-0.00273123 0.00141737 0)
(-0.00365834 0.0016521 0)
(-0.00470315 0.00186661 0)
(-0.00585621 0.00206139 0)
(-0.00710827 0.00223782 0)
(-0.00845052 0.00239765 0)
(-0.00987481 0.00254265 0)
(-0.0113735 0.00267432 0)
(-0.0129394 0.00279377 0)
(-0.0145656 0.0029016 0)
(-0.0162452 0.00299791 0)
(-0.0179709 0.00308228 0)
(-0.0197353 0.00315379 0)
(-0.0215301 0.00321116 0)
(-0.0233462 0.00325274 0)
(-0.0251739 0.00327664 0)
(-0.027002 0.00328081 0)
(-0.0288188 0.00326312 0)
(-0.0306112 0.00322146 0)
(-0.0323653 0.00315381 0)
(-0.0340662 0.00305831 0)
(-0.0356983 0.00293335 0)
(-0.0372456 0.00277765 0)
(-0.0386914 0.00259029 0)
(-0.0400189 0.00237084 0)
(-0.0412117 0.00211932 0)
(-0.0422534 0.00183634 0)
(-0.0431285 0.00152308 0)
(-0.0438223 0.00118134 0)
(-0.0443214 0.000813583 0)
(-0.0446141 0.000422882 0)
(-0.0446906 1.29625e-05 0)
(-0.0445429 -0.000411827 0)
(-0.0441658 -0.000846607 0)
(-0.0435567 -0.00128598 0)
(-0.0427158 -0.0017241 0)
(-0.0416461 -0.00215482 0)
(-0.0403541 -0.00257175 0)
(-0.0388493 -0.0029684 0)
(-0.0371442 -0.00333835 0)
(-0.0352545 -0.00367533 0)
(-0.033199 -0.00397344 0)
(-0.030999 -0.00422724 0)
(-0.0286784 -0.00443195 0)
(-0.0262631 -0.00458356 0)
(-0.0237808 -0.00467895 0)
(-0.0212606 -0.00471601 0)
(-0.0187322 -0.00469372 0)
(-0.0162256 -0.00461219 0)
(-0.0137708 -0.00447268 0)
(-0.0113966 -0.00427762 0)
(-0.00913074 -0.00403053 0)
(-0.0069989 -0.00373597 0)
(-0.00502443 -0.00339945 0)
(-0.0032278 -0.00302728 0)
(-0.00162626 -0.00262648 0)
(-0.000233418 -0.00220463 0)
(0.000941018 -0.00176975 0)
(0.0018915 -0.00133021 0)
(0.00261687 -0.00089467 0)
(0.00312047 -0.000472063 0)
(0.0034104 -7.16504e-05 0)
(0.00349958 0.000296856 0)
(0.003406 0.000623118 0)
(0.00315288 0.000895923 0)
(0.00276886 0.00110295 0)
(0.00228821 0.00123062 0)
(0.00175095 0.00126436 0)
(0.00120188 0.00118958 0)
(0.000689351 0.000993948 0)
(0.000275991 0.000672556 0)
(5.17534e-05 0.000241786 0)
(8.77512e-06 -0.000160762 0)
(-1.41236e-05 -0.000168696 0)
(-0.000137704 2.67312e-05 0)
(-0.000395188 0.000348405 0)
(-0.000807877 0.000742291 0)
(-0.00138681 0.00116914 0)
(-0.00213492 0.00160166 0)
(-0.00304937 0.0020221 0)
(-0.00412344 0.00241983 0)
(-0.00534801 0.00278934 0)
(-0.00671273 0.00312868 0)
(-0.00820685 0.00343821 0)
(-0.00981971 0.00371959 0)
(-0.0115411 0.00397508 0)
(-0.0133612 0.00420699 0)
(-0.0152709 0.00441728 0)
(-0.0172612 0.00460735 0)
(-0.0193233 0.00477788 0)
(-0.0214483 0.00492879 0)
(-0.0236269 0.00505926 0)
(-0.0258492 0.00516777 0)
(-0.0281045 0.00525221 0)
(-0.0303811 0.00530999 0)
(-0.0326662 0.00533819 0)
(-0.0349459 0.00533364 0)
(-0.0372051 0.00529311 0)
(-0.0394276 0.00521341 0)
(-0.041596 0.00509156 0)
(-0.0436921 0.00492484 0)
(-0.0456969 0.00471097 0)
(-0.0475909 0.0044482 0)
(-0.0493542 0.00413538 0)
(-0.050967 0.00377211 0)
(-0.0524096 0.00335874 0)
(-0.053663 0.00289651 0)
(-0.0547092 0.00238757 0)
(-0.0555314 0.001835 0)
(-0.0561144 0.00124287 0)
(-0.0564449 0.00061621 0)
(-0.0565121 -3.90177e-05 0)
(-0.0563075 -0.000715932 0)
(-0.0558258 -0.00140686 0)
(-0.0550645 -0.00210338 0)
(-0.0540245 -0.00279648 0)
(-0.0527103 -0.00347666 0)
(-0.0511297 -0.00413415 0)
(-0.0492944 -0.00475905 0)
(-0.0472195 -0.00534156 0)
(-0.0449235 -0.00587219 0)
(-0.0424286 -0.00634197 0)
(-0.0397596 -0.00674268 0)
(-0.0369445 -0.00706705 0)
(-0.0340135 -0.00730899 0)
(-0.0309989 -0.00746374 0)
(-0.0279346 -0.00752805 0)
(-0.0248552 -0.0075003 0)
(-0.0217959 -0.00738054 0)
(-0.0187918 -0.00717061 0)
(-0.0158768 -0.00687406 0)
(-0.0130837 -0.00649614 0)
(-0.0104431 -0.00604369 0)
(-0.00798287 -0.00552502 0)
(-0.00572784 -0.00494974 0)
(-0.00369907 -0.00432858 0)
(-0.00191348 -0.00367321 0)
(-0.000383498 -0.00299604 0)
(0.00088331 -0.00231011 0)
(0.00188447 -0.00162896 0)
(0.00262287 -0.000966604 0)
(0.00310689 -0.000337546 0)
(0.00335063 0.000243106 0)
(0.00337399 0.000759446 0)
(0.00320285 0.00119454 0)
(0.00286912 0.00153025 0)
(0.00241088 0.00174713 0)
(0.00187241 0.00182478 0)
(0.00130328 0.0017429 0)
(0.000757569 0.00148341 0)
(0.000307249 0.00103445 0)
(5.84447e-05 0.000398585 0)
(-3.26609e-06 -0.000141909 0)
(-8.40675e-05 -5.21938e-05 0)
(-0.000323127 0.0002808 0)
(-0.000737745 0.000764983 0)
(-0.00134109 0.00133527 0)
(-0.00214016 0.00194384 0)
(-0.00313468 0.00255695 0)
(-0.00431928 0.00315231 0)
(-0.00568531 0.00371629 0)
(-0.00722212 0.00424166 0)
(-0.00891803 0.00472569 0)
(-0.010761 0.00516857 0)
(-0.0127393 0.00557222 0)
(-0.0148413 0.00593932 0)
(-0.017056 0.00627263 0)
(-0.0193727 0.00657444 0)
(-0.0217809 0.00684631 0)
(-0.0242702 0.00708885 0)
(-0.0268296 0.00730165 0)
(-0.0294479 0.0074833 0)
(-0.0321128 0.0076315 0)
(-0.0348113 0.00774317 0)
(-0.0375291 0.00781461 0)
(-0.0402507 0.00784167 0)
(-0.0429594 0.00781997 0)
(-0.045637 0.00774507 0)
(-0.0482644 0.00761264 0)
(-0.0508211 0.00741868 0)
(-0.0532859 0.00715963 0)
(-0.0556367 0.00683258 0)
(-0.0578513 0.0064354 0)
(-0.0599068 0.00596684 0)
(-0.0617809 0.0054267 0)
(-0.0634514 0.0048159 0)
(-0.0648974 0.00413656 0)
(-0.0660986 0.00339206 0)
(-0.0670369 0.00258711 0)
(-0.0676956 0.00172774 0)
(-0.0680605 0.000821254 0)
(-0.0681201 -0.00012374 0)
(-0.0678657 -0.00109747 0)
(-0.0672917 -0.00208907 0)
(-0.0663962 -0.00308671 0)
(-0.0651808 -0.0040778 0)
(-0.0636508 -0.00504914 0)
(-0.0618155 -0.0059872 0)
(-0.0596882 -0.0068783 0)
(-0.0572858 -0.00770894 0)
(-0.0546294 -0.00846604 0)
(-0.0517434 -0.00913726 0)
(-0.0486556 -0.00971127 0)
(-0.045397 -0.0101781 0)
(-0.0420014 -0.0105292 0)
(-0.0385046 -0.010758 0)
(-0.0349443 -0.0108599 0)
(-0.0313592 -0.0108325 0)
(-0.0277889 -0.0106758 0)
(-0.0242725 -0.010392 0)
(-0.0208486 -0.00998587 0)
(-0.0175544 -0.00946442 0)
(-0.0144247 -0.00883694 0)
(-0.0114917 -0.00811478 0)
(-0.00878428 -0.00731113 0)
(-0.00632712 -0.00644085 0)
(-0.00414051 -0.00552017 0)
(-0.00223971 -0.00456647 0)
(-0.000634628 -0.00359807 0)
(0.000670531 -0.00263409 0)
(0.00167755 -0.00169431 0)
(0.00239441 -0.000799217 0)
(0.00283544 2.99776e-05 0)
(0.00302141 0.000771138 0)
(0.00297966 0.00140103 0)
(0.00274411 0.00189517 0)
(0.0023553 0.00222775 0)
(0.00186055 0.00237201 0)
(0.00131312 0.002301 0)
(0.000771788 0.00198928 0)
(0.000315522 0.00141541 0)
(6.03377e-05 0.000565415 0)
(-1.63062e-05 -8.44424e-05 0)
(-0.000161499 0.000162343 0)
(-0.000529742 0.000680246 0)
(-0.00111933 0.00136576 0)
(-0.00193316 0.00214494 0)
(-0.00297272 0.00296299 0)
(-0.00423329 0.00378095 0)
(-0.00570605 0.00457288 0)
(-0.0073798 0.00532278 0)
(-0.00924195 0.00602212 0)
(-0.0112793 0.00666761 0)
(-0.0134785 0.00725942 0)
(-0.0158267 0.00779974 0)
(-0.0183111 0.00829165 0)
(-0.0209195 0.00873825 0)
(-0.0236401 0.00914206 0)
(-0.0264608 0.00950464 0)
(-0.0293695 0.00982634 0)
(-0.0323537 0.0101063 0)
(-0.0354001 0.0103422 0)
(-0.0384944 0.010531 0)
(-0.0416212 0.0106683 0)
(-0.0447638 0.0107492 0)
(-0.0479041 0.0107683 0)
(-0.0510228 0.0107197 0)
(-0.054099 0.0105979 0)
(-0.0571108 0.0103973 0)
(-0.0600352 0.010113 0)
(-0.062848 0.00974047 0)
(-0.0655248 0.00927638 0)
(-0.0680407 0.00871831 0)
(-0.0703707 0.0080651 0)
(-0.0724902 0.00731692 0)
(-0.0743752 0.00647548 0)
(-0.076003 0.00554403 0)
(-0.0773519 0.00452746 0)
(-0.0784024 0.00343237 0)
(-0.0791371 0.00226701 0)
(-0.079541 0.0010413 0)
(-0.0796019 -0.000233256 0)
(-0.0793111 -0.00154368 0)
(-0.078663 -0.00287563 0)
(-0.0776559 -0.00421362 0)
(-0.0762918 -0.00554118 0)
(-0.0745768 -0.00684117 0)
(-0.072521 -0.00809601 0)
(-0.0701389 -0.00928798 0)
(-0.0674489 -0.0103996 0)
(-0.0644733 -0.011414 0)
(-0.0612387 -0.0123152 0)
(-0.057775 -0.0130884 0)
(-0.0541154 -0.0137206 0)
(-0.0502963 -0.0142009 0)
(-0.0463566 -0.0145204 0)
(-0.0423369 -0.014673 0)
(-0.0382796 -0.0146553 0)
(-0.0342275 -0.0144669 0)
(-0.030224 -0.0141105 0)
(-0.0263113 -0.0135918 0)
(-0.0225307 -0.0129197 0)
(-0.0189212 -0.012106 0)
(-0.015519 -0.0111651 0)
(-0.0123569 -0.010114 0)
(-0.00946327 -0.00897205 0)
(-0.00686193 -0.00776032 0)
(-0.00457123 -0.00650163 0)
(-0.00260372 -0.00522009 0)
(-0.0009658 -0.00394093 0)
(0.000342673 -0.00269032 0)
(0.00132859 -0.00149529 0)
(0.00200574 -0.000383791 0)
(0.00239496 0.000615269 0)
(0.00252414 0.00147183 0)
(0.00242825 0.00215454 0)
(0.00214943 0.00263075 0)
(0.00173708 0.00286665 0)
(0.00124726 0.00282784 0)
(0.000742492 0.0024803 0)
(0.000306243 0.00179171 0)
(5.89355e-05 0.000731463 0)
(-2.9903e-05 1.4561e-05 0)
(-0.000243815 0.000483671 0)
(-0.000750941 0.00123837 0)
(-0.00152863 0.00216693 0)
(-0.00256803 0.00318888 0)
(-0.00386392 0.0042443 0)
(-0.00540616 0.00529052 0)
(-0.00718165 0.00629905 0)
(-0.00917604 0.00725242 0)
(-0.0113744 0.00814138 0)
(-0.0137618 0.00896249 0)
(-0.0163234 0.00971615 0)
(-0.0190452 0.0104049 0)
(-0.0219134 0.0110324 0)
(-0.0249148 0.0116018 0)
(-0.0280361 0.0121158 0)
(-0.0312642 0.0125759 0)
(-0.0345855 0.012982 0)
(-0.0379859 0.0133324 0)
(-0.0414501 0.0136241 0)
(-0.0449621 0.0138527 0)
(-0.0485041 0.0140127 0)
(-0.0520574 0.0140977 0)
(-0.0556015 0.0141009 0)
(-0.0591146 0.0140151 0)
(-0.0625735 0.0138334 0)
(-0.0659537 0.0135491 0)
(-0.0692298 0.0131562 0)
(-0.0723755 0.0126497 0)
(-0.0753641 0.0120257 0)
(-0.0781687 0.0112817 0)
(-0.0807622 0.0104168 0)
(-0.0831185 0.00943172 0)
(-0.0852121 0.00832919 0)
(-0.0870187 0.00711378 0)
(-0.0885157 0.00579213 0)
(-0.0896825 0.00437292 0)
(-0.090501 0.00286688 0)
(-0.0909554 0.00128672 0)
(-0.0910335 -0.000352947 0)
(-0.0907258 -0.00203574 0)
(-0.0900269 -0.00374367 0)
(-0.0889349 -0.00545739 0)
(-0.0874521 -0.00715641 0)
(-0.0855847 -0.00881942 0)
(-0.0833434 -0.0104246 0)
(-0.0807431 -0.0119501 0)
(-0.077803 -0.0133742 0)
(-0.0745465 -0.014676 0)
(-0.0710013 -0.0158355 0)
(-0.0671986 -0.0168345 0)
(-0.0631735 -0.0176567 0)
(-0.0589644 -0.0182881 0)
(-0.0546122 -0.0187175 0)
(-0.0501605 -0.0189371 0)
(-0.0456543 -0.0189421 0)
(-0.04114 -0.0187316 0)
(-0.036664 -0.0183085 0)
(-0.0322726 -0.0176793 0)
(-0.0280108 -0.0168547 0)
(-0.0239216 -0.0158487 0)
(-0.0200454 -0.0146792 0)
(-0.0164189 -0.0133669 0)
(-0.0130745 -0.0119358 0)
(-0.0100396 -0.0104122 0)
(-0.00733598 -0.00882458 0)
(-0.00497932 -0.00720336 0)
(-0.00297863 -0.00558033 0)
(-0.00133596 -0.00398852 0)
(-4.61025e-05 -0.0024621 0)
(0.000903591 -0.00103621 0)
(0.0015333 0.000252907 0)
(0.00187078 0.00136786 0)
(0.00195138 0.00226996 0)
(0.00181809 0.00291916 0)
(0.00152171 0.00327404 0)
(0.00112032 0.00329205 0)
(0.000679125 0.00292994 0)
(0.000283931 0.00214419 0)
(5.53326e-05 0.000888811 0)
(-4.38557e-05 0.000156992 0)
(-0.000329423 0.000917864 0)
(-0.00098223 0.00196475 0)
(-0.00195752 0.00318051 0)
(-0.00323362 0.00448043 0)
(-0.00479775 0.00580149 0)
(-0.00663352 0.0070989 0)
(-0.00872292 0.00834296 0)
(-0.0110479 0.00951574 0)
(-0.0135908 0.010608 0)
(-0.0163347 0.0116168 0)
(-0.0192634 0.0125431 0)
(-0.0223614 0.0133899 0)
(-0.0256139 0.0141614 0)
(-0.0290067 0.0148611 0)
(-0.0325256 0.0154916 0)
(-0.0361561 0.0160542 0)
(-0.0398834 0.0165482 0)
(-0.0436919 0.016971 0)
(-0.0475647 0.0173186 0)
(-0.0514838 0.0175852 0)
(-0.0554299 0.0177639 0)
(-0.0593818 0.0178468 0)
(-0.0633171 0.0178257 0)
(-0.0672119 0.0176919 0)
(-0.0710407 0.0174373 0)
(-0.0747771 0.017054 0)
(-0.0783935 0.0165352 0)
(-0.0818619 0.0158752 0)
(-0.0851535 0.0150699 0)
(-0.0882397 0.0141169 0)
(-0.0910922 0.0130155 0)
(-0.0936832 0.0117673 0)
(-0.0959861 0.0103762 0)
(-0.0979755 0.00884819 0)
(-0.0996279 0.00719192 0)
(-0.100922 0.00541827 0)
(-0.101839 0.00354057 0)
(-0.102362 0.00157447 0)
(-0.102478 -0.000462207 0)
(-0.102179 -0.00254957 0)
(-0.101457 -0.00466589 0)
(-0.100311 -0.00678786 0)
(-0.0987419 -0.00889087 0)
(-0.0967567 -0.0109493 0)
(-0.0943656 -0.0129372 0)
(-0.0915836 -0.014828 0)
(-0.0884299 -0.0165959 0)
(-0.0849283 -0.0182155 0)
(-0.0811069 -0.019663 0)
(-0.076998 -0.020916 0)
(-0.0726376 -0.0219548 0)
(-0.0680656 -0.0227622 0)
(-0.0633249 -0.0233243 0)
(-0.058461 -0.023631 0)
(-0.0535217 -0.0236759 0)
(-0.0485562 -0.0234574 0)
(-0.0436144 -0.022978 0)
(-0.0387461 -0.0222452 0)
(-0.0340002 -0.0212708 0)
(-0.0294239 -0.0200714 0)
(-0.0250618 -0.0186678 0)
(-0.0209547 -0.017085 0)
(-0.0171393 -0.0153513 0)
(-0.0136472 -0.0134988 0)
(-0.0105039 -0.0115618 0)
(-0.00772853 -0.00957727 0)
(-0.00533337 -0.0075841 0)
(-0.00332312 -0.00562264 0)
(-0.00169481 -0.00373464 0)
(-0.000437503 -0.00196299 0)
(0.000467753 -0.000351747 0)
(0.00104802 0.00105386 0)
(0.00133846 0.00220731 0)
(0.00138236 0.00306063 0)
(0.00123132 0.00356432 0)
(0.000944705 0.0036672 0)
(0.000589477 0.00331655 0)
(0.000252077 0.00245794 0)
(5.02877e-05 0.00103178 0)
(-5.8048e-05 0.000344117 0)
(-0.000417253 0.00146911 0)
(-0.00122039 0.00286613 0)
(-0.00239985 0.00441507 0)
(-0.00392047 0.0060293 0)
(-0.00576127 0.00764462 0)
(-0.00789901 0.00921587 0)
(-0.0103102 0.0107136 0)
(-0.0129728 0.0121205 0)
(-0.015866 0.0134284 0)
(-0.0189706 0.0146352 0)
(-0.0222689 0.0157429 0)
(-0.025744 0.0167556 0)
(-0.0293802 0.0176778 0)
(-0.0331621 0.0185135 0)
(-0.0370747 0.0192653 0)
(-0.0411024 0.0199339 0)
(-0.0452291 0.0205178 0)
(-0.0494379 0.0210138 0)
(-0.0537106 0.0214162 0)
(-0.0580275 0.021718 0)
(-0.0623674 0.0219108 0)
(-0.0667076 0.0219851 0)
(-0.0710237 0.0219312 0)
(-0.0752899 0.0217389 0)
(-0.079479 0.0213988 0)
(-0.0835628 0.0209022 0)
(-0.087512 0.0202412 0)
(-0.0912969 0.0194099 0)
(-0.0948874 0.0184039 0)
(-0.0982534 0.0172208 0)
(-0.101366 0.0158607 0)
(-0.104195 0.0143261 0)
(-0.106714 0.012622 0)
(-0.108896 0.0107562 0)
(-0.110717 0.00873917 0)
(-0.112155 0.00658424 0)
(-0.11319 0.00430738 0)
(-0.113805 0.00192718 0)
(-0.113987 -0.00053526 0)
(-0.113725 -0.00305653 0)
(-0.113012 -0.00561114 0)
(-0.111845 -0.0081718 0)
(-0.110225 -0.0107097 0)
(-0.108159 -0.0131951 0)
(-0.105655 -0.0155972 0)
(-0.102728 -0.0178854 0)
(-0.099396 -0.0200291 0)
(-0.0956837 -0.0219986 0)
(-0.0916185 -0.0237655 0)
(-0.087233 -0.0253036 0)
(-0.082564 -0.0265889 0)
(-0.077652 -0.0276007 0)
(-0.0725415 -0.0283221 0)
(-0.06728 -0.0287402 0)
(-0.0619174 -0.0288469 0)
(-0.0565058 -0.028639 0)
(-0.0510984 -0.0281186 0)
(-0.0457486 -0.0272935 0)
(-0.0405095 -0.0261768 0)
(-0.0354324 -0.0247871 0)
(-0.0305663 -0.0231483 0)
(-0.025957 -0.0212893 0)
(-0.0216456 -0.0192432 0)
(-0.0176682 -0.0170475 0)
(-0.0140547 -0.014743 0)
(-0.0108284 -0.0123736 0)
(-0.00800503 -0.0099855 0)
(-0.00559268 -0.00762685 0)
(-0.00359111 -0.00534748 0)
(-0.00199164 -0.00319856 0)
(-0.000777037 -0.00123245 0)
(7.85769e-05 0.000497263 0)
(0.000609689 0.00193569 0)
(0.000859427 0.00302649 0)
(0.000879639 0.00371162 0)
(0.000730384 0.00393105 0)
(0.000479652 0.00362258 0)
(0.000213278 0.00272149 0)
(4.43156e-05 0.00115634 0)
(-7.23996e-05 0.000576799 0)
(-0.000506508 0.0021402 0)
(-0.00146291 0.00394699 0)
(-0.00285074 0.00587642 0)
(-0.00462086 0.00784202 0)
(-0.00674364 0.00978047 0)
(-0.0091886 0.011648 0)
(-0.0119264 0.0134168 0)
(-0.0149305 0.0150716 0)
(-0.018177 0.016606 0)
(-0.0216442 0.0180198 0)
(-0.0253126 0.0193166 0)
(-0.029164 0.0205014 0)
(-0.0331816 0.0215796 0)
(-0.0373492 0.0225557 0)
(-0.0416507 0.0234319 0)
(-0.0460697 0.0242087 0)
(-0.050589 0.0248838 0)
(-0.0551904 0.0254526 0)
(-0.0598546 0.0259082 0)
(-0.0645603 0.0262421 0)
(-0.0692851 0.0264441 0)
(-0.0740045 0.0265032 0)
(-0.0786926 0.0264081 0)
(-0.0833222 0.0261474 0)
(-0.0878644 0.0257104 0)
(-0.0922896 0.0250872 0)
(-0.0965672 0.0242695 0)
(-0.100666 0.0232509 0)
(-0.104555 0.0220268 0)
(-0.108204 0.0205954 0)
(-0.111581 0.0189573 0)
(-0.114656 0.0171159 0)
(-0.117403 0.0150777 0)
(-0.119792 0.012852 0)
(-0.1218 0.0104516 0)
(-0.123404 0.00789187 0)
(-0.124582 0.00519153 0)
(-0.125317 0.00237212 0)
(-0.125594 -0.000542077 0)
(-0.125402 -0.0035242 0)
(-0.124732 -0.00654502 0)
(-0.123581 -0.00957331 0)
(-0.121949 -0.0125762 0)
(-0.119839 -0.0155193 0)
(-0.11726 -0.0183678 0)
(-0.114224 -0.0210862 0)
(-0.110751 -0.0236392 0)
(-0.106861 -0.0259926 0)
(-0.102584 -0.0281132 0)
(-0.0979498 -0.0299703 0)
(-0.0929964 -0.0315356 0)
(-0.0877648 -0.0327845 0)
(-0.0823003 -0.0336962 0)
(-0.0766521 -0.034255 0)
(-0.0708723 -0.03445 0)
(-0.0650156 -0.0342763 0)
(-0.0591384 -0.0337352 0)
(-0.0532981 -0.0328341 0)
(-0.0475517 -0.031587 0)
(-0.0419553 -0.0300145 0)
(-0.0365629 -0.0281431 0)
(-0.0314252 -0.0260055 0)
(-0.0265886 -0.02364 0)
(-0.0220941 -0.0210895 0)
(-0.0179767 -0.0184014 0)
(-0.0142643 -0.0156267 0)
(-0.0109769 -0.0128195 0)
(-0.00812647 -0.0100363 0)
(-0.00571603 -0.00733542 0)
(-0.00373973 -0.00477683 0)
(-0.00218252 -0.00242177 0)
(-0.00102018 -0.00033273 0)
(-0.000219302 0.00142655 0)
(0.000262651 0.00279088 0)
(0.000477346 0.00369332 0)
(0.000485054 0.0040648 0)
(0.000354259 0.0038338 0)
(0.000169421 0.00292596 0)
(3.77644e-05 0.00125959 0)
(-8.68407e-05 0.000855559 0)
(-0.000596514 0.00293276 0)
(-0.00170771 0.00520999 0)
(-0.003306 0.00756791 0)
(-0.00532808 0.00992236 0)
(-0.00773536 0.0122128 0)
(-0.0104898 0.0143987 0)
(-0.0135561 0.0164556 0)
(-0.0169029 0.0183712 0)
(-0.020503 0.0201421 0)
(-0.0243321 0.0217708 0)
(-0.0283688 0.0232628 0)
(-0.0325938 0.0246248 0)
(-0.036989 0.0258632 0)
(-0.0415373 0.0269827 0)
(-0.0462219 0.0279858 0)
(-0.0510254 0.0288722 0)
(-0.0559298 0.0296387 0)
(-0.060916 0.0302794 0)
(-0.0659632 0.0307862 0)
(-0.0710493 0.0311486 0)
(-0.0761504 0.031355 0)
(-0.0812409 0.0313928 0)
(-0.0862937 0.031249 0)
(-0.09128 0.0309108 0)
(-0.0961701 0.0303665 0)
(-0.100933 0.0296052 0)
(-0.105537 0.0286181 0)
(-0.109951 0.0273984 0)
(-0.114142 0.0259417 0)
(-0.118078 0.0242464 0)
(-0.121728 0.0223139 0)
(-0.125062 0.0201486 0)
(-0.128051 0.0177584 0)
(-0.130667 0.0151543 0)
(-0.132883 0.012351 0)
(-0.134677 0.00936616 0)
(-0.136025 0.00622108 0)
(-0.136911 0.00294009 0)
(-0.137317 -0.000449423 0)
(-0.13723 -0.00391728 0)
(-0.136642 -0.00743063 0)
(-0.135545 -0.0109544 0)
(-0.133939 -0.0144516 0)
(-0.131824 -0.0178836 0)
(-0.129209 -0.021211 0)
(-0.126104 -0.0243937 0)
(-0.122524 -0.0273915 0)
(-0.118492 -0.0301652 0)
(-0.114032 -0.0326768 0)
(-0.109178 -0.0348905 0)
(-0.103964 -0.0367735 0)
(-0.0984319 -0.0382965 0)
(-0.0926282 -0.0394345 0)
(-0.0866028 -0.0401681 0)
(-0.08041 -0.0404832 0)
(-0.074107 -0.0403727 0)
(-0.0677536 -0.0398361 0)
(-0.0614108 -0.0388802 0)
(-0.0551403 -0.0375195 0)
(-0.0490033 -0.0357757 0)
(-0.0430589 -0.0336783 0)
(-0.0373635 -0.0312634 0)
(-0.0319691 -0.0285741 0)
(-0.0269228 -0.0256591 0)
(-0.0222649 -0.0225726 0)
(-0.0180288 -0.0193732 0)
(-0.0142395 -0.016123 0)
(-0.0109132 -0.0128874 0)
(-0.00805721 -0.00973394 0)
(-0.0056688 -0.00673181 0)
(-0.00373571 -0.00395178 0)
(-0.00223578 -0.0014658 0)
(-0.00113711 0.000652976 0)
(-0.000398115 0.00233004 0)
(3.23298e-05 0.00348922 0)
(0.000214362 0.00405225 0)
(0.000216633 0.00393848 0)
(0.000121832 0.00306445 0)
(3.08657e-05 0.00133948 0)
(-0.000101297 0.00118061 0)
(-0.00068664 0.00384745 0)
(-0.00195283 0.00665609 0)
(-0.00376184 0.00949073 0)
(-0.00603601 0.0122715 0)
(-0.00872771 0.0149427 0)
(-0.0117912 0.0174688 0)
(-0.0151849 0.0198299 0)
(-0.0188729 0.0220186 0)
(-0.0228242 0.0240353 0)
(-0.0270121 0.0258857 0)
(-0.0314132 0.0275783 0)
(-0.0360069 0.0291216 0)
(-0.040774 0.0305232 0)
(-0.0456966 0.0317886 0)
(-0.0507571 0.03292 0)
(-0.0559374 0.0339167 0)
(-0.0612187 0.0347744 0)
(-0.066581 0.035486 0)
(-0.0720027 0.0360416 0)
(-0.0774606 0.0364293 0)
(-0.0829299 0.0366358 0)
(-0.088384 0.0366466 0)
(-0.0937947 0.0364473 0)
(-0.0991324 0.036024 0)
(-0.104366 0.0353635 0)
(-0.109465 0.0344545 0)
(-0.114396 0.0332875 0)
(-0.119126 0.0318555 0)
(-0.123624 0.0301541 0)
(-0.127856 0.0281823 0)
(-0.131791 0.0259422 0)
(-0.135397 0.0234391 0)
(-0.138646 0.0206823 0)
(-0.141508 0.0176845 0)
(-0.143957 0.014462 0)
(-0.145967 0.0110349 0)
(-0.147517 0.00742658 0)
(-0.148586 0.00366419 0)
(-0.149155 -0.000222026 0)
(-0.149211 -0.00419861 0)
(-0.148742 -0.0082294 0)
(-0.147739 -0.0122756 0)
(-0.146199 -0.0162962 0)
(-0.144121 -0.0202484 0)
(-0.141509 -0.0240881 0)
(-0.138372 -0.0277705 0)
(-0.134724 -0.0312504 0)
(-0.130583 -0.0344836 0)
(-0.125975 -0.0374266 0)
(-0.120928 -0.0400385 0)
(-0.115478 -0.042281 0)
(-0.109666 -0.0441197 0)
(-0.103538 -0.045525 0)
(-0.0971459 -0.0464728 0)
(-0.0905446 -0.0469455 0)
(-0.0837942 -0.0469326 0)
(-0.0769576 -0.0464313 0)
(-0.0701 -0.0454471 0)
(-0.0632876 -0.0439943 0)
(-0.0565871 -0.0420957 0)
(-0.0500633 -0.0397827 0)
(-0.0437788 -0.0370951 0)
(-0.0377923 -0.0340804 0)
(-0.032157 -0.0307934 0)
(-0.0269199 -0.027295 0)
(-0.0221203 -0.0236519 0)
(-0.0177891 -0.0199347 0)
(-0.0139478 -0.0162182 0)
(-0.0106081 -0.0125795 0)
(-0.00777138 -0.00909804 0)
(-0.00542862 -0.00585455 0)
(-0.00356023 -0.00293114 0)
(-0.00213619 -0.000410973 0)
(-0.00111622 0.00162163 0)
(-0.000450034 0.00308089 0)
(-7.78366e-05 0.00387916 0)
(6.90307e-05 0.00392669 0)
(7.13925e-05 0.00313141 0)
(2.37674e-05 0.00139449 0)
(-0.000115684 0.00155186 0)
(-0.000776247 0.00488395 0)
(-0.00219641 0.00828478 0)
(-0.00421461 0.0116441 0)
(-0.00673885 0.0148883 0)
(-0.00971244 0.0179686 0)
(-0.013082 0.020856 0)
(-0.0167995 0.0235372 0)
(-0.0208243 0.0260104 0)
(-0.0251219 0.0282813 0)
(-0.029663 0.0303598 0)
(-0.0344223 0.0322575 0)
(-0.0393776 0.0339855 0)
(-0.0445091 0.0355529 0)
(-0.0497979 0.0369658 0)
(-0.0552257 0.0382265 0)
(-0.0607738 0.0393338 0)
(-0.0664227 0.0402822 0)
(-0.0721518 0.0410634 0)
(-0.0779387 0.0416658 0)
(-0.0837596 0.0420759 0)
(-0.0895888 0.0422784 0)
(-0.0953989 0.0422576 0)
(-0.101161 0.0419974 0)
(-0.106845 0.0414826 0)
(-0.11242 0.0406991 0)
(-0.117853 0.0396348 0)
(-0.123111 0.0382797 0)
(-0.128162 0.0366266 0)
(-0.132973 0.0346715 0)
(-0.13751 0.0324136 0)
(-0.141741 0.0298557 0)
(-0.145636 0.0270041 0)
(-0.149162 0.0238694 0)
(-0.152293 0.0204656 0)
(-0.154998 0.0168108 0)
(-0.157254 0.012927 0)
(-0.159034 0.00883979 0)
(-0.160319 0.00457867 0)
(-0.161087 0.000176582 0)
(-0.161322 -0.00433008 0)
(-0.161011 -0.00890192 0)
(-0.160142 -0.0134966 0)
(-0.158709 -0.0180693 0)
(-0.156708 -0.022573 0)
(-0.15414 -0.0269591 0)
(-0.151012 -0.031178 0)
(-0.147334 -0.0351794 0)
(-0.143122 -0.0389136 0)
(-0.138398 -0.0423316 0)
(-0.13319 -0.0453866 0)
(-0.127531 -0.0480347 0)
(-0.121462 -0.0502356 0)
(-0.115028 -0.0519543 0)
(-0.108281 -0.0531614 0)
(-0.101279 -0.0538346 0)
(-0.0940816 -0.0539595 0)
(-0.0867568 -0.0535301 0)
(-0.0793732 -0.0525499 0)
(-0.0720022 -0.0510321 0)
(-0.0647157 -0.0489998 0)
(-0.0575852 -0.0464862 0)
(-0.05068 -0.0435341 0)
(-0.0440658 -0.0401956 0)
(-0.0378033 -0.0365311 0)
(-0.0319466 -0.0326089 0)
(-0.0265422 -0.0285036 0)
(-0.0216275 -0.0242952 0)
(-0.0172302 -0.0200681 0)
(-0.0133673 -0.01591 0)
(-0.0100449 -0.011911 0)
(-0.00725779 -0.00816265 0)
(-0.00498957 -0.00475802 0)