/*--------------------------------*- C++ -*----------------------------------*\
  =========                 |
  \\      /  F ield         | OpenFOAM: The Open Source CFD Toolbox
   \\    /   O peration     | Website:  https://openfoam.org
    \\  /    A nd           | Version:  7
     \\/     M anipulation  |
\*---------------------------------------------------------------------------*/
FoamFile
{
    version     2.0;
    format      ascii;
    class       volVectorField;
    location    "1.875";
    object      U;
}
// * * * * * * * * * * * * * * * * * * * * * * * * * * * * * * * * * * * * * //

dimensions      [0 1 -1 0 0 0 0];

internalField   nonuniform List<vector> 
6400
(
(8.57407e-06 -8.86303e-06 0)
(3.39689e-05 -1.6154e-05 0)
(6.48881e-05 -1.47996e-05 0)
(8.40766e-05 -9.01119e-06 0)
(8.30854e-05 -1.4696e-06 0)
(5.91665e-05 6.4797e-06 0)
(1.19348e-05 1.41634e-05 0)
(-5.77591e-05 2.12763e-05 0)
(-0.000148374 2.76885e-05 0)
(-0.000258015 3.33613e-05 0)
(-0.00038465 3.83055e-05 0)
(-0.000526221 4.25569e-05 0)
(-0.000680725 4.61629e-05 0)
(-0.000846254 4.91754e-05 0)
(-0.00102101 5.16469e-05 0)
(-0.00120334 5.36277e-05 0)
(-0.00139168 5.51637e-05 0)
(-0.00158459 5.62958e-05 0)
(-0.00178077 5.70587e-05 0)
(-0.00197896 5.74808e-05 0)
(-0.00217799 5.7585e-05 0)
(-0.00237678 5.73884e-05 0)
(-0.00257425 5.69027e-05 0)
(-0.00276938 5.6135e-05 0)
(-0.00296116 5.50882e-05 0)
(-0.00314858 5.37619e-05 0)
(-0.00333066 5.21533e-05 0)
(-0.00350637 5.02575e-05 0)
(-0.00367472 4.80689e-05 0)
(-0.00383466 4.55818e-05 0)
(-0.00398519 4.27909e-05 0)
(-0.00412524 3.96924e-05 0)
(-0.0042538 3.62845e-05 0)
(-0.00436984 3.25684e-05 0)
(-0.00447234 2.85485e-05 0)
(-0.00456033 2.42333e-05 0)
(-0.00463288 1.96356e-05 0)
(-0.00468912 1.47732e-05 0)
(-0.00472825 9.66862e-06 0)
(-0.00474956 4.34995e-06 0)
(-0.00475245 -1.14938e-06 0)
(-0.00473645 -6.79051e-06 0)
(-0.00470121 -1.25294e-05 0)
(-0.00464654 -1.8317e-05 0)
(-0.00457245 -2.41e-05 0)
(-0.00447909 -2.9821e-05 0)
(-0.00436682 -3.54193e-05 0)
(-0.00423621 -4.08319e-05 0)
(-0.00408801 -4.59939e-05 0)
(-0.0039232 -5.08401e-05 0)
(-0.00374295 -5.53059e-05 0)
(-0.00354865 -5.93288e-05 0)
(-0.00334186 -6.28489e-05 0)
(-0.00312434 -6.58107e-05 0)
(-0.00289801 -6.81638e-05 0)
(-0.00266494 -6.98645e-05 0)
(-0.00242731 -7.08766e-05 0)
(-0.00218742 -7.11724e-05 0)
(-0.00194762 -7.07335e-05 0)
(-0.00171032 -6.95508e-05 0)
(-0.00147792 -6.76257e-05 0)
(-0.0012528 -6.49696e-05 0)
(-0.00103729 -6.16046e-05 0)
(-0.000833626 -5.75628e-05 0)
(-0.000643905 -5.28863e-05 0)
(-0.000470076 -4.76269e-05 0)
(-0.000313893 -4.18455e-05 0)
(-0.000176884 -3.56124e-05 0)
(-6.03142e-05 -2.90085e-05 0)
(3.48478e-05 -2.21267e-05 0)
(0.00010798 -1.50721e-05 0)
(0.000158865 -7.9737e-06 0)
(0.000187768 -9.93386e-07 0)
(0.000195553 5.65056e-06 0)
(0.000183882 1.16436e-05 0)
(0.000155496 1.65017e-05 0)
(0.000114599 1.94681e-05 0)
(6.76053e-05 1.93105e-05 0)
(2.53396e-05 1.41851e-05 0)
(3.56121e-06 3.57477e-06 0)
(1.6099e-05 -3.44717e-05 0)
(5.4984e-05 -5.50763e-05 0)
(8.98667e-05 -4.21648e-05 0)
(9.23016e-05 -1.04659e-05 0)
(4.62506e-05 3.03524e-05 0)
(-5.52927e-05 7.44854e-05 0)
(-0.00021455 0.000118519 0)
(-0.000430665 0.000160496 0)
(-0.000700825 0.000199339 0)
(-0.00102101 0.000234509 0)
(-0.00138657 0.000265796 0)
(-0.00179254 0.000293188 0)
(-0.00223392 0.000316798 0)
(-0.00270578 0.000336806 0)
(-0.00320338 0.000353426 0)
(-0.00372224 0.000366885 0)
(-0.00425809 0.000377406 0)
(-0.00480694 0.000385196 0)
(-0.00536501 0.000390437 0)
(-0.00592876 0.000393289 0)
(-0.00649482 0.00039388 0)
(-0.00705996 0.000392313 0)
(-0.00762108 0.000388661 0)
(-0.00817517 0.000382976 0)
(-0.00871925 0.000375287 0)
(-0.00925042 0.000365604 0)
(-0.00976575 0.000353926 0)
(-0.0102623 0.000340242 0)
(-0.0107373 0.000324538 0)
(-0.0111877 0.000306798 0)
(-0.0116107 0.000287015 0)
(-0.0120032 0.000265188 0)
(-0.0123626 0.00024133 0)
(-0.0126858 0.000215473 0)
(-0.0129703 0.000187671 0)
(-0.0132133 0.000158 0)
(-0.0134123 0.000126565 0)
(-0.0135651 9.35003e-05 0)
(-0.0136696 5.89689e-05 0)
(-0.0137238 2.31674e-05 0)
(-0.0137263 -1.3676e-05 0)
(-0.013676 -5.13016e-05 0)
(-0.0135719 -8.94192e-05 0)
(-0.0134138 -0.000127711 0)
(-0.0132018 -0.000165832 0)
(-0.0129363 -0.000203417 0)
(-0.0126187 -0.000240083 0)
(-0.0122504 -0.000275434 0)
(-0.0118337 -0.000309065 0)
(-0.0113713 -0.000340573 0)
(-0.0108666 -0.00036956 0)
(-0.0103233 -0.000395641 0)
(-0.00974571 -0.000418449 0)
(-0.00913872 -0.000437648 0)
(-0.00850754 -0.000452933 0)
(-0.00785777 -0.000464041 0)
(-0.00719538 -0.000470756 0)
(-0.00652653 -0.000472914 0)
(-0.00585762 -0.000470409 0)
(-0.0051951 -0.000463196 0)
(-0.00454545 -0.000451291 0)
(-0.00391509 -0.000434778 0)
(-0.00331025 -0.000413806 0)
(-0.00273691 -0.000388592 0)
(-0.00220069 -0.000359418 0)
(-0.00170678 -0.000326632 0)
(-0.00125981 -0.00029065 0)
(-0.000863789 -0.000251954 0)
(-0.000521962 -0.000211104 0)
(-0.000236735 -0.000168744 0)
(-9.51962e-06 -0.000125618 0)
(0.000159421 -8.26123e-05 0)
(0.000271178 -4.08034e-05 0)
(0.000328475 -1.55104e-06 0)
(0.000336049 3.33619e-05 0)
(0.000301156 6.15175e-05 0)
(0.000234051 7.95953e-05 0)
(0.000148678 8.30105e-05 0)
(6.57834e-05 6.59151e-05 0)
(1.40694e-05 2.52549e-05 0)
(1.50394e-05 -6.55122e-05 0)
(4.2728e-05 -9.01213e-05 0)
(4.70801e-05 -4.65827e-05 0)
(-2.58939e-06 3.72158e-05 0)
(-0.00012457 0.00014269 0)
(-0.000327866 0.000257382 0)
(-0.000615818 0.000373194 0)
(-0.000987751 0.000485004 0)
(-0.00144019 0.000589709 0)
(-0.00196783 0.000685538 0)
(-0.00256425 0.000771604 0)
(-0.00322241 0.000847596 0)
(-0.00393505 0.000913582 0)
(-0.00469489 0.000969861 0)
(-0.00549479 0.00101687 0)
(-0.00632788 0.0010551 0)
(-0.00718759 0.00108507 0)
(-0.00806766 0.00110727 0)
(-0.00896213 0.00112216 0)
(-0.00986533 0.00113014 0)
(-0.0107719 0.00113154 0)
(-0.0116765 0.00112663 0)
(-0.0125742 0.00111561 0)
(-0.0134601 0.00109862 0)
(-0.0143294 0.00107577 0)
(-0.0151773 0.00104709 0)
(-0.0159992 0.00101261 0)
(-0.0167903 0.000972326 0)
(-0.0175459 0.000926222 0)
(-0.0182616 0.000874292 0)
(-0.0189325 0.000816543 0)
(-0.0195542 0.00075301 0)
(-0.020122 0.000683767 0)
(-0.0206318 0.000608937 0)
(-0.0210791 0.000528702 0)
(-0.0214598 0.000443309 0)
(-0.0217703 0.000353079 0)
(-0.0220069 0.000258413 0)
(-0.0221666 0.000159794 0)
(-0.0222465 5.77905e-05 0)
(-0.0222445 -4.69449e-05 0)
(-0.0221588 -0.000153675 0)
(-0.0219884 -0.000261583 0)
(-0.0217329 -0.000369779 0)
(-0.0213925 -0.000477306 0)
(-0.0209684 -0.00058315 0)
(-0.0204624 -0.000686254 0)
(-0.0198771 -0.000785529 0)
(-0.0192161 -0.000879871 0)
(-0.0184838 -0.000968177 0)
(-0.0176852 -0.00104936 0)
(-0.0168264 -0.00112238 0)
(-0.0159141 -0.00118625 0)
(-0.0149558 -0.00124004 0)
(-0.0139596 -0.00128294 0)
(-0.0129342 -0.00131425 0)
(-0.0118886 -0.00133338 0)
(-0.0108325 -0.0013399 0)
(-0.00977571 -0.00133352 0)
(-0.00872807 -0.00131415 0)
(-0.00769957 -0.00128184 0)
(-0.00670002 -0.00123682 0)
(-0.00573899 -0.00117954 0)
(-0.00482562 -0.0011106 0)
(-0.00396851 -0.0010308 0)
(-0.00317556 -0.000941127 0)
(-0.0024538 -0.000842769 0)
(-0.00180929 -0.000737104 0)
(-0.00124689 -0.000625729 0)
(-0.000770135 -0.000510484 0)
(-0.000381015 -0.000393498 0)
(-7.97464e-05 -0.000277268 0)
(0.000135502 -0.000164769 0)
(0.000268952 -5.96283e-05 0)
(0.000327645 3.3629e-05 0)
(0.000321951 0.000109267 0)
(0.00026591 0.000159998 0)
(0.00017766 0.000176713 0)
(8.31752e-05 0.000148804 0)
(1.91612e-05 6.72986e-05 0)
(9.47073e-06 -8.52643e-05 0)
(1.12381e-05 -9.27946e-05 0)
(-3.7336e-05 3.15301e-06 0)
(-0.000163179 0.00016189 0)
(-0.000383489 0.000355968 0)
(-0.000707483 0.000566011 0)
(-0.00113856 0.000778681 0)
(-0.00167579 0.000985107 0)
(-0.00231506 0.0011796 0)
(-0.00305007 0.00135868 0)
(-0.00387309 0.00152042 0)
(-0.00477552 0.00166398 0)
(-0.00574834 0.00178921 0)
(-0.00678239 0.00189643 0)
(-0.0078686 0.00198628 0)
(-0.00899812 0.00205951 0)
(-0.0101624 0.00211698 0)
(-0.0113531 0.00215951 0)
(-0.0125625 0.00218788 0)
(-0.013783 0.00220278 0)
(-0.0150072 0.0022048 0)
(-0.0162282 0.00219443 0)
(-0.0174391 0.00217205 0)
(-0.0186333 0.00213792 0)
(-0.0198043 0.00209225 0)
(-0.0209455 0.00203513 0)
(-0.0220507 0.00196664 0)
(-0.0231135 0.00188681 0)
(-0.0241276 0.00179564 0)
(-0.0250868 0.00169317 0)
(-0.0259849 0.00157945 0)
(-0.0268158 0.00145461 0)
(-0.0275736 0.00131882 0)
(-0.0282525 0.00117238 0)
(-0.0288468 0.00101566 0)
(-0.0293514 0.000849197 0)
(-0.0297612 0.000673633 0)
(-0.0300717 0.000489771 0)
(-0.0302789 0.000298564 0)
(-0.0303794 0.000101124 0)
(-0.0303703 -0.000101284 0)
(-0.0302497 -0.000307239 0)
(-0.0300162 -0.000515177 0)
(-0.0296695 -0.000723398 0)
(-0.0292102 -0.000930086 0)
(-0.0286398 -0.00113332 0)
(-0.0279608 -0.00133111 0)
(-0.027177 -0.00152139 0)
(-0.0262929 -0.0017021 0)
(-0.0253145 -0.00187117 0)
(-0.0242486 -0.00202657 0)
(-0.0231029 -0.00216635 0)
(-0.0218865 -0.00228865 0)
(-0.020609 -0.00239178 0)
(-0.0192811 -0.00247422 0)
(-0.0179141 -0.00253464 0)
(-0.0165198 -0.00257198 0)
(-0.0151108 -0.00258544 0)
(-0.0136997 -0.00257451 0)
(-0.0122995 -0.00253899 0)
(-0.0109231 -0.00247902 0)
(-0.00958321 -0.00239506 0)
(-0.00829224 -0.00228794 0)
(-0.00706205 -0.00215883 0)
(-0.00590379 -0.00200928 0)
(-0.00482767 -0.00184118 0)
(-0.00384279 -0.0016568 0)
(-0.00295694 -0.0014588 0)
(-0.00217636 -0.00125024 0)
(-0.00150558 -0.00103464 0)
(-0.000947099 -0.000816069 0)
(-0.000501179 -0.000599223 0)
(-0.000165515 -0.000389614 0)
(6.51058e-05 -0.000193794 0)
(0.000199207 -1.96575e-05 0)
(0.00024907 0.00012318 0)
(0.000230957 0.000223013 0)
(0.000165439 0.000265814 0)
(8.13727e-05 0.000235447 0)
(1.95282e-05 0.000114436 0)
(1.96835e-06 -8.48695e-05 0)
(-3.04889e-05 -4.5985e-05 0)
(-0.000146549 0.000127184 0)
(-0.000365168 0.000383406 0)
(-0.000700047 0.00068737 0)
(-0.00115921 0.00101332 0)
(-0.00174514 0.00134287 0)
(-0.00245604 0.00166333 0)
(-0.00328693 0.00196624 0)
(-0.00423054 0.00224619 0)
(-0.005278 0.00249999 0)
(-0.00641943 0.00272606 0)
(-0.00764437 0.0029239 0)
(-0.00894214 0.00309376 0)
(-0.0103021 0.00323639 0)
(-0.0117136 0.0033528 0)
(-0.0131665 0.00344413 0)
(-0.0146509 0.00351155 0)
(-0.0161571 0.00355617 0)
(-0.0176759 0.00357901 0)
(-0.0191983 0.00358095 0)
(-0.0207157 0.0035627 0)
(-0.0222196 0.00352485 0)
(-0.0237017 0.00346783 0)
(-0.0251539 0.00339195 0)
(-0.0265682 0.00329741 0)
(-0.0279367 0.00318435 0)
(-0.0292516 0.00305286 0)
(-0.030505 0.00290301 0)
(-0.0316894 0.0027349 0)
(-0.032797 0.00254868 0)
(-0.0338206 0.00234461 0)
(-0.0347527 0.00212305 0)
(-0.0355865 0.0018845 0)
(-0.0363151 0.00162965 0)
(-0.0369322 0.00135939 0)
(-0.0374318 0.00107481 0)
(-0.0378087 0.000777229 0)
(-0.0380581 0.000468212 0)
(-0.0381759 0.000149563 0)
(-0.038159 -0.000176676 0)
(-0.0380049 -0.000508226 0)
(-0.0377124 -0.000842586 0)
(-0.0372811 -0.00117705 0)
(-0.0367119 -0.00150875 0)
(-0.0360068 -0.00183462 0)
(-0.0351691 -0.00215154 0)
(-0.0342032 -0.00245627 0)
(-0.033115 -0.00274554 0)
(-0.0319116 -0.00301612 0)
(-0.0306012 -0.00326483 0)
(-0.0291933 -0.00348861 0)
(-0.0276988 -0.00368457 0)
(-0.0261293 -0.00385007 0)
(-0.0244977 -0.00398271 0)
(-0.0228175 -0.00408045 0)
(-0.021103 -0.00414164 0)
(-0.0193692 -0.00416503 0)
(-0.0176313 -0.00414982 0)
(-0.0159048 -0.00409573 0)
(-0.0142053 -0.00400298 0)
(-0.0125479 -0.00387234 0)
(-0.0109476 -0.00370512 0)
(-0.00941849 -0.00350319 0)
(-0.00797405 -0.00326902 0)
(-0.00662647 -0.00300561 0)
(-0.00538668 -0.0027166 0)
(-0.00426399 -0.00240621 0)
(-0.00326594 -0.00207932 0)
(-0.00239795 -0.00174152 0)
(-0.00166311 -0.00139919 0)
(-0.00106189 -0.00105966 0)
(-0.000591831 -0.000731392 0)
(-0.000247223 -0.000424238 0)
(-1.87515e-05 -0.000149778 0)
(0.000106868 7.82797e-05 0)
(0.000147066 0.000243674 0)
(0.000123719 0.000327315 0)
(6.67198e-05 0.000307126 0)
(1.71241e-05 0.000156702 0)
(-6.22994e-06 -6.08165e-05 0)
(-7.72484e-05 5.92578e-05 0)
(-0.00026963 0.000337565 0)
(-0.000591913 0.00071509 0)
(-0.00105263 0.00115006 0)
(-0.00165752 0.00161122 0)
(-0.00240728 0.00207563 0)
(-0.00329865 0.00252705 0)
(-0.00432545 0.00295427 0)
(-0.00547928 0.00334992 0)
(-0.00675014 0.00370948 0)
(-0.00812697 0.00403051 0)
(-0.00959808 0.00431207 0)
(-0.0111515 0.00455426 0)
(-0.0127751 0.00475786 0)
(-0.014457 0.00492409 0)
(-0.0161855 0.00505437 0)
(-0.0179491 0.00515018 0)
(-0.0197369 0.00521298 0)
(-0.021538 0.0052441 0)
(-0.023342 0.00524471 0)
(-0.0251387 0.00521578 0)
(-0.0269182 0.00515812 0)
(-0.0286707 0.00507234 0)
(-0.0303867 0.00495887 0)
(-0.0320567 0.00481805 0)
(-0.0336714 0.0046501 0)
(-0.0352217 0.0044552 0)
(-0.0366983 0.00423352 0)
(-0.0380923 0.00398528 0)
(-0.0393948 0.00371077 0)
(-0.0405973 0.00341042 0)
(-0.0416911 0.00308483 0)
(-0.0426683 0.00273483 0)
(-0.0435211 0.00236147 0)
(-0.0442422 0.00196608 0)
(-0.0448248 0.00155032 0)
(-0.0452629 0.00111614 0)
(-0.0455511 0.000665846 0)
(-0.0456848 0.000202063 0)
(-0.0456605 -0.000272238 0)
(-0.0454757 -0.000753764 0)
(-0.0451289 -0.00123891 0)
(-0.0446199 -0.0017238 0)
(-0.04395 -0.00220431 0)
(-0.0431214 -0.00267609 0)
(-0.0421381 -0.00313467 0)
(-0.0410053 -0.00357544 0)
(-0.0397298 -0.00399378 0)
(-0.0383198 -0.00438509 0)
(-0.0367848 -0.00474486 0)
(-0.035136 -0.00506877 0)
(-0.0333855 -0.00535273 0)
(-0.0315469 -0.00559299 0)
(-0.0296349 -0.00578618 0)
(-0.027665 -0.00592943 0)
(-0.0256536 -0.00602037 0)
(-0.0236178 -0.00605726 0)
(-0.0215751 -0.006039 0)
(-0.0195432 -0.00596517 0)
(-0.0175399 -0.0058361 0)
(-0.0155827 -0.00565291 0)
(-0.0136887 -0.00541746 0)
(-0.0118741 -0.00513246 0)
(-0.0101543 -0.00480141 0)
(-0.00854343 -0.00442865 0)
(-0.00705398 -0.00401936 0)
(-0.00569676 -0.0035796 0)
(-0.00448049 -0.00311633 0)
(-0.00341157 -0.00263749 0)
(-0.00249378 -0.00215212 0)
(-0.00172799 -0.00167047 0)
(-0.00111192 -0.00120423 0)
(-0.00063979 -0.000766792 0)
(-0.000302073 -0.000373604 0)
(-8.51655e-05 -4.25675e-05 0)
(2.87521e-05 0.00020548 0)
(6.20004e-05 0.000346399 0)
(4.40009e-05 0.000352279 0)
(1.32285e-05 0.000188731 0)
(-1.45384e-05 -1.16916e-05 0)
(-0.000126091 0.000227797 0)
(-0.000399671 0.000641657 0)
(-0.000832229 0.00116562 0)
(-0.00142611 0.00175298 0)
(-0.00218395 0.00236803 0)
(-0.00310396 0.00298401 0)
(-0.00418089 0.0035815 0)
(-0.00540697 0.00414685 0)
(-0.00677244 0.00467083 0)
(-0.00826609 0.00514761 0)
(-0.00987568 0.0055739 0)
(-0.0115884 0.00594827 0)
(-0.013391 0.00627062 0)
(-0.0152702 0.00654174 0)
(-0.0172129 0.006763 0)
(-0.0192062 0.00693608 0)
(-0.0212372 0.00706276 0)
(-0.0232937 0.0071448 0)
(-0.0253635 0.00718386 0)
(-0.0274349 0.00718139 0)
(-0.0294963 0.00713864 0)
(-0.0315366 0.00705661 0)
(-0.0335446 0.00693611 0)
(-0.0355095 0.00677774 0)
(-0.0374205 0.00658197 0)
(-0.0392671 0.00634913 0)
(-0.0410387 0.00607953 0)
(-0.042725 0.00577346 0)
(-0.0443159 0.00543129 0)
(-0.0458014 0.00505352 0)
(-0.0471717 0.00464079 0)
(-0.0484173 0.00419403 0)
(-0.0495291 0.00371441 0)
(-0.0504986 0.00320346 0)
(-0.0513175 0.00266306 0)
(-0.0519784 0.00209549 0)
(-0.0524745 0.00150347 0)
(-0.0528 0.00089013 0)
(-0.0529499 0.000259063 0)
(-0.0529203 -0.000385707 0)
(-0.0527085 -0.00103973 0)
(-0.0523131 -0.00169817 0)
(-0.0517339 -0.00235581 0)
(-0.0509722 -0.00300713 0)
(-0.050031 -0.00364633 0)
(-0.0489144 -0.00426743 0)
(-0.0476286 -0.00486431 0)
(-0.046181 -0.00543081 0)
(-0.0445809 -0.00596082 0)
(-0.0428389 -0.00644836 0)
(-0.0409672 -0.00688768 0)
(-0.0389796 -0.00727336 0)
(-0.0368912 -0.00760043 0)
(-0.034718 -0.00786442 0)
(-0.0324776 -0.0080615 0)
(-0.0301881 -0.00818856 0)
(-0.0278686 -0.00824325 0)
(-0.0255384 -0.00822413 0)
(-0.0232173 -0.00813063 0)
(-0.0209251 -0.00796322 0)
(-0.0186813 -0.00772335 0)
(-0.0165049 -0.00741353 0)
(-0.0144142 -0.00703735 0)
(-0.0124264 -0.00659951 0)
(-0.0105572 -0.00610579 0)
(-0.00882084 -0.00556311 0)
(-0.00722945 -0.00497955 0)
(-0.005793 -0.00436438 0)
(-0.00451893 -0.00372812 0)
(-0.00341185 -0.00308267 0)
(-0.00247328 -0.00244143 0)
(-0.00170141 -0.00181952 0)
(-0.00109078 -0.00123402 0)
(-0.000632098 -0.000704329 0)
(-0.000312001 -0.00025255 0)
(-0.000112881 9.59805e-05 0)
(-1.26659e-05 0.000312273 0)
(1.64769e-05 0.000363058 0)
(8.59396e-06 0.000207399 0)
(-2.27016e-05 6.28906e-05 0)
(-0.000175375 0.000461939 0)
(-0.000532403 0.00104353 0)
(-0.00107878 0.0017402 0)
(-0.00181014 0.00250178 0)
(-0.00272542 0.00328919 0)
(-0.00381985 0.00407264 0)
(-0.00508572 0.00483013 0)
(-0.00651332 0.00554591 0)
(-0.00809131 0.00620914 0)
(-0.00980711 0.00681282 0)
(-0.0116473 0.00735288 0)
(-0.0135977 0.00782743 0)
(-0.0156442 0.00823618 0)
(-0.0177724 0.0085799 0)
(-0.019968 0.00886012 0)
(-0.022217 0.00907871 0)
(-0.0245053 0.00923776 0)
(-0.0268197 0.00933933 0)
(-0.0291467 0.00938536 0)
(-0.0314735 0.00937761 0)
(-0.0337874 0.00931755 0)
(-0.0360759 0.00920645 0)
(-0.0383268 0.00904528 0)
(-0.040528 0.00883482 0)
(-0.0426677 0.00857567 0)
(-0.044734 0.00826833 0)
(-0.0467155 0.00791323 0)
(-0.0486006 0.00751085 0)
(-0.0503781 0.00706172 0)
(-0.052037 0.00656658 0)
(-0.0535666 0.00602637 0)
(-0.0549564 0.00544237 0)
(-0.0561964 0.00481619 0)
(-0.0572773 0.00414989 0)
(-0.0581901 0.00344597 0)
(-0.0589267 0.00270744 0)
(-0.0594798 0.00193786 0)
(-0.059843 0.00114132 0)
(-0.0600109 0.000322457 0)
(-0.0599794 -0.00051353 0)
(-0.0597456 -0.00136092 0)
(-0.0593079 -0.00221351 0)
(-0.0586663 -0.00306462 0)
(-0.0578223 -0.0039072 0)
(-0.0567789 -0.00473387 0)
(-0.055541 -0.005537 0)
(-0.054115 -0.00630882 0)
(-0.0525093 -0.0070415 0)
(-0.0507337 -0.00772727 0)
(-0.0487999 -0.00835854 0)
(-0.0467213 -0.00892802 0)
(-0.0445127 -0.00942882 0)
(-0.0421904 -0.00985464 0)
(-0.0397722 -0.0101998 0)
(-0.0372769 -0.0104594 0)
(-0.0347244 -0.0106295 0)
(-0.0321353 -0.0107071 0)
(-0.0295309 -0.0106904 0)
(-0.0269327 -0.0105786 0)
(-0.0243624 -0.0103722 0)
(-0.0218414 -0.0100731 0)
(-0.0193904 -0.00968457 0)
(-0.0170297 -0.00921104 0)
(-0.014778 -0.00865848 0)
(-0.012653 -0.00803427 0)
(-0.0106702 -0.00734718 0)
(-0.00884326 -0.00660747 0)
(-0.00718354 -0.00582686 0)
(-0.00569958 -0.00501865 0)
(-0.004397 -0.00419775 0)
(-0.00327819 -0.00338088 0)
(-0.00234208 -0.00258669 0)
(-0.00158388 -0.00183604 0)
(-0.000994934 -0.0011523 0)
(-0.000562523 -0.000561738 0)
(-0.000269748 -9.40218e-05 0)
(-9.53102e-05 0.00021734 0)
(-1.37053e-05 0.000334356 0)
(3.66046e-06 0.000210962 0)
(-3.06164e-05 0.000162747 0)
(-0.000224212 0.000762349 0)
(-0.000665233 0.00154496 0)
(-0.00132682 0.00244149 0)
(-0.00219767 0.0033996 0)
(-0.00327272 0.00437788 0)
(-0.0045438 0.00534435 0)
(-0.00600042 0.00627503 0)
(-0.00763063 0.00715252 0)
(-0.00942129 0.00796471 0)
(-0.0113583 0.00870365 0)
(-0.0134268 0.00936461 0)
(-0.0156117 0.00994535 0)
(-0.0178976 0.0104454 0)
(-0.020269 0.0108656 0)
(-0.0227107 0.0112076 0)
(-0.0252076 0.0114735 0)
(-0.0277448 0.0116656 0)
(-0.0303078 0.0117863 0)
(-0.0328823 0.0118378 0)
(-0.0354544 0.0118221 0)
(-0.0380102 0.0117411 0)
(-0.0405363 0.0115961 0)
(-0.0430195 0.0113883 0)
(-0.0454466 0.0111187 0)
(-0.0478047 0.0107881 0)
(-0.050081 0.010397 0)
(-0.0522629 0.00994616 0)
(-0.054338 0.00943617 0)
(-0.0562941 0.0088678 0)
(-0.0581192 0.00824206 0)
(-0.0598017 0.00756023 0)
(-0.0613304 0.00682398 0)
(-0.0626945 0.00603544 0)
(-0.0638837 0.00519724 0)
(-0.0648885 0.00431259 0)
(-0.0657003 0.0033853 0)
(-0.066311 0.00241984 0)
(-0.0667139 0.00142133 0)
(-0.0669033 0.000395585 0)
(-0.0668746 -0.00065095 0)
(-0.0666247 -0.00171118 0)
(-0.066152 -0.00277742 0)
(-0.0654564 -0.00384144 0)
(-0.0645395 -0.00489453 0)
(-0.0634046 -0.0059276 0)
(-0.0620568 -0.00693128 0)
(-0.060503 -0.00789601 0)
(-0.0587519 -0.00881216 0)
(-0.0568142 -0.00967019 0)
(-0.0547024 -0.0104608 0)
(-0.0524306 -0.011175 0)
(-0.0500147 -0.0118043 0)
(-0.0474722 -0.012341 0)
(-0.0448221 -0.012778 0)
(-0.0420845 -0.0131094 0)
(-0.0392808 -0.0133303 0)
(-0.0364331 -0.0134368 0)
(-0.0335644 -0.0134268 0)
(-0.0306979 -0.0132992 0)
(-0.027857 -0.0130547 0)
(-0.0250647 -0.0126954 0)
(-0.0223439 -0.0122253 0)
(-0.0197161 -0.0116498 0)
(-0.0172022 -0.0109763 0)
(-0.0148213 -0.0102137 0)
(-0.0125906 -0.00937286 0)
(-0.0105253 -0.0084662 0)
(-0.0086382 -0.00750808 0)
(-0.00693904 -0.00651466 0)
(-0.0054347 -0.00550404 0)
(-0.00412865 -0.00449632 0)
(-0.00302082 -0.00351378 0)
(-0.00210738 -0.00258111 0)
(-0.00138063 -0.00172562 0)
(-0.000828853 -0.000977677 0)
(-0.000436218 -0.00037107 0)
(-0.000182577 5.65458e-05 0)
(-4.51852e-05 0.000263092 0)
(-1.32707e-06 0.000198573 0)
(-3.82496e-05 0.000287398 0)
(-0.000272125 0.00112867 0)
(-0.0007966 0.00214612 0)
(-0.00157329 0.00327026 0)
(-0.00258397 0.00444763 0)
(-0.00381938 0.00563548 0)
(-0.00526775 0.00680036 0)
(-0.00691554 0.00791699 0)
(-0.00874834 0.00896683 0)
(-0.010751 0.00993685 0)
(-0.0129077 0.0108184 0)
(-0.0152023 0.0116064 0)
(-0.0176184 0.0122983 0)
(-0.0201395 0.0128935 0)
(-0.0227491 0.0133931 0)
(-0.025431 0.0137988 0)
(-0.0281691 0.0141129 0)
(-0.0309478 0.014338 0)
(-0.0337515 0.0144769 0)
(-0.0365651 0.0145319 0)
(-0.0393738 0.0145055 0)
(-0.0421627 0.0143996 0)
(-0.0449176 0.0142158 0)
(-0.0476242 0.0139556 0)
(-0.0502686 0.01362 0)
(-0.0528367 0.0132101 0)
(-0.0553151 0.0127266 0)
(-0.0576901 0.0121703 0)
(-0.0599484 0.0115421 0)
(-0.0620771 0.010843 0)
(-0.0640632 0.0100743 0)
(-0.0658944 0.00923762 0)
(-0.0675586 0.00833515 0)
(-0.0690444 0.00736954 0)
(-0.0703409 0.00634405 0)
(-0.0714378 0.00526265 0)
(-0.0723259 0.00413002 0)
(-0.0729967 0.0029516 0)
(-0.0734429 0.00173364 0)
(-0.0736584 0.000483162 0)
(-0.0736384 -0.000792041 0)
(-0.0733796 -0.00208341 0)
(-0.07288 -0.00338171 0)
(-0.0721395 -0.00467704 0)
(-0.0711597 -0.00595896 0)
(-0.0699439 -0.00721656 0)
(-0.0684975 -0.00843862 0)
(-0.0668276 -0.00961367 0)
(-0.0649434 -0.0107302 0)
(-0.062856 -0.0117768 0)
(-0.0605785 -0.0127422 0)
(-0.0581257 -0.0136157 0)
(-0.0555145 -0.0143872 0)
(-0.0527633 -0.0150473 0)
(-0.049892 -0.0155876 0)
(-0.0469223 -0.0160008 0)
(-0.0438765 -0.0162809 0)
(-0.0407785 -0.0164235 0)
(-0.0376526 -0.0164256 0)
(-0.0345236 -0.0162861 0)
(-0.0314166 -0.0160055 0)
(-0.0283564 -0.0155864 0)
(-0.0253674 -0.0150333 0)
(-0.0224732 -0.0143527 0)
(-0.0196963 -0.0135534 0)
(-0.0170575 -0.0126459 0)
(-0.0145757 -0.0116431 0)
(-0.0122679 -0.0105599 0)
(-0.0101481 -0.00941316 0)
(-0.00822785 -0.00822213 0)
(-0.00651526 -0.00700813 0)
(-0.00501514 -0.00579473 0)
(-0.00372868 -0.0046079 0)
(-0.00265327 -0.00347617 0)
(-0.00178241 -0.00243079 0)
(-0.00110569 -0.00150608 0)
(-0.000608583 -0.000739794 0)
(-0.000272339 -0.000173388 0)
(-7.71544e-05 0.000147529 0)
(-6.2419e-06 0.000169921 0)
(-4.55997e-05 0.000436223 0)
(-0.00031887 0.00155993 0)
(-0.000925568 0.00284618 0)
(-0.00181623 0.00422597 0)
(-0.00296581 0.00564563 0)
(-0.00436085 0.00706185 0)
(-0.00598584 0.00844052 0)
(-0.00782402 0.00975563 0)
(-0.00985836 0.010988 0)
(-0.0120715 0.0121241 0)
(-0.014446 0.013155 0)
(-0.016964 0.0140753 0)
(-0.019608 0.0148825 0)
(-0.0223601 0.0155761 0)
(-0.0252032 0.0161572 0)
(-0.0281199 0.0166277 0)
(-0.0310934 0.0169903 0)
(-0.0341071 0.017248 0)
(-0.0371447 0.0174036 0)
(-0.0401902 0.01746 0)
(-0.043228 0.0174197 0)
(-0.0462426 0.017285 0)
(-0.0492188 0.0170576 0)
(-0.0521416 0.0167393 0)
(-0.0549961 0.0163312 0)
(-0.0577677 0.0158346 0)
(-0.0604418 0.0152504 0)
(-0.0630043 0.0145796 0)
(-0.0654409 0.0138232 0)
(-0.0677379 0.0129826 0)
(-0.0698817 0.0120594 0)
(-0.0718591 0.0110557 0)
(-0.0736574 0.00997408 0)
(-0.0752645 0.00881774 0)
(-0.0766688 0.00759068 0)
(-0.0778596 0.00629765 0)
(-0.0788268 0.00494425 0)
(-0.0795616 0.00353696 0)
(-0.0800563 0.00208318 0)
(-0.0803041 0.00059121 0)
(-0.0803 -0.000929729 0)
(-0.0800403 -0.00246957 0)
(-0.0795227 -0.00401742 0)
(-0.0787471 -0.00556166 0)
(-0.0777148 -0.00709003 0)
(-0.0764291 -0.00858973 0)
(-0.0748954 -0.0100476 0)
(-0.073121 -0.0114501 0)
(-0.0711154 -0.0127837 0)
(-0.0688899 -0.0140351 0)
(-0.066458 -0.0151911 0)
(-0.0638354 -0.016239 0)
(-0.0610393 -0.0171668 0)
(-0.0580892 -0.0179635 0)
(-0.0550059 -0.0186191 0)
(-0.051812 -0.019125 0)
(-0.0485313 -0.0194741 0)
(-0.0451888 -0.0196608 0)
(-0.0418104 -0.0196818 0)
(-0.0384223 -0.0195353 0)
(-0.0350513 -0.019222 0)
(-0.031724 -0.0187447 0)
(-0.0284666 -0.0181085 0)
(-0.0253043 -0.017321 0)
(-0.0222615 -0.0163922 0)
(-0.0193609 -0.0153344 0)
(-0.0166233 -0.0141625 0)
(-0.0140673 -0.0128938 0)
(-0.0117087 -0.0115481 0)
(-0.00956071 -0.0101475 0)
(-0.00763299 -0.00871672 0)
(-0.00593193 -0.00728285 0)
(-0.00446018 -0.00587559 0)
(-0.00321659 -0.00452731 0)
(-0.00219609 -0.00327319 0)
(-0.00138976 -0.00215143 0)
(-0.000784604 -0.00120357 0)
(-0.000363356 -0.000474599 0)
(-0.000109175 -1.32546e-05 0)
(-1.10278e-05 0.000124982 0)
(-5.26773e-05 0.000608541 0)
(-0.000364323 0.0020548 0)
(-0.00105158 0.00364361 0)
(-0.00205435 0.00530713 0)
(-0.00334103 0.00699221 0)
(-0.00489393 0.00865572 0)
(-0.00669379 0.0102635 0)
(-0.00872055 0.0117895 0)
(-0.0109545 0.0132144 0)
(-0.0133759 0.0145245 0)
(-0.0159655 0.0157109 0)
(-0.0187039 0.0167684 0)
(-0.0215721 0.0176944 0)
(-0.0245514 0.0184888 0)
(-0.0276233 0.0191529 0)
(-0.0307698 0.019689 0)
(-0.0339732 0.0201001 0)
(-0.0372161 0.0203893 0)
(-0.0404815 0.0205601 0)
(-0.0437527 0.0206153 0)
(-0.0470133 0.020558 0)
(-0.0502472 0.0203904 0)
(-0.0534385 0.0201148 0)
(-0.0565714 0.0197329 0)
(-0.0596304 0.0192462 0)
(-0.0626001 0.0186559 0)
(-0.0654653 0.0179632 0)
(-0.0682111 0.0171694 0)
(-0.0708226 0.0162757 0)
(-0.0732853 0.0152838 0)
(-0.075585 0.0141955 0)
(-0.0777078 0.0130134 0)
(-0.0796404 0.0117407 0)
(-0.08137 0.010381 0)
(-0.0828844 0.00893916 0)
(-0.0841723 0.00742071 0)
(-0.0852231 0.00583218 0)
(-0.0860273 0.00418116 0)
(-0.0865768 0.00247621 0)
(-0.0868644 0.000726998 0)
(-0.0868845 -0.00105583 0)
(-0.086633 -0.00286062 0)
(-0.0861074 -0.0046748 0)
(-0.085307 -0.00648494 0)
(-0.0842332 -0.00827688 0)
(-0.0828889 -0.0100359 0)
(-0.0812795 -0.0117466 0)
(-0.0794122 -0.0133937 0)
(-0.0772965 -0.0149613 0)
(-0.0749441 -0.0164341 0)
(-0.0723688 -0.0177967 0)
(-0.0695864 -0.0190344 0)
(-0.066615 -0.0201334 0)
(-0.0634746 -0.0210808 0)
(-0.0601868 -0.0218648 0)
(-0.0567753 -0.0224754 0)
(-0.053265 -0.0229042 0)
(-0.0496821 -0.0231445 0)
(-0.0460539 -0.0231922 0)
(-0.0424082 -0.0230452 0)
(-0.0387734 -0.0227038 0)
(-0.0351778 -0.0221712 0)
(-0.0316494 -0.021453 0)
(-0.0282155 -0.0205578 0)
(-0.0249023 -0.0194968 0)
(-0.0217345 -0.0182842 0)
(-0.0187347 -0.0169368 0)
(-0.0159236 -0.0154745 0)
(-0.013319 -0.0139197 0)
(-0.0109358 -0.0122979 0)
(-0.00878555 -0.0106369 0)
(-0.00687638 -0.00896749 0)
(-0.00521264 -0.00732318 0)
(-0.00379481 -0.00574019 0)
(-0.00261949 -0.00425761 0)
(-0.0016794 -0.00291748 0)
(-0.000963153 -0.00176501 0)
(-0.000455034 -0.00084856 0)
(-0.000141062 -0.000219732 0)
(-1.56716e-05 6.38743e-05 0)
(-5.94961e-05 0.000803646 0)
(-0.000408427 0.00261173 0)
(-0.00117429 0.00453643 0)
(-0.00228683 0.00651157 0)
(-0.00370809 0.00848516 0)
(-0.0054163 0.0104149 0)
(-0.00738841 0.0122671 0)
(-0.00960108 0.0140163 0)
(-0.0120318 0.0156434 0)
(-0.0146585 0.0171352 0)
(-0.01746 0.018483 0)
(-0.0204153 0.019682 0)
(-0.0235039 0.02073 0)
(-0.0267061 0.0216273 0)
(-0.0300024 0.0223756 0)
(-0.0333738 0.0229776 0)
(-0.0368019 0.0234366 0)
(-0.0402687 0.0237563 0)
(-0.0437564 0.0239403 0)
(-0.0472477 0.0239919 0)
(-0.0507256 0.0239143 0)
(-0.0541733 0.0237102 0)
(-0.0575744 0.0233818 0)
(-0.0609125 0.0229312 0)
(-0.0641714 0.02236 0)
(-0.0673352 0.0216696 0)
(-0.070388 0.0208614 0)
(-0.0733143 0.0199369 0)
(-0.0760987 0.0188975 0)
(-0.0787259 0.0177451 0)
(-0.0811811 0.016482 0)
(-0.08345 0.0151112 0)
(-0.0855185 0.0136363 0)
(-0.0873732 0.0120618 0)
(-0.0890014 0.010393 0)
(-0.0903911 0.00863638 0)
(-0.0915312 0.00679943 0)
(-0.0924117 0.0048908 0)
(-0.0930237 0.00292032 0)
(-0.0933596 0.000898977 0)
(-0.0934133 -0.00116109 0)
(-0.0931801 -0.0032466 0)
(-0.0926572 -0.00534326 0)
(-0.0918435 -0.0074358 0)
(-0.0907396 -0.0095081 0)
(-0.0893486 -0.0115433 0)
(-0.0876753 -0.0135242 0)
(-0.0857269 -0.015433 0)
(-0.0835127 -0.0172518 0)
(-0.0810445 -0.0189628 0)
(-0.0783361 -0.0205488 0)
(-0.0754037 -0.0219927 0)
(-0.0722657 -0.0232786 0)
(-0.0689427 -0.0243917 0)
(-0.0654572 -0.0253184 0)
(-0.0618334 -0.0260469 0)
(-0.0580975 -0.0265673 0)
(-0.0542768 -0.026872 0)
(-0.0504001 -0.0269558 0)
(-0.0464966 -0.0268158 0)
(-0.0425964 -0.0264525 0)
(-0.0387297 -0.0258687 0)
(-0.0349263 -0.0250708 0)
(-0.0312156 -0.0240681 0)
(-0.0276258 -0.0228733 0)
(-0.0241837 -0.021502 0)
(-0.0209142 -0.0199733 0)
(-0.0178399 -0.0183095 0)
(-0.014981 -0.0165359 0)
(-0.0123542 -0.014681 0)
(-0.00997334 -0.0127761 0)
(-0.00784838 -0.0108557 0)
(-0.00598562 -0.0089571 0)
(-0.00438738 -0.00712039 0)
(-0.00305205 -0.00538862 0)
(-0.00197414 -0.00380768 0)
(-0.00114394 -0.00242641 0)
(-0.000547251 -0.00129646 0)
(-0.000172807 -0.000472207 0)
(-2.0187e-05 -1.32577e-05 0)
(-6.60685e-05 0.00102082 0)
(-0.000451153 0.00322902 0)
(-0.00129348 0.0055223 0)
(-0.00251308 0.00783663 0)
(-0.00406591 0.0101216 0)
(-0.00592621 0.0123363 0)
(-0.00806726 0.0144483 0)
(-0.0104624 0.0164328 0)
(-0.0130863 0.0182718 0)
(-0.0159148 0.0199528 0)
(-0.0189243 0.0214677 0)
(-0.0220924 0.0228123 0)
(-0.0253973 0.0239852 0)
(-0.028818 0.0249873 0)
(-0.032334 0.0258206 0)
(-0.0359256 0.0264885 0)
(-0.0395735 0.0269949 0)
(-0.043259 0.0273438 0)
(-0.0469639 0.0275391 0)
(-0.0506703 0.0275846 0)
(-0.0543605 0.0274836 0)
(-0.0580174 0.0272393 0)
(-0.0616238 0.026854 0)
(-0.065163 0.0263299 0)
(-0.0686182 0.0256689 0)
(-0.071973 0.0248726 0)
(-0.075211 0.0239424 0)
(-0.0783162 0.0228801 0)
(-0.0812724 0.0216873 0)
(-0.0840641 0.0203663 0)
(-0.0866758 0.0189197 0)
(-0.0890926 0.0173509 0)
(-0.0912998 0.0156639 0)
(-0.0932835 0.013864 0)
(-0.0950304 0.0119571 0)
(-0.0965279 0.00995057 0)
(-0.0977643 0.00785287 0)
(-0.0987289 0.00567375 0)
(-0.0994123 0.00342425 0)
(-0.0998063 0.00111672 0)
(-0.0999041 -0.00123519 0)
(-0.0997005 -0.00361658 0)
(-0.0991919 -0.00601138 0)
(-0.0983768 -0.00840244 0)
(-0.0972553 -0.0107717 0)
(-0.0958299 -0.0131001 0)
(-0.0941051 -0.0153683 0)
(-0.0920877 -0.0175562 0)
(-0.0897868 -0.0196437 0)
(-0.0872138 -0.0216107 0)
(-0.0843828 -0.0234374 0)
(-0.0813099 -0.0251048 0)
(-0.0780138 -0.0265944 0)
(-0.0745155 -0.0278894 0)
(-0.0708381 -0.0289742 0)