/*--------------------------------*- C++ -*----------------------------------*\
  =========                 |
  \\      /  F ield         | OpenFOAM: The Open Source CFD Toolbox
   \\    /   O peration     | Website:  https://openfoam.org
    \\  /    A nd           | Version:  7
     \\/     M anipulation  |
\*---------------------------------------------------------------------------*/
FoamFile
{
    version     2.0;
    format      ascii;
    class       volScalarField;
    location    "3.75";
    object      p;
}
// * * * * * * * * * * * * * * * * * * * * * * * * * * * * * * * * * * * * * //

dimensions      [0 2 -2 0 0 0 0];

internalField   nonuniform List<scalar> 
6400
(
6.47669e-07
1.61961e-05
6.14549e-06
-3.30418e-05
-9.91556e-05
-0.000188854
-0.000298456
-0.000424576
-0.000564446
-0.00071596
-0.000877591
-0.00104826
-0.00122719
-0.00141378
-0.00160748
-0.00180767
-0.00201362
-0.00222439
-0.00243879
-0.00265534
-0.00287225
-0.00308743
-0.00329843
-0.00350254
-0.00369675
-0.00387779
-0.00404224
-0.00418653
-0.00430707
-0.00440031
-0.00446288
-0.00449172
-0.00448417
-0.00443818
-0.00435235
-0.00422618
-0.0040601
-0.00385561
-0.00361537
-0.00334323
-0.00304424
-0.0027244
-0.00239116
-0.00205259
-0.00171753
-0.00139532
-0.00109544
-0.000827252
-0.000599643
-0.000420669
-0.000297239
-0.000234815
-0.000237162
-0.000306168
-0.000441746
-0.000641814
-0.000902373
-0.00121767
-0.00158056
-0.00198248
-0.00241423
-0.00286611
-0.00332834
-0.00379141
-0.00424641
-0.00468528
-0.00510094
-0.00548741
-0.00583982
-0.00615434
-0.00642806
-0.00665883
-0.00684514
-0.00698602
-0.00708111
-0.00713106
-0.00713853
-0.0071102
-0.00705906
-0.0070042
-1.44232e-05
7.81631e-07
-1.1124e-05
-4.87938e-05
-0.000109066
-0.000189767
-0.000288411
-0.000402498
-0.000529863
-0.000668757
-0.00081783
-0.000976063
-0.00114268
-0.00131704
-0.00149856
-0.0016866
-0.00188044
-0.00207918
-0.0022817
-0.00248665
-0.0026924
-0.00289703
-0.00309835
-0.00329387
-0.00348084
-0.0036563
-0.00381708
-0.00395991
-0.00408144
-0.00417837
-0.00424756
-0.00428608
-0.00429142
-0.00426155
-0.00419511
-0.00409147
-0.00395092
-0.00377473
-0.00356524
-0.00332592
-0.00306133
-0.00277704
-0.00247976
-0.00217701
-0.00187699
-0.00158834
-0.00131989
-0.00108034
-0.000877966
-0.00072027
-0.000613678
-0.000563261
-0.000572505
-0.000643134
-0.000775025
-0.000966198
-0.00121289
-0.00150972
-0.00184994
-0.00222573
-0.00262845
-0.00304916
-0.00347883
-0.00390875
-0.00433075
-0.00473747
-0.0051225
-0.00548043
-0.00580693
-0.00609861
-0.00635301
-0.00656845
-0.00674393
-0.00687906
-0.00697414
-0.00703037
-0.00705059
-0.00704004
-0.0070041
-0.0069492
-3.8205e-06
1.23179e-05
-3.44187e-07
-3.74563e-05
-9.47605e-05
-0.000170352
-0.000262221
-0.00036834
-0.000486939
-0.000616575
-0.000756119
-0.000904697
-0.00106163
-0.00122635
-0.00139832
-0.00157699
-0.00176168
-0.00195161
-0.00214575
-0.0023429
-0.00254157
-0.00274001
-0.0029362
-0.00312785
-0.0033124
-0.00348706
-0.00364883
-0.00379459
-0.00392111
-0.00402518
-0.00410369
-0.00415373
-0.00417273
-0.00415857
-0.00410975
-0.00402547
-0.00390577
-0.00375165
-0.00356517
-0.00334943
-0.00310859
-0.00284811
-0.00257417
-0.00229395
-0.00201532
-0.00174661
-0.00149636
-0.00127304
-0.00108467
-0.000938567
-0.000841014
-0.000796962
-0.000809815
-0.000881259
-0.00101117
-0.0011976
-0.00143686
-0.0017237
-0.00205152
-0.00241268
-0.0027989
-0.00320142
-0.00361163
-0.00402116
-0.00442227
-0.00480803
-0.00517246
-0.00551064
-0.00581865
-0.00609359
-0.00633344
-0.00653694
-0.00670353
-0.00683318
-0.0069264
-0.00698428
-0.00700908
-0.0070042
-0.00696833
-0.00689822
3.74968e-05
5.02321e-05
3.48201e-05
-3.52984e-06
-6.02269e-05
-0.000133361
-0.000221157
-0.000321865
-0.000434035
-0.000556521
-0.000688441
-0.000829132
-0.000978085
-0.00113488
-0.00129913
-0.00147039
-0.00164813
-0.0018317
-0.00202023
-0.00221264
-0.00240763
-0.0026036
-0.00279868
-0.00299073
-0.00317733
-0.00335577
-0.00352317
-0.00367641
-0.00381228
-0.00392753
-0.00401894
-0.00408348
-0.0041184
-0.00412135
-0.00409058
-0.004025
-0.00392438
-0.00378941
-0.00362184
-0.0034245
-0.00320126
-0.00295733
-0.00269871
-0.00243243
-0.00216623
-0.00190836
-0.00166733
-0.00145159
-0.00126923
-0.00112761
-0.00103308
-0.000990682
-0.00100389
-0.00107447
-0.00120232
-0.00138554
-0.00162043
-0.00190174
-0.00222284
-0.00257608
-0.00295312
-0.00334531
-0.00374403
-0.00414104
-0.00452878
-0.00490055
-0.00525066
-0.00557452
-0.00586863
-0.0061305
-0.00635855
-0.00655197
-0.00671055
-0.00683453
-0.00692445
-0.00698108
-0.00700589
-0.00700065
-0.00695904
-0.00687127
0.000108584
0.000112086
9.06771e-05
4.89448e-05
-9.07486e-06
-8.15345e-05
-0.00016686
-0.00026363
-0.000370725
-0.000487311
-0.000612792
-0.000746763
-0.000888944
-0.00103912
-0.00119709
-0.00136261
-0.00153533
-0.00171476
-0.00190022
-0.00209081
-0.0022854
-0.00248254
-0.00268052
-0.0028773
-0.00307055
-0.00325762
-0.00343559
-0.00360132
-0.00375149
-0.00388269
-0.00399149
-0.0040746
-0.00412899
-0.00415198
-0.00414147
-0.00409602
-0.00401505
-0.00389892
-0.00374907
-0.00356807
-0.00335957
-0.00312855
-0.00288094
-0.00262369
-0.00236453
-0.00211179
-0.00187407
-0.00165999
-0.00147782
-0.00133514
-0.00123853
-0.00119325
-0.00120298
-0.00126965
-0.0013933
-0.00157208
-0.00180232
-0.00207872
-0.00239457
-0.00274211
-0.00311284
-0.003498
-0.00388886
-0.00427713
-0.00465525
-0.0050166
-0.00535568
-0.00566813
-0.00595079
-0.00620155
-0.00641925
-0.00660348
-0.00675442
-0.00687255
-0.00695846
-0.00701265
-0.00703602
-0.00702912
-0.00698244
-0.00688218
0.000206818
0.000195982
0.00016544
0.00011821
5.7052e-05
-1.637e-05
-0.000100731
-0.000194988
-0.000298395
-0.000410469
-0.000530942
-0.000659706
-0.000796757
-0.00094214
-0.00109589
-0.001258
-0.00142834
-0.00160663
-0.00179242
-0.001985
-0.0021834
-0.00238634
-0.00259222
-0.00279907
-0.00300458
-0.00320608
-0.00340055
-0.0035847
-0.00375499
-0.00390773
-0.00403917
-0.00414565
-0.00422373
-0.00427033
-0.00428292
-0.00425966
-0.00419955
-0.0041026
-0.00396994
-0.00380395
-0.00360797
-0.0033869
-0.00314659
-0.00289399
-0.00263695
-0.00238391
-0.00214371
-0.00192523
-0.00173705
-0.00158712
-0.00148238
-0.00142846
-0.00142937
-0.00148733
-0.00160264
-0.00177362
-0.00199667
-0.00226649
-0.00257628
-0.00291813
-0.00328335
-0.00366293
-0.00404792
-0.00442985
-0.00480101
-0.00515472
-0.0054855
-0.00578915
-0.00606271
-0.00630439
-0.00651337
-0.00668964
-0.0068337
-0.00694633
-0.00702822
-0.00707978
-0.00710151
-0.00709329
-0.00704393
-0.00693778
0.0003284
0.000298954
0.000256635
0.000202011
0.000136069
6.02225e-05
-2.45621e-05
-0.000117694
-0.00021886
-0.000327976
-0.000445141
-0.000570587
-0.000704629
-0.00084761
-0.000999853
-0.00116162
-0.00133304
-0.0015141
-0.00170456
-0.00190393
-0.00211141
-0.00232585
-0.00254572
-0.00276908
-0.00299357
-0.00321638
-0.00343433
-0.00364383
-0.00384101
-0.0040218
-0.004182
-0.00431748
-0.0044243
-0.00449889
-0.00453822
-0.00453999
-0.00450277
-0.00442614
-0.00431101
-0.00415966
-0.0039746
-0.00376116
-0.00352503
-0.0032732
-0.00301363
-0.00275497
-0.00250636
-0.00227703
-0.00207599
-0.00191165
-0.00179147
-0.00172158
-0.00170651
-0.00174893
-0.00184955
-0.00200697
-0.00221784
-0.00247692
-0.00277741
-0.00311126
-0.00346957
-0.00384305
-0.00422245
-0.00459897
-0.00496465
-0.0053126
-0.00563723
-0.00593432
-0.00620101
-0.00643568
-0.00663781
-0.00680768
-0.00694612
-0.00705418
-0.00713275
-0.00718225
-0.00720307
-0.00719474
-0.00714565
-0.00703983
0.000468709
0.000417258
0.000360862
0.000297244
0.000225199
0.000145697
5.92577e-05
-3.40727e-05
-0.000134482
-0.000242339
-0.000358152
-0.000482536
-0.000616159
-0.000759703
-0.000913812
-0.00107905
-0.00125586
-0.00144449
-0.00164494
-0.00185693
-0.00207981
-0.00231255
-0.00255362
-0.00280105
-0.00305234
-0.00330445
-0.00355389
-0.00379671
-0.00402858
-0.00424491
-0.00444097
-0.00461207
-0.00475366
-0.00486162
-0.00493237
-0.00496308
-0.00495185
-0.00489787
-0.0048018
-0.00466615
-0.00449091
-0.00428357
-0.00404929
-0.00379493
-0.00352858
-0.00325913
-0.00299603
-0.00274895
-0.00252741
-0.00234041
-0.00219605
-0.00210114
-0.0020609
-0.00207868
-0.00215574
-0.00229125
-0.0024822
-0.00272364
-0.00300887
-0.00332979
-0.00367735
-0.00404196
-0.00441403
-0.00478437
-0.00514463
-0.00548757
-0.00580735
-0.00609956
-0.0063613
-0.006591
-0.00678827
-0.00695362
-0.00708813
-0.00719312
-0.00726968
-0.00731841
-0.00733971
-0.00733307
-0.00728728
-0.00718716
0.000622642
0.000546381
0.000474081
0.000400235
0.000321023
0.000236839
0.000147633
5.28025e-05
-4.84192e-05
-0.000156908
-0.000273631
-0.00039962
-0.000535935
-0.000683627
-0.000843695
-0.00101704
-0.00120443
-0.00140638
-0.00162316
-0.00185468
-0.00210041
-0.00235937
-0.00263001
-0.00291021
-0.00319723
-0.00348773
-0.00377779
-0.00406296
-0.00433836
-0.0045988
-0.00483889
-0.00505329
-0.00523681
-0.00538466
-0.00549267
-0.00555743
-0.00557654
-0.00554874
-0.00547387
-0.00535276
-0.00519051
-0.00498938
-0.00475545
-0.00449587
-0.00421885
-0.00393351
-0.00364964
-0.00337737
-0.00312681
-0.00290767
-0.00272883
-0.00259797
-0.0025212
-0.00250275
-0.00254477
-0.00264716
-0.00280757
-0.00302153
-0.00328264
-0.00358292
-0.00391326
-0.00426384
-0.0046247
-0.00498623
-0.00533958
-0.00567704
-0.00599235
-0.00628075
-0.00653911
-0.00676573
-0.00696022
-0.00712319
-0.00725586
-0.00735975
-0.00743619
-0.00748597
-0.00750962
-0.00750671
-0.00746707
-0.00737693
0.000784535
0.000681183
0.000591583
0.000506588
0.000419397
0.000329672
0.000236659
0.000138997
3.52604e-05
-7.59946e-05
-0.000196238
-0.000326956
-0.000469631
-0.000625714
-0.000796586
-0.000983513
-0.00118758
-0.00140961
-0.0016501
-0.00190914
-0.00218628
-0.00248052
-0.00279022
-0.003113
-0.00344582
-0.0037849
-0.0041258
-0.00446346
-0.00479234
-0.00510654
-0.00539998
-0.00566654
-0.00590034
-0.00609588
-0.0062483
-0.00635356
-0.00640867
-0.00641184
-0.00636247
-0.00626115
-0.00611144
-0.00591661
-0.00568227
-0.0054154
-0.00512422
-0.00481802
-0.00450693
-0.00420156
-0.00391266
-0.00365073
-0.00342557
-0.00324593
-0.00311904
-0.00305031
-0.00304301
-0.00309814
-0.00321431
-0.00338782
-0.00361285
-0.00388178
-0.00418558
-0.00451433
-0.00485777
-0.00520581
-0.00554904
-0.00587917
-0.00618932
-0.00647422
-0.00673029
-0.00695552
-0.00714932
-0.00731221
-0.00744544
-0.00755063
-0.00762925
-0.00768231
-0.00771046
-0.00771347
-0.00768245
-0.00760552
0.000948165
0.000815875
0.00070795
0.000611171
0.000515398
0.000419391
0.000321553
0.000219651
0.000111514
-4.92363e-06
-0.000131679
-0.00027073
-0.000424011
-0.000593398
-0.000780677
-0.000987487
-0.00121525
-0.00146508
-0.00173769
-0.00203329
-0.00235147
-0.00269115
-0.00305046
-0.00342674
-0.0038165
-0.00421542
-0.00461842
-0.00501978
-0.00541319
-0.00579197
-0.00614923
-0.00647806
-0.00677177
-0.00702411
-0.00722944
-0.00738303
-0.00748119
-0.00752149
-0.00750273
-0.00742505
-0.00729136
-0.00710461
-0.00687013
-0.00659468
-0.00628643
-0.00595477
-0.00561009
-0.00526346
-0.00492631
-0.00460999
-0.00432538
-0.00408245
-0.0038898
-0.0037543
-0.00368071
-0.00367146
-0.0037265
-0.00384331
-0.004017
-0.00424059
-0.00450542
-0.00480165
-0.00511879
-0.00544633
-0.00577425
-0.00609354
-0.00639656
-0.00667733
-0.00693157
-0.00715673
-0.0073518
-0.00751696
-0.00765335
-0.0077625
-0.00784595
-0.00790479
-0.0079398
-0.00795088
-0.00793061
-0.00786916
0.00110656
0.000943998
0.00081706
0.000708103
0.000603307
0.000500344
0.000396632
0.000288951
0.00017431
4.99597e-05
-8.6704e-05
-0.000238182
-0.000406891
-0.000595157
-0.000805183
-0.00103899
-0.00129834
-0.00158462
-0.0018987
-0.00224088
-0.00261072
-0.00300697
-0.00342747
-0.00386914
-0.00432795
-0.00479895
-0.00527636
-0.00575365
-0.00622369
-0.00667895
-0.00711167
-0.00751406
-0.00787857
-0.00819809
-0.00846618
-0.00867728
-0.00882692
-0.0089119
-0.00893036
-0.00888197
-0.00876843
-0.00859263
-0.00835937
-0.00807506
-0.00774767
-0.00738658
-0.00700237
-0.0066065
-0.00621106
-0.00582828
-0.00547022
-0.00514823
-0.0048725
-0.00465165
-0.0044923
-0.00439872
-0.00437265
-0.00441318
-0.00451679
-0.00467759
-0.00488762
-0.00513739
-0.00541638
-0.00571374
-0.00601883
-0.00632183
-0.0066142
-0.00688897
-0.00714097
-0.00736681
-0.00756477
-0.0077345
-0.00787669
-0.00799264
-0.00808372
-0.00815104
-0.00819536
-0.00821663
-0.00820891
-0.00816441
0.00125223
0.00105845
0.000912111
0.000790781
0.000676627
0.000566048
0.000455329
0.000340162
0.000216658
8.13326e-05
-6.90459e-05
-0.000237534
-0.000427054
-0.0006404
-0.000880208
-0.00114888
-0.0014485
-0.00178068
-0.00214645
-0.00254611
-0.0029791
-0.00344392
-0.00393803
-0.00445783
-0.00499867
-0.00555488
-0.00611986
-0.00668622
-0.00724595
-0.00779057
-0.00831137
-0.00879966
-0.00924693
-0.00964514
-0.00998695
-0.0102659
-0.0104766
-0.010615
-0.0106785
-0.010666
-0.0105782
-0.0104175
-0.010188
-0.0098957
-0.00954824
-0.0091548
-0.00872602
-0.00827365
-0.00781035
-0.00734925
-0.00690357
-0.00648617
-0.00610902
-0.00578276
-0.0055162
-0.0053159
-0.00518587
-0.00512733
-0.00513871
-0.00521566
-0.00535145
-0.00553728
-0.00576294
-0.00601737
-0.00628941
-0.00656836
-0.00684462
-0.00711003
-0.00735824
-0.0075847
-0.00778667
-0.00796294
-0.00811348
-0.00823905
-0.00834068
-0.00841925
-0.00847535
-0.00850887
-0.0085152
-0.00848853
0.00137699
0.00115152
0.000985679
0.000851931
0.000728143
0.000609248
0.000490269
0.000365704
0.000230703
8.09988e-05
-8.73044e-05
-0.000277847
-0.000494082
-0.000739285
-0.00101653
-0.0013286
-0.00167786
-0.00206612
-0.0024945
-0.00296323
-0.00347157
-0.00401766
-0.00459849
-0.00520986
-0.00584638
-0.00650158
-0.00716798
-0.00783725
-0.0085004
-0.00914796
-0.00977023
-0.0103575
-0.0109002
-0.0113894
-0.0118166
-0.0121745
-0.0124567
-0.0126582
-0.0127755
-0.0128064
-0.0127509
-0.0126105
-0.0123887
-0.0120907
-0.0117236
-0.0112963
-0.0108193
-0.0103046
-0.00976514
-0.00921487
-0.00866817
-0.00813939
-0.00764241
-0.00719009
-0.00679373
-0.00646259
-0.00620347
-0.0060203
-0.00591404
-0.00588259
-0.00592097
-0.00602166
-0.00617514
-0.00637048
-0.00659613
-0.00684054
-0.00709293
-0.00734375
-0.00758515
-0.00781109
-0.00801743
-0.0082017
-0.00836283
-0.00850072
-0.00861575
-0.00870832
-0.00877865
-0.00882638
-0.00884809
-0.0088397
0.00147216
0.00121499
0.0010298
0.000883708
0.000750018
0.000622031
0.000493376
0.000357278
0.000207866
4.00484e-05
-0.000150767
-0.000368831
-0.000618143
-0.000902475
-0.00122533
-0.00158986
-0.00199868
-0.00245376
-0.00295621
-0.00350615
-0.00410254
-0.00474309
-0.00542421
-0.00614099
-0.00688726
-0.00765564
-0.00843767
-0.00922404
-0.0100047
-0.0107691
-0.0115065
-0.012206
-0.0128571
-0.0134497
-0.0139744
-0.0144226
-0.014787
-0.0150616
-0.0152417
-0.0153245
-0.0153086
-0.0151948
-0.0149856
-0.0146854
-0.0143008
-0.01384
-0.0133132
-0.0127323
-0.0121105
-0.0114622
-0.0108029
-0.0101484
-0.00951432
-0.00891591
-0.00836719
-0.00788048
-0.00746579
-0.00713039
-0.00687846
-0.00671085
-0.0066251
-0.00661564
-0.00667424
-0.00679058
-0.00695298
-0.0071492
-0.00736723
-0.00759595
-0.00782568
-0.00804854
-0.00825856
-0.00845159
-0.00862509
-0.00877769
-0.00890878
-0.009018
-0.00910494
-0.00916876
-0.00920708
-0.00921719
0.00152862
0.00124023
0.00103611
0.000877817
0.000733935
0.000595967
0.000456044
0.000306048
0.000139039
-5.09317e-05
-0.00026918
-0.000520589
-0.000809719
-0.00114084
-0.00151789
-0.00194433
-0.00242302
-0.00295601
-0.00354435
-0.00418792
-0.00488532
-0.00563372
-0.00642887
-0.00726506
-0.00813522
-0.00903097
-0.00994283
-0.0108604
-0.0117724
-0.0126673
-0.0135332
-0.0143579
-0.01513
-0.015838
-0.0164716
-0.017021
-0.017478
-0.0178354
-0.0180875
-0.0182304
-0.0182618
-0.0181814
-0.0179908
-0.0176935
-0.0172952
-0.0168033
-0.0162275
-0.0155792
-0.0148717
-0.0141197
-0.0133393
-0.0125474
-0.0117616
-0.0109992
-0.0102771
-0.00961092
-0.00901422
-0.00849817
-0.00807085
-0.00773688
-0.00749716
-0.00734896
-0.00728613
-0.00729958
-0.00737805
-0.00750886
-0.00767885
-0.00787521
-0.0080862
-0.00830167
-0.00851334
-0.0087149
-0.00890183
-0.00907107
-0.0092206
-0.00934894
-0.00945478
-0.00953657
-0.00959248
-0.00962139
0.00153704
0.00121839
0.000995962
0.000825685
0.00067127
0.000522304
0.000369337
0.000202856
1.4821e-05
-0.000201603
-0.000452476
-0.000743326
-0.00107929
-0.00146513
-0.00190519
-0.00240324
-0.00296229
-0.00358442
-0.00427054
-0.00502022
-0.00583156
-0.00670112
-0.00762387
-0.00859319
-0.00960102
-0.0106379
-0.0116932
-0.0127554
-0.013812
-0.0148501
-0.0158567
-0.0168186
-0.0177228
-0.0185571
-0.0193097
-0.0199702
-0.0205289
-0.0209778
-0.0213102
-0.0215211
-0.0216073
-0.0215675
-0.0214021
-0.0211138
-0.020707
-0.0201886
-0.0195671
-0.0188535
-0.0180606
-0.017203
-0.016297
-0.0153605
-0.0144124
-0.013472
-0.0125588
-0.0116918
-0.0108884
-0.0101641
-0.0095314
-0.00899959
-0.00857388
-0.00825535
-0.00804092
-0.00792369
-0.00789349
-0.00793776
-0.00804243
-0.00819303
-0.00837552
-0.00857709
-0.00878671
-0.00899532
-0.00919586
-0.00938306
-0.00955298
-0.00970266
-0.00982952
-0.00993105
-0.0100058
-0.0100538
0.00148804
0.00114056
0.000900689
0.000718658
0.000553301
0.00039219
0.000224228
3.84811e-05
-0.000174213
-0.00042159
-0.000710465
-0.00104703
-0.00143699
-0.0018856
-0.00239757
-0.00297694
-0.00362682
-0.00434924
-0.00514485
-0.00601283
-0.0069507
-0.00795425
-0.00901758
-0.0101331
-0.0112915
-0.0124824
-0.0136936
-0.0149125
-0.0161253
-0.0173178
-0.0184757
-0.0195845
-0.0206303
-0.0215995
-0.0224794
-0.0232585
-0.0239263
-0.0244737
-0.0248932
-0.0251789
-0.0253265
-0.025334
-0.0252006
-0.024928
-0.0245197
-0.0239811
-0.0233202
-0.0225466
-0.0216724
-0.0207118
-0.0196809
-0.0185978
-0.0174822
-0.0163551
-0.0152383
-0.0141538
-0.0131228
-0.0121653
-0.011299
-0.0105383
-0.0098937
-0.00937129
-0.00897224
-0.00869293
-0.00852538
-0.00845786
-0.008476
-0.00856381
-0.0087049
-0.00888352
-0.00908533
-0.00929794
-0.00951115
-0.00971681
-0.00990857
-0.0100815
-0.0102313
-0.0103543
-0.0104492
-0.0105169
0.00137241
0.000998045
0.000741762
0.000548228
0.000371451
0.000196918
1.18613e-05
-0.000196088
-0.000437216
-0.000720165
-0.00105252
-0.00144112
-0.00189225
-0.00241162
-0.0030043
-0.00367452
-0.00442543
-0.0052589
-0.00617526
-0.00717315
-0.00824939
-0.00939892
-0.0106148
-0.0118883
-0.013209
-0.014565
-0.0159429
-0.0173287
-0.0187071
-0.0200628
-0.0213799
-0.022643
-0.0238368
-0.0249468
-0.0259594
-0.0268621
-0.0276436
-0.0282941
-0.0288053
-0.0291707
-0.0293852
-0.0294457
-0.0293507
-0.0291008
-0.0286985
-0.028148
-0.0274559
-0.0266308
-0.0256836
-0.0246273
-0.0234775
-0.0222519
-0.0209703
-0.0196547
-0.0183285
-0.0170162
-0.0157427
-0.0145322
-0.0134078
-0.0123897
-0.0114945
-0.0107343
-0.0101159
-0.00964031
-0.00930311
-0.00909457
-0.0090008
-0.00900485
-0.00908811
-0.00923167
-0.00941747
-0.00962917
-0.00985269
-0.0100764
-0.0102908
-0.0104884
-0.010663
-0.0108092
-0.0109256
-0.0110141
0.00118139
0.000782522
0.000511056
0.00030628
0.000117533
-7.18e-05
-0.000276166
-0.000509353
-0.000782762
-0.00110593
-0.00148721
-0.0019341
-0.00245343
-0.00305135
-0.00373322
-0.00450341
-0.00536501
-0.00631965
-0.00736721
-0.00850569
-0.00973105
-0.0110373
-0.0124162
-0.0138579
-0.0153505
-0.0168807
-0.0184337
-0.0199938
-0.0215446
-0.0230691
-0.0245503
-0.0259716
-0.0273166
-0.0285699
-0.0297172
-0.0307451
-0.0316419
-0.0323972
-0.0330022
-0.0334498
-0.0337345
-0.0338523
-0.0338011
-0.0335806
-0.0331921
-0.0326387
-0.0319257
-0.0310602
-0.0300516
-0.0289115
-0.0276542
-0.0262964
-0.0248573
-0.023359
-0.0218257
-0.0202836
-0.0187604
-0.0172845
-0.0158839
-0.0145847
-0.0134105
-0.0123803
-0.0115078
-0.0108004
-0.0102585
-0.00987612
-0.00964102
-0.00953621
-0.00954131
-0.00963428
-0.00979301
-0.00999663
-0.0102265
-0.0104665
-0.0107036
-0.0109271
-0.011128
-0.011299
-0.0114385
-0.0115492
0.0009069
0.000486351
0.000201089
-1.46604e-05
-0.000215979
-0.000421565
-0.00064752
-0.000909014
-0.00121854
-0.00158651
-0.00202203
-0.00253324
-0.00312749
-0.00381133
-0.00459035
-0.00546896
-0.00645014
-0.00753513
-0.00872324
-0.0100117
-0.0113954
-0.0128673
-0.0144179
-0.0160357
-0.0177075
-0.0194183
-0.0211519
-0.0228908
-0.0246172
-0.0263128
-0.0279593
-0.029539
-0.0310346
-0.03243
-0.0337102
-0.0348615
-0.0358718
-0.0367303
-0.0374282
-0.037958
-0.0383138
-0.0384913
-0.0384878
-0.0383023
-0.037935
-0.0373881
-0.0366653
-0.0357722
-0.0347166
-0.0335083
-0.0321596
-0.0306858
-0.0291046
-0.0274372
-0.0257076
-0.0239427
-0.0221722
-0.0204275
-0.0187409
-0.0171447
-0.015669
-0.0143409
-0.0131819
-0.0122073
-0.0114245
-0.0108327
-0.0104233
-0.0101804
-0.0100829
-0.010106
-0.0102234
-0.0104091
-0.0106393
-0.0108928
-0.0111516
-0.0114014
-0.01163
-0.0118275
-0.011992
-0.0121267
0.000541808
0.00010279
-0.000194732
-0.000421174
-0.000635695
-0.000859019
-0.00110885
-0.00140168
-0.00175104
-0.00216822
-0.00266304
-0.00324423
-0.00391965
-0.00469617
-0.00557956
-0.0065742
-0.00768279
-0.00890608
-0.0102427
-0.0116888
-0.0132384
-0.0148829
-0.0166113
-0.0184108
-0.0202662
-0.022161
-0.0240772
-0.0259958
-0.0278975
-0.0297626
-0.0315718
-0.0333062
-0.034948
-0.0364804
-0.0378881
-0.0391574
-0.0402759
-0.041233
-0.0420199
-0.042629
-0.0430544
-0.0432918
-0.043338
-0.0431915
-0.0428518
-0.0423201
-0.0415987
-0.0406917
-0.039605
-0.0383465
-0.0369263
-0.0353573
-0.0336553
-0.0318396
-0.0299329
-0.0279617
-0.0259561
-0.0239495
-0.0219777
-0.0200779
-0.0182869
-0.0166397
-0.0151668
-0.0138925
-0.0128331
-0.0119952
-0.0113757
-0.010962
-0.0107335
-0.0106634
-0.0107215
-0.0108767
-0.0110989
-0.0113611
-0.0116398
-0.0119157
-0.012173
-0.0123987
-0.01259
-0.0127512
8.01549e-05
-0.000373769
-0.00068188
-0.00091871
-0.00114706
-0.0013896
-0.00166553
-0.0019926
-0.00238534
-0.00285583
-0.0034146
-0.00407094
-0.00483313
-0.00570833
-0.00670238
-0.00781952
-0.00906205
-0.0104301
-0.0119214
-0.0135311
-0.0152518
-0.0170734
-0.0189834
-0.0209669
-0.0230073
-0.0250861
-0.0271836
-0.0292793
-0.0313522
-0.0333815
-0.0353468
-0.0372285
-0.0390083
-0.0406691
-0.0421956
-0.0435741
-0.0447925
-0.0458406
-0.0467097
-0.0473928
-0.047884
-0.048179
-0.048275
-0.0481698
-0.0478626
-0.0473534
-0.0466438
-0.0457362
-0.0446348
-0.0433452
-0.0418752
-0.040235
-0.0384379
-0.0365004
-0.034443
-0.0322903
-0.0300718
-0.027821
-0.0255758
-0.0233771
-0.0212675
-0.0192894
-0.0174827
-0.0158817
-0.014513
-0.013393
-0.0125266
-0.0119066
-0.0115149
-0.0113244
-0.0113017
-0.0114103
-0.0116137
-0.0118781
-0.0121733
-0.0124746
-0.0127612
-0.0130166
-0.013237
-0.0134273
-0.000482616
-0.000947588
-0.00126449
-0.00151137
-0.00175415
-0.00201729
-0.00232143
-0.00268545
-0.00312479
-0.00365232
-0.00427916
-0.00501515
-0.00586894
-0.00684786
-0.00795773
-0.00920253
-0.010584
-0.0121016
-0.013752
-0.0155289
-0.0174236
-0.0194242
-0.0215164
-0.0236836
-0.0259071
-0.0281665
-0.0304405
-0.0327068
-0.0349433
-0.0371279
-0.0392393
-0.0412576
-0.043164
-0.0449417
-0.0465753
-0.0480516
-0.0493591
-0.0504881
-0.0514305
-0.0521799
-0.0527309
-0.0530792
-0.0532232
-0.0531598
-0.0528878
-0.0524071
-0.0517179
-0.0508217
-0.0497208
-0.0484189
-0.0469212
-0.0452352
-0.0433711
-0.0413421
-0.0391655
-0.0368631
-0.0344621
-0.0319947
-0.029499
-0.0270179
-0.0245983
-0.022289
-0.0201386
-0.0181919
-0.0164872
-0.0150524
-0.0139029
-0.0130399
-0.0124503
-0.0121086
-0.0119796
-0.0120221
-0.012193
-0.0124507
-0.0127579
-0.0130827
-0.0133988
-0.0136853
-0.0139369
-0.0141596
-0.00114948
-0.0016214
-0.00194521
-0.00220172
-0.00245945
-0.00274448
-0.00307872
-0.00348211
-0.00397091
-0.00455866
-0.00525709
-0.00607647
-0.00702572
-0.0081123
-0.00934188
-0.010718
-0.0122419
-0.0139119
-0.0157234
-0.017669
-0.019738
-0.0219168
-0.0241891
-0.0265364
-0.0289378
-0.0313713
-0.0338136
-0.0362411
-0.0386302
-0.0409581
-0.0432028
-0.0453442
-0.0473634
-0.0492438
-0.0509707
-0.0525315
-0.0539154
-0.0551136
-0.0561188
-0.0569253
-0.0575288
-0.0579261
-0.0581132
-0.0580896
-0.0578539
-0.0574052
-0.0567432
-0.0558682
-0.0547812
-0.053484
-0.0519795
-0.0502724
-0.0483695
-0.0462807
-0.0440194
-0.0416035
-0.0390566
-0.0364084
-0.0336949
-0.0309593
-0.0282504
-0.025622
-0.0231299
-0.0208293
-0.0187702
-0.0169938
-0.0155283
-0.014386
-0.0135623
-0.0130358
-0.0127717
-0.0127251
-0.0128466
-0.0130866
-0.0133991
-0.0137446
-0.0140899
-0.0144086
-0.0146938
-0.0149521
-0.00192169
-0.00239629
-0.00272499
-0.00299067
-0.00326375
-0.00357176
-0.00393775
-0.00438256
-0.00492319
-0.00557378
-0.00634655
-0.00725216
-0.00829971
-0.00949665
-0.0108484
-0.012358
-0.0140258
-0.015849
-0.0178218
-0.0199349
-0.022176
-0.0245294
-0.0269769
-0.0294977
-0.0320691
-0.034667
-0.0372666
-0.0398428
-0.0423711
-0.0448279
-0.047191
-0.0494399
-0.0515563
-0.053524
-0.0553292
-0.05696
-0.0584067
-0.0596615
-0.0607181
-0.0615717
-0.0622187
-0.0626566
-0.062883
-0.0628966
-0.0626963
-0.0622813
-0.0616509
-0.0608045
-0.0597421
-0.0584639
-0.0569708
-0.055265
-0.05335
-0.0512322
-0.0489207
-0.0464293
-0.0437769
-0.0409889
-0.038098
-0.0351452
-0.0321791
-0.029256
-0.0264372
-0.0237864
-0.0213655
-0.0192292
-0.0174207
-0.0159661
-0.0148723
-0.0141259
-0.0136949
-0.013533
-0.0135851
-0.0137935
-0.0141031
-0.0144651
-0.0148384
-0.0151902
-0.0155113
-0.0158087
-0.00279865
-0.00327155
-0.00360308
-0.00387734
-0.00416602
-0.00449787
-0.00489694
-0.0053848
-0.00597907
-0.00669443
-0.00754349
-0.00853717
-0.00968471
-0.0109934
-0.0124683
-0.0141117
-0.0159231
-0.0178984
-0.0200302
-0.0223075
-0.0247159
-0.0272379
-0.0298529
-0.032538
-0.0352686
-0.0380189
-0.0407624
-0.0434729
-0.046125
-0.0486946
-0.0511595
-0.0534994
-0.0556966
-0.0577357
-0.0596036
-0.0612897
-0.0627855
-0.0640841
-0.0651805
-0.0660709
-0.0667527
-0.067224
-0.0674833
-0.0675298
-0.0673627
-0.0669811
-0.0663843
-0.0655713
-0.0645412
-0.0632931
-0.0618261
-0.0601403
-0.0582366
-0.0561176
-0.0537886
-0.0512586
-0.0485414
-0.0456573
-0.042634
-0.0395083
-0.0363264
-0.0331442
-0.030026
-0.027042
-0.024264
-0.0217605
-0.0195903
-0.0177958
-0.0163988
-0.0153974
-0.0147661
-0.0144597
-0.0144194
-0.0145797
-0.0148757
-0.0152487
-0.0156481
-0.0160333
-0.0163924
-0.0167327
-0.00377794
-0.00424471
-0.00457691
-0.00485906
-0.00516338
-0.00551967
-0.00595274
-0.00648479
-0.00713392
-0.00791522
-0.00884162
-0.00992422
-0.0111722
-0.0125927
-0.0141901
-0.0159661
-0.0179189
-0.0200431
-0.0223295
-0.0247653
-0.0273341
-0.0300161
-0.0327886
-0.0356267
-0.0385038
-0.0413923
-0.0442646
-0.0470934
-0.0498528
-0.0525183
-0.055068
-0.0574822
-0.0597437
-0.0618382
-0.0637538
-0.065481
-0.0670125
-0.0683428
-0.0694679
-0.0703853
-0.0710931
-0.0715903
-0.0718763
-0.0719507
-0.0718133
-0.0714633
-0.0709002
-0.0701228
-0.0691297
-0.0679191
-0.0664892
-0.0648381
-0.0629644
-0.0608678
-0.0585498
-0.0560149
-0.0532716
-0.0503344
-0.0472251
-0.0439746
-0.0406246
-0.0372278
-0.0338486
-0.0305606
-0.0274435
-0.0245778
-0.0220378
-0.0198839
-0.0181556
-0.016866
-0.0160006
-0.0155189
-0.0153605
-0.0154535
-0.0157232
-0.0160999
-0.0165223
-0.0169408
-0.0173397
-0.0177264
-0.00485522
-0.00531147
-0.00564215
-0.00593134
-0.00625114
-0.00663211
-0.00709971
-0.00767654
-0.00838109
-0.00922873
-0.0102326
-0.0114038
-0.0127516
-0.0142824
-0.0160004
-0.0179059
-0.0199961
-0.022264
-0.0246987
-0.0272854
-0.0300055
-0.032837
-0.0357551
-0.038733
-0.0417422
-0.0447536
-0.0477386
-0.050669
-0.0535186
-0.0562631
-0.0588808
-0.0613527
-0.0636629
-0.0657978
-0.0677471
-0.0695023
-0.0710575
-0.0724084
-0.0735522
-0.0744873
-0.075213
-0.075729
-0.0760355
-0.0761328
-0.0760208
-0.0756997
-0.0751687
-0.0744269
-0.0734727
-0.072304
-0.070918
-0.0693117
-0.067482
-0.0654261
-0.0631424
-0.0606312
-0.0578961
-0.0549456
-0.051795
-0.0484684
-0.0450008
-0.0414399
-0.0378465
-0.0342947
-0.0308688
-0.0276587
-0.0247531
-0.0222305
-0.02015
-0.0185437
-0.0174119
-0.0167231
-0.0164189
-0.016423
-0.0166513
-0.0170227
-0.0174639
-0.0179149
-0.0183552
-0.0187918
-0.00602439
-0.0064658
-0.00679271
-0.00708795
-0.00742281
-0.00782839
-0.00833056
-0.00895221
-0.00971205
-0.0106256
-0.0117061
-0.0129647
-0.0144102
-0.0160487
-0.0178835
-0.0199141
-0.022136
-0.0245408
-0.0271157
-0.0298438
-0.0327043
-0.0356732
-0.0387237
-0.0418269
-0.0449528
-0.0480711
-0.0511521
-0.0541674
-0.0570905
-0.0598975
-0.0625672
-0.0650818
-0.0674261
-0.069588
-0.0715583
-0.07333
-0.0748983
-0.0762602
-0.0774139
-0.0783589
-0.0790954
-0.0796238
-0.0799451
-0.0800601
-0.0799694
-0.0796734
-0.0791718
-0.078464
-0.0775483
-0.0764227
-0.075084
-0.0735285
-0.0717519
-0.0697497
-0.0675177
-0.0650528
-0.0623542
-0.0594249
-0.0562735
-0.0529168
-0.049382
-0.0457095
-0.0419543
-0.0381873
-0.0344936
-0.0309693
-0.0277149
-0.0248258
-0.0223819
-0.0204367
-0.0190097
-0.0180829
-0.0176042
-0.0174957
-0.0176655
-0.0180209
-0.0184754
-0.0189572
-0.0194399
-0.0199297
-0.00727763
-0.00770004
-0.00802092
-0.00832107
-0.00867028
-0.00909999
-0.00963631
-0.0103022
-0.0111165
-0.0120948
-0.0132502
-0.0145937
-0.0161338
-0.0178761
-0.0198228
-0.0219723
-0.0243188
-0.0268521
-0.0295575
-0.032416
-0.0354049
-0.038498
-0.0416665
-0.0448798
-0.0481067
-0.0513157
-0.0544764
-0.0575603
-0.060541
-0.0633951
-0.0661024
-0.0686458
-0.0710114
-0.0731886
-0.0751692
-0.0769477
-0.0785203
-0.0798852
-0.0810417
-0.0819901
-0.0827314
-0.0832668
-0.0835978
-0.0837259
-0.0836521
-0.0833773
-0.0829017
-0.082225
-0.0813458
-0.0802622
-0.0789712
-0.0774687
-0.0757499
-0.0738091
-0.0716405
-0.0692382
-0.0665978
-0.0637175
-0.0605997
-0.0572539
-0.053699
-0.0499666
-0.0461038
-0.042175
-0.0382628
-0.0344652
-0.0308909
-0.02765
-0.0248424
-0.0225447
-0.0207991
-0.0196059
-0.0189242
-0.0186781
-0.0187705
-0.0190972
-0.0195582
-0.0200682
-0.020594
-0.0211399
-0.00860559
-0.00900505
-0.00931764
-0.00962137
-0.00998396
-0.0104369
-0.0110065
-0.0117155
-0.0125828
-0.0136237
-0.0148513
-0.0162764
-0.0179068
-0.0197476
-0.0218001
-0.0240612
-0.0265238
-0.0291759
-0.032001
-0.034978
-0.0380821
-0.0412853
-0.044557
-0.0478652
-0.0511773
-0.0544612
-0.0576861
-0.0608234
-0.0638471
-0.0667345
-0.0694664
-0.0720267
-0.0744029
-0.0765855
-0.0785677
-0.0803451
-0.0819151
-0.0832768
-0.0844305
-0.0853772
-0.0861186
-0.0866565
-0.0869931
-0.0871301
-0.0870693
-0.0868118
-0.0863584
-0.0857091
-0.0848631
-0.0838188
-0.0825735
-0.0811232
-0.0794632
-0.0775871
-0.0754881
-0.0731587
-0.0705916
-0.067781
-0.0647241
-0.0614234
-0.0578898