/*--------------------------------*- C++ -*----------------------------------*\
  =========                 |
  \\      /  F ield         | OpenFOAM: The Open Source CFD Toolbox
   \\    /   O peration     | Website:  https://openfoam.org
    \\  /    A nd           | Version:  7
     \\/     M anipulation  |
\*---------------------------------------------------------------------------*/
FoamFile
{
    version     2.0;
    format      ascii;
    class       volScalarField;
    location    "2.125";
    object      p;
}
// * * * * * * * * * * * * * * * * * * * * * * * * * * * * * * * * * * * * * //

dimensions      [0 2 -2 0 0 0 0];

internalField   nonuniform List<scalar> 
6400
(
-9.27788e-07
1.49688e-06
-3.09112e-05
-9.8045e-05
-0.000192465
-0.000307188
-0.000436108
-0.000574055
-0.000717034
-0.000862035
-0.00100689
-0.00115007
-0.00129047
-0.00142729
-0.00155991
-0.00168777
-0.0018103
-0.00192688
-0.00203676
-0.00213906
-0.00223278
-0.00231678
-0.00238981
-0.00245056
-0.00249764
-0.00252966
-0.00254522
-0.00254303
-0.00252187
-0.00248071
-0.0024187
-0.00233525
-0.00223007
-0.00210321
-0.0019551
-0.00178659
-0.00159896
-0.00139397
-0.00117384
-0.000941242
-0.000699305
-0.000451573
-0.000201948
4.53622e-05
0.000285923
0.000515163
0.000728478
0.000921341
0.00108942
0.00122869
0.00133557
0.001407
0.00144057
0.0014346
0.00138817
0.00130124
0.00117458
0.00100983
0.000809427
0.00057659
0.000315211
2.97711e-05
-0.000274761
-0.000593045
-0.000919497
-0.00124839
-0.00157398
-0.00189057
-0.00219261
-0.00247476
-0.00273197
-0.00295949
-0.00315298
-0.00330863
-0.00342339
-0.00349547
-0.00352523
-0.00351687
-0.00348032
-0.00343361
-5.18617e-06
-2.2562e-06
-3.1807e-05
-9.02853e-05
-0.00017125
-0.000269847
-0.000381641
-0.000502443
-0.000629002
-0.000758674
-0.00088944
-0.00101978
-0.00114854
-0.00127481
-0.00139788
-0.00151709
-0.00163181
-0.00174134
-0.00184495
-0.00194176
-0.00203084
-0.00211111
-0.00218145
-0.00224064
-0.00228743
-0.00232055
-0.00233877
-0.0023409
-0.00232586
-0.00229272
-0.0022407
-0.00216928
-0.0020782
-0.0019675
-0.00183759
-0.00168922
-0.00152359
-0.00134226
-0.00114728
-0.000941069
-0.000726474
-0.000506718
-0.000285358
-6.6223e-05
0.000146653
0.00034911
0.000536965
0.000706103
0.000852597
0.000972806
0.00106348
0.00112189
0.00114586
0.00113391
0.00108528
0.00099995
0.000878703
0.000723087
0.000535393
0.000318599
7.63055e-05
-0.00018736
-0.000467838
-0.000760245
-0.00105948
-0.00136035
-0.00165764
-0.00194623
-0.00222117
-0.00247775
-0.00271157
-0.00291861
-0.00309533
-0.00323877
-0.0033468
-0.00341842
-0.00345455
-0.0034585
-0.00343378
-0.00338698
2.6905e-05
2.64847e-05
-3.6387e-06
-5.87242e-05
-0.000132953
-0.000222436
-0.000323619
-0.000433203
-0.000548435
-0.000667078
-0.000787361
-0.000907897
-0.00102759
-0.00114558
-0.00126114
-0.0013736
-0.00148232
-0.00158663
-0.00168576
-0.00177891
-0.00186515
-0.00194349
-0.00201286
-0.00207212
-0.0021201
-0.00215561
-0.0021775
-0.00218465
-0.00217603
-0.00215076
-0.00210809
-0.0020475
-0.00196872
-0.00187176
-0.00175693
-0.00162494
-0.00147682
-0.00131403
-0.00113841
-0.000952225
-0.000758083
-0.000558993
-0.000358263
-0.000159465
3.36267e-05
0.000217117
0.000387082
0.000539661
0.000671164
0.000778173
0.000857647
0.000907014
0.000924262
0.00090801
0.000857565
0.00077296
0.000654963
0.000505075
0.000325497
0.000119076
-0.000110761
-0.000360098
-0.000624626
-0.000899749
-0.00118069
-0.00146259
-0.00174063
-0.0020101
-0.00226648
-0.00250551
-0.0027233
-0.00291632
-0.00308154
-0.0032165
-0.00331942
-0.00338943
-0.00342713
-0.00343448
-0.00340936
-0.00335014
9.56236e-05
8.49628e-05
4.95541e-05
-6.64094e-06
-7.90159e-05
-0.000164263
-0.000259421
-0.000361826
-0.000469236
-0.000579824
-0.00069212
-0.000804957
-0.000917405
-0.00102871
-0.00113821
-0.00124531
-0.00134941
-0.00144985
-0.00154593
-0.00163686
-0.00172176
-0.00179968
-0.0018696
-0.00193042
-0.00198102
-0.00202024
-0.00204698
-0.00206012
-0.00205867
-0.00204171
-0.00200851
-0.00195849
-0.00189132
-0.00180695
-0.00170561
-0.00158787
-0.00145466
-0.00130729
-0.00114746
-0.000977256
-0.000799128
-0.000615919
-0.00043076
-0.000247055
-6.84124e-05
0.000101431
0.000258696
0.000399662
0.000520764
0.000618692
0.000690497
0.000733686
0.000746312
0.000727039
0.000675205
0.000590852
0.000474742
0.000328351
0.000153836
-4.60235e-05
-0.000267892
-0.000507968
-0.000762084
-0.00102581
-0.00129458
-0.00156375
-0.00182877
-0.00208522
-0.0023289
-0.00255591
-0.00276269
-0.00294609
-0.0031034
-0.00323242
-0.00333145
-0.00339944
-0.00343645
-0.00344315
-0.00341343
-0.0033407
0.000194545
0.000167314
0.000122394
6.17424e-05
-1.19336e-05
-9.58677e-05
-0.000187639
-0.000285182
-0.000386775
-0.000491012
-0.000596766
-0.000703146
-0.000809437
-0.000915047
-0.00101945
-0.00112214
-0.00122258
-0.00132018
-0.00141429
-0.00150415
-0.00158894
-0.00166774
-0.00173956
-0.00180333
-0.00185794
-0.00190227
-0.00193519
-0.0019556
-0.00196245
-0.00195482
-0.0019319
-0.00189305
-0.00183786
-0.00176616
-0.00167807
-0.00157405
-0.00145487
-0.00132172
-0.00117613
-0.00102004
-0.000855795
-0.000686053
-0.000513824
-0.000342394
-0.000175265
-1.60754e-05
0.000131478
0.000263737
0.000377189
0.000468565
0.000534943
0.000573847
0.000583335
0.000562075
0.0005094
0.00042534
0.000310646
0.000166772
-4.15298e-06
-0.000199381
-0.000415625
-0.000649145
-0.000895854
-0.00115143
-0.00141142
-0.00167136
-0.00192688
-0.00217378
-0.00240811
-0.00262626
-0.00282494
-0.00300128
-0.00315283
-0.00327755
-0.00337377
-0.00344023
-0.00347653
-0.00348245
-0.00344945
-0.00336833
0.000317085
0.000268884
0.000211005
0.000143071
6.54311e-05
-1.96779e-05
-0.000110344
-0.000205091
-0.000302712
-0.000402238
-0.000502916
-0.000604166
-0.000705528
-0.000806611
-0.000907051
-0.00100646
-0.00110441
-0.00120039
-0.0012938
-0.00138394
-0.00147003
-0.00155117
-0.00162639
-0.00169464
-0.00175481
-0.00180575
-0.00184632
-0.00187536
-0.00189179
-0.0018946
-0.00188288
-0.00185592
-0.00181317
-0.00175433
-0.00167941
-0.00158868
-0.00148281
-0.00136281
-0.00123009
-0.00108645
-0.000934085
-0.000775564
-0.000613796
-0.000451989
-0.000293583
-0.000142178
-1.44739e-06
0.000124957
0.000233507
0.000320909
0.000384208
0.000420888
0.000428963
0.000407054
0.000354453
0.000271156
0.000157881
1.60602e-05
-0.000152196
-0.000344156
-0.000556549
-0.000785656
-0.00102742
-0.00127757
-0.00153172
-0.0017855
-0.00203466
-0.00227518
-0.00250325
-0.00271548
-0.00290883
-0.00308061
-0.00322858
-0.00335081
-0.00344565
-0.00351171
-0.00354828
-0.00355456
-0.00352093
-0.00343717
0.000457
0.000384653
0.000311241
0.000233748
0.000149943
6.15555e-05
-2.99849e-05
-0.000123774
-0.000219123
-0.000315519
-0.000412601
-0.000510121
-0.0006079
-0.000705778
-0.000803572
-0.000901046
-0.000997881
-0.00109366
-0.00118785
-0.00127982
-0.00136881
-0.00145396
-0.00153428
-0.00160872
-0.00167616
-0.00173541
-0.00178525
-0.00182448
-0.00185191
-0.00186642
-0.00186701
-0.0018528
-0.00182311
-0.0017775
-0.0017158
-0.00163814
-0.00154502
-0.0014373
-0.00131625
-0.00118353
-0.00104125
-0.000891877
-0.000738254
-0.000583546
-0.000431178
-0.000284754
-0.000147981
-2.45606e-05
8.19108e-05
0.000168056
0.000230828
0.000267612
0.000276326
0.0002555
0.000204341
0.000122776
1.14681e-05
-0.000128188
-0.000294103
-0.000483557
-0.000693275
-0.000919533
-0.00115827
-0.00140521
-0.00165598
-0.00190627
-0.00215187
-0.00238884
-0.00261352
-0.00282264
-0.0030133
-0.00318301
-0.00332964
-0.00345136
-0.00354657
-0.00361379
-0.00365214
-0.00366054
-0.00362919
-0.00354795
0.000608155
0.000509467
0.000418633
0.000329842
0.000238158
0.000144822
5.08012e-05
-4.35748e-05
-0.000138146
-0.000232857
-0.000327759
-0.000422952
-0.000518549
-0.000614636
-0.000711231
-0.000808257
-0.000905523
-0.00100271
-0.00109937
-0.00119492
-0.00128862
-0.00137962
-0.00146695
-0.00154951
-0.00162614
-0.00169559
-0.00175656
-0.00180774
-0.00184782
-0.00187556
-0.00188978
-0.00188945
-0.00187374
-0.001842
-0.00179389
-0.00172937
-0.00164876
-0.00155277
-0.00144251
-0.00131955
-0.00118586
-0.00104387
-0.000896352
-0.00074647
-0.000597662
-0.000453577
-0.000317995
-0.000194717
-8.74598e-05
2.65146e-07
6.52624e-05
0.000104766
0.00011654
9.89728e-05
5.11418e-05
-2.71368e-05
-0.000135288
-0.000271983
-0.000435173
-0.000622151
-0.000829639
-0.00105389
-0.00129081
-0.00153609
-0.00178535
-0.00203424
-0.00227857
-0.00251443
-0.00273821
-0.00294673
-0.00313718
-0.00330717
-0.00345467
-0.00357795
-0.00367543
-0.00374566
-0.00378764
-0.0038002
-0.003774
-0.0036996
0.00076468
0.000638179
0.000528575
0.000427203
0.000326353
0.000226783
0.000128998
3.27466e-05
-6.23531e-05
-0.000156717
-0.000250803
-0.000345072
-0.000439941
-0.000535748
-0.000632715
-0.000730937
-0.000830356
-0.000930758
-0.00103177
-0.00113284
-0.00123328
-0.00133223
-0.00142869
-0.00152154
-0.00160953
-0.00169133
-0.00176553
-0.00183069
-0.00188535
-0.0019281
-0.00195759
-0.0019726
-0.00197208
-0.00195519
-0.00192138
-0.00187043
-0.00180245
-0.00171798
-0.00161801
-0.00150396
-0.00137772
-0.00124162
-0.00109844
-0.000951337
-0.000803779
-0.000659497
-0.00052238
-0.000396367
-0.000285339
-0.000192996
-0.000122733
-7.75244e-05
-5.98129e-05
-7.14121e-05
-0.000113428
-0.000186206
-0.000289306
-0.000421505
-0.000580821
-0.000764585
-0.000969522
-0.00119186
-0.00142748
-0.001672
-0.00192098
-0.00217002
-0.00241489
-0.00265165
-0.00287669
-0.00308684
-0.00327935
-0.00345187
-0.00360244
-0.00372937
-0.00383117
-0.00390637
-0.00395399
-0.00397281
-0.00395437
-0.00389029
0.000920955
0.000765662
0.000636364
0.000521512
0.000410564
0.000303795
0.000201229
0.000102013
5.22447e-06
-9.00319e-05
-0.000184633
-0.000279399
-0.000375051
-0.000472182
-0.000571227
-0.000672448
-0.000775924
-0.000881542
-0.000988996
-0.00109779
-0.00120723
-0.00131646
-0.00142445
-0.00153
-0.00163179
-0.00172837
-0.0018182
-0.00189968
-0.00197117
-0.00203107
-0.0020778
-0.00210994
-0.00212619
-0.00212551
-0.0021071
-0.00207052
-0.00201568
-0.00194294
-0.00185312
-0.00174749
-0.00162786
-0.00149649
-0.00135613
-0.00120994
-0.00106146
-0.000914504
-0.000773107
-0.00064138
-0.000523411
-0.000423131
-0.000344192
-0.000289833
-0.000262768
-0.000265074
-0.000298106
-0.000362434
-0.000457813
-0.000583173
-0.000736652
-0.000915649
-0.00111692
-0.00133669
-0.00157077
-0.00181475
-0.00206408
-0.00231427
-0.00256102
-0.00280029
-0.00302843
-0.00324222
-0.00343888
-0.00361608
-0.00377186
-0.00390457
-0.00401274
-0.00409497
-0.00415026
-0.0041774
-0.004169
-0.00411801
0.00107148
0.000886782
0.000737211
0.000608302
0.000486623
0.00037194
0.000263787
0.000160689
6.11675e-05
-3.6156e-05
-0.000132579
-0.000229283
-0.000327292
-0.000427453
-0.00053041
-0.000636595
-0.000746215
-0.000859254
-0.00097547
-0.0010944
-0.00121537
-0.00133748
-0.00145966
-0.00158064
-0.00169897
-0.00181309
-0.00192128
-0.00202176
-0.00211269
-0.00219223
-0.00225858
-0.00231005
-0.0023451
-0.00236241
-0.00236093
-0.00233998
-0.00229924
-0.00223885
-0.00215944
-0.00206216
-0.00194867
-0.00182117
-0.00168236
-0.00153543
-0.00138397
-0.00123192
-0.00108346
-0.000942897
-0.000814577
-0.000702709
-0.000611251
-0.000543771
-0.000503321
-0.000492316
-0.000512434
-0.000564548
-0.000648678
-0.000763981
-0.000908769
-0.00108057
-0.0012762
-0.0014919
-0.00172347
-0.00196641
-0.00221607
-0.00246787
-0.00271733
-0.00296033
-0.00319307
-0.00341223
-0.00361497
-0.00379888
-0.00396196
-0.00410255
-0.00421919
-0.00431051
-0.00437546
-0.00441286
-0.00441654
-0.00438082
0.00121082
0.000996396
0.00082626
0.000682971
0.000550165
0.000427062
0.00031268
0.000204911
0.000101702
1.18399e-06
-9.83613e-05
-0.000198474
-0.000300481
-0.00040548
-0.000514317
-0.000627588
-0.000745624
-0.000868496
-0.00099602
-0.00112776
-0.00126303
-0.00140092
-0.00154026
-0.00167969
-0.00181765
-0.0019524
-0.00208206
-0.00220461
-0.002318
-0.00242012
-0.00250891
-0.00258238
-0.00263872
-0.0026763
-0.0026938
-0.00269024
-0.00266505
-0.00261813
-0.0025499
-0.00246133
-0.00235389
-0.00222974
-0.00209152
-0.00194241
-0.00178607
-0.00162653
-0.00146816
-0.0013155
-0.00117316
-0.00104568
-0.000937384
-0.000852231
-0.000793688
-0.000764589
-0.000767026
-0.000802263
-0.000870678
-0.000971737
-0.00110401
-0.00126521
-0.0014523
-0.00166156
-0.00188879
-0.00212943
-0.00237874
-0.00263196
-0.00288448
-0.00313197
-0.00337048
-0.0035965
-0.00380703
-0.00399955
-0.00417195
-0.0043225
-0.00444968
-0.00455211
-0.00462869
-0.00467821
-0.00469573
-0.00467707
0.00133353
0.00108935
0.000898587
0.000740804
0.000596654
0.000464786
0.000343666
0.000230529
0.000122737
1.7926e-05
-8.60487e-05
-0.000191084
-0.000298806
-0.000410554
-0.000527375
-0.000650016
-0.000778923
-0.000914251
-0.00105586
-0.00120334
-0.00135598
-0.0015128
-0.00167259
-0.00183385
-0.00199488
-0.00215376
-0.00230838
-0.00245652
-0.00259584
-0.00272396
-0.00283851
-0.00293718
-0.00301784
-0.00307854
-0.00311762
-0.00313379
-0.00312617
-0.00309439
-0.00303863
-0.00295969
-0.00285864
-0.00273772
-0.00259946
-0.00244699
-0.00228402
-0.0021147
-0.00194355
-0.00177537
-0.00161508
-0.00146757
-0.00133761
-0.00122961
-0.00114754
-0.00109474
-0.00107383
-0.00108655
-0.00113375
-0.00121532
-0.00133019
-0.00147635
-0.00165095
-0.00185041
-0.00207057
-0.00230682
-0.00255431
-0.00280814
-0.00306348
-0.00331577
-0.00356082
-0.00379488
-0.00401472
-0.00421761
-0.00440125
-0.00456377
-0.00470353
-0.00481908
-0.00490917
-0.00497262
-0.00500557
-0.00500543
0.00143418
0.00116045
0.000949204
0.000776979
0.000621422
0.000480565
0.000352293
0.000233157
0.000119924
9.72496e-06
-0.000100011
-0.000211536
-0.000326771
-0.000447292
-0.000574334
-0.000708789
-0.000851211
-0.00100183
-0.00116054
-0.00132694
-0.00150028
-0.00167954
-0.00186339
-0.00205022
-0.00223814
-0.00242504
-0.00260859
-0.00278629
-0.00295552
-0.00311358
-0.00325776
-0.00338542
-0.00349403
-0.0035813
-0.0036452
-0.00368407
-0.00369669
-0.00368235
-0.0036409
-0.00357273
-0.00347925
-0.00336199
-0.00322346
-0.00306678
-0.00289567
-0.00271438
-0.0025276
-0.00234037
-0.00215794
-0.00198564
-0.00182868
-0.00169204
-0.00158025
-0.00149728
-0.00144637
-0.00142988
-0.00144928
-0.00150497
-0.00159636
-0.00172186
-0.00187891
-0.00206413
-0.00227346
-0.00250228
-0.00274567
-0.00299853
-0.00325582
-0.00351269
-0.00376463
-0.00400758
-0.00423799
-0.00445282
-0.00464952
-0.00482595
-0.00498029
-0.00511094
-0.00521647
-0.0052954
-0.00534534
-0.00536503
0.00150733
0.00120448
0.000973079
0.000786608
0.000619699
0.000469721
0.000333946
0.000208222
8.87032e-05
-2.79908e-05
-0.000144858
-0.000264507
-0.000389142
-0.000520571
-0.000660208
-0.000809083
-0.000967851
-0.0011368
-0.00131587
-0.00150463
-0.00170231
-0.00190781
-0.00211969
-0.00233618
-0.00255523
-0.0027745
-0.0029914
-0.00320314
-0.00340679
-0.0035993
-0.00377759
-0.00393864
-0.00407951
-0.00419749
-0.00429013
-0.00435537
-0.00439159
-0.00439769
-0.00437315
-0.00431811
-0.00423346
-0.00412071
-0.00398216
-0.00382081
-0.00364036
-0.00344511
-0.00323991
-0.00303006
-0.00282115
-0.00261895
-0.0024292
-0.00225749
-0.00210905
-0.00198855
-0.0019
-0.00184653
-0.00183032
-0.0018525
-0.00191309
-0.00201103
-0.0021442
-0.00230952
-0.00250311
-0.00272042
-0.00295645
-0.00320594
-0.00346357
-0.00372418
-0.00398287
-0.00423517
-0.00447713
-0.00470528
-0.00491669
-0.00510889
-0.00527976
-0.00542745
-0.00555023
-0.00564637
-0.0057147
-0.00575543
0.00154753
0.00121624
0.000965171
0.000764775
0.000586662
0.000427501
0.000283913
0.000151027
2.43699e-05
-9.99569e-05
-0.00022538
-0.000354856
-0.000490873
-0.000635459
-0.000790203
-0.000956266
-0.00113439
-0.00132493
-0.00152784
-0.00174267
-0.00196862
-0.00220448
-0.0024487
-0.00269936
-0.00295419
-0.00321061
-0.00346577
-0.00371657
-0.00395971
-0.00419179
-0.00440931
-0.00460882
-0.00478694
-0.00494048
-0.00506655
-0.00516259
-0.00522653
-0.0052568
-0.00525247
-0.00521329
-0.00513973
-0.00503306
-0.00489531
-0.00472934
-0.00453874
-0.00432785
-0.00410164
-0.00386564
-0.00362581
-0.00338836
-0.00315963
-0.0029459
-0.00275314
-0.0025869
-0.00245206
-0.00235269
-0.00229186
-0.00227157
-0.00229266
-0.00235476
-0.00245633
-0.00259475
-0.00276641
-0.00296692
-0.00319124
-0.00343397
-0.00368952
-0.00395232
-0.00421703
-0.0044787
-0.00473281
-0.00497539
-0.00520302
-0.00541273
-0.00560201
-0.00576864
-0.0059105
-0.0060255
-0.00611366
-0.00617664
0.00154936
0.00119054
0.000920472
0.000706582
0.000517489
0.000349128
0.000197442
5.6815e-05
-7.78586e-05
-0.000211
-0.000346463
-0.00048755
-0.000637026
-0.000797135
-0.000969634
-0.00115581
-0.00135649
-0.00157207
-0.00180253
-0.0020474
-0.00230582
-0.00257649
-0.00285773
-0.00314742
-0.00344311
-0.00374194
-0.00404078
-0.00433618
-0.00462449
-0.00490186
-0.00516438
-0.00540812
-0.0056292
-0.00582393
-0.00598887
-0.00612094
-0.00621751
-0.00627652
-0.0062965
-0.00627673
-0.00621725
-0.00611892
-0.00598347
-0.00581351
-0.00561248
-0.00538469
-0.00513519
-0.00486971
-0.00459455
-0.0043164
-0.00404223
-0.00377905
-0.00353371
-0.00331271
-0.00312198
-0.00296666
-0.00285094
-0.00277788
-0.00274931
-0.00276579
-0.00282654
-0.00292956
-0.00307167
-0.00324873
-0.00345576
-0.00368723
-0.00393727
-0.00419988
-0.00446921
-0.00473968
-0.00500614
-0.00526397
-0.00550908
-0.00573791
-0.00594739
-0.00613485
-0.00629761
-0.00643313
-0.00654258
-0.00662909
0.00150751
0.00112232
0.00083406
0.000607201
0.000407418
0.000229872
6.98016e-05
-7.91632e-05
-0.000222769
-0.000365959
-0.000513014
-0.000667578
-0.000832686
-0.0010108
-0.00120383
-0.00141319
-0.00163979
-0.00188407
-0.00214601
-0.00242514
-0.00272052
-0.00303075
-0.003354
-0.00368799
-0.00403002
-0.00437699
-0.00472541
-0.00507151
-0.0054112
-0.00574022
-0.00605417
-0.0063486
-0.00661909
-0.00686137
-0.00707142
-0.00724555
-0.00738052
-0.00747365
-0.00752289
-0.00752695
-0.00748532
-0.0073984
-0.0072675
-0.00709489
-0.00688381
-0.00663842
-0.0063638
-0.00606585
-0.00575116
-0.00542693
-0.00510074
-0.00478041
-0.00447373
-0.00418829
-0.0039312
-0.00370886
-0.00352675
-0.00338923
-0.00329938
-0.00325887
-0.00326796
-0.00332546
-0.00342881
-0.00357426
-0.00375699
-0.00397142
-0.00421138
-0.00447045
-0.00474216
-0.00502022
-0.00529872
-0.00557221
-0.0058358
-0.00608519
-0.00631658
-0.00652668
-0.00671217
-0.00686991
-0.00700221
-0.00711364
0.00141678
0.00100664
0.00070116
0.000461946
0.000251809
6.51091e-05
-0.000103641
-0.00026157
-0.000415069
-0.0005696
-0.000729867
-0.000899855
-0.00108286
-0.00128156
-0.00149803
-0.00173379
-0.00198983
-0.00226664
-0.00256421
-0.00288203
-0.0032191
-0.00357393
-0.00394454
-0.00432844
-0.0047227
-0.00512393
-0.00552833
-0.0059317
-0.00632957
-0.00671718
-0.00708962
-0.00744186
-0.00776891
-0.00806586
-0.00832802
-0.00855104
-0.00873098
-0.00886446
-0.00894877
-0.00898192
-0.0089628
-0.0088912
-0.00876794
-0.00859485
-0.00837483
-0.00811185
-0.00781093
-0.00747805
-0.00712007
-0.00674464
-0.00635997
-0.00597471
-0.00559768
-0.00523763
-0.004903
-0.00460164
-0.00434053
-0.00412556
-0.0039613
-0.00385087
-0.00379576
-0.00379588
-0.00384952
-0.0039535
-0.00410334
-0.00429346
-0.00451748
-0.00476851
-0.0050394
-0.00532305
-0.00561263
-0.00590173
-0.00618449
-0.00645563
-0.0067105
-0.00694502
-0.00715507
-0.00733679
-0.0074936
-0.00763151
0.00127223
0.000838792
0.000517204
0.000266326
4.62088e-05
-0.000149606
-0.000327348
-0.000494903
-0.000659301
-0.000826525
-0.0010017
-0.00118913
-0.0013924
-0.00161437
-0.00185727
-0.00212276
-0.0024119
-0.00272523
-0.00306274
-0.0034239
-0.00380764
-0.00421237
-0.00463594
-0.00507569
-0.00552842
-0.00599045
-0.00645761
-0.00692533
-0.00738865
-0.00784232
-0.00828087
-0.00869866
-0.00909005
-0.00944945
-0.00977144
-0.0100509
-0.0102832
-0.010464
-0.01059
-0.0106584
-0.0106673
-0.0106159
-0.0105042
-0.0103337
-0.0101068
-0.00982706
-0.00949946
-0.00912993
-0.00872554
-0.00829431
-0.00784509
-0.00738734
-0.00693094
-0.0064859
-0.00606212
-0.00566904
-0.00531536
-0.00500877
-0.00475562
-0.00456071
-0.00442716
-0.00435623
-0.00434737
-0.00439821
-0.00450479
-0.00466169
-0.00486239
-0.00509953
-0.00536527
-0.00565157
-0.00595054
-0.00625463
-0.00655679
-0.00685061
-0.00713038
-0.00739102
-0.00762747
-0.00783499
-0.00801807
-0.00818426
0.00106918
0.000614332
0.000277897
1.61178e-05
-0.000213573
-0.000418464
-0.000605528
-0.000783407
-0.000959762
-0.00114108
-0.00133291
-0.00153988
-0.00176583
-0.00201383
-0.00228628
-0.00258493
-0.00291095
-0.00326491
-0.00364682
-0.00405612
-0.00449169
-0.00495182
-0.00543422
-0.005936
-0.00645373
-0.0069834
-0.00752049
-0.00805999
-0.00859646
-0.00912411
-0.00963687
-0.0101285
-0.0105925
-0.0110227
-0.0114129
-0.011757
-0.0120496
-0.0122856
-0.0124607
-0.0125712
-0.0126145
-0.0125888
-0.0124937
-0.0123298
-0.0120989
-0.0118044
-0.0114507
-0.0110437
-0.0105907
-0.0100999
-0.00958074
-0.00904349
-0.00849906
-0.00795879
-0.00743412
-0.00693623
-0.00647578
-0.00606244
-0.00570467
-0.0054093
-0.00518139
-0.00502393
-0.00493784
-0.00492192
-0.00497294
-0.00508589
-0.00525419
-0.0054701
-0.00572501
-0.00600991
-0.00631568
-0.00663344
-0.00695475
-0.00727183
-0.00757768
-0.00786606
-0.00813072
-0.00836592
-0.00857721
-0.00877371
0.000803287
0.000329179
-2.07094e-05
-0.000292563
-0.000531392
-0.000745318
-0.000942057
-0.00113099
-0.0013204
-0.00151728
-0.00172756
-0.00195622
-0.00220733
-0.00248419
-0.00278934
-0.00312466
-0.0034914
-0.00389019
-0.00432106
-0.00478343
-0.00527612
-0.00579731
-0.00634455
-0.00691476
-0.00750422
-0.00810862
-0.00872304
-0.00934204
-0.00995965
-0.0105695
-0.0111649
-0.0117389
-0.0122844
-0.0127942
-0.0132612
-0.0136787
-0.0140402
-0.0143397
-0.0145719
-0.0147321
-0.0148169
-0.0148236
-0.0147509
-0.0145985
-0.0143677
-0.0140612
-0.0136831
-0.0132392
-0.0127364
-0.0121834
-0.0115899
-0.0109671
-0.0103267
-0.00968153
-0.00904454
-0.00842881
-0.00784706
-0.00731126
-0.00683221
-0.00641916
-0.00607945
-0.00581824
-0.00563831
-0.00553998
-0.00552113
-0.00557738
-0.00570232
-0.00588791
-0.00612483
-0.00640298
-0.0067119
-0.00704118
-0.00738077
-0.00772126
-0.00805412
-0.0083717
-0.00866638
-0.00893119
-0.00917276
-0.00940186
0.00047068
-2.03298e-05
-0.000382147
-0.000663185
-0.000910691
-0.00113361
-0.00134039
-0.00154115
-0.00174474
-0.00195867
-0.00218924
-0.00244176
-0.00272056
-0.00302912
-0.00337015
-0.00374568
-0.00415703
-0.0046049
-0.00508934
-0.00560976
-0.00616492
-0.0067529
-0.00737109
-0.0080162
-0.00868425
-0.00937058
-0.0100699
-0.0107762
-0.0114831
-0.0121836
-0.0128703
-0.0135355
-0.0141713
-0.0147697
-0.0153227
-0.0158226
-0.0162618
-0.0166335
-0.0169312
-0.0171494
-0.0172835
-0.0173297
-0.0172859
-0.0171509
-0.0169253
-0.0166109
-0.0162115
-0.0157321
-0.0151799
-0.0145634
-0.0138927
-0.0131794
-0.0124365
-0.0116777
-0.0109178
-0.0101717
-0.00945441
-0.00878029
-0.00816281
-0.00761395
-0.00714378
-0.00676003
-0.00646782
-0.00626944
-0.0061643
-0.00614901
-0.0062176
-0.00636189
-0.00657192
-0.0068365
-0.00714369
-0.00748137
-0.00783762
-0.00820114
-0.0085616
-0.00890967
-0.00923611
-0.00953252
-0.00980662
-0.0100709
6.79805e-05
-0.000437355
-0.000809458
-0.00109873
-0.00135443
-0.00158629
-0.00180351
-0.00201685
-0.00223579
-0.00246827
-0.00272099
-0.00299955
-0.00330855
-0.00365166
-0.00403177
-0.00445103
-0.00491086
-0.00541204
-0.00595464
-0.00653807
-0.00716104
-0.00782152
-0.00851676
-0.00924323
-0.00999669
-0.0107721
-0.0115638
-0.0123653
-0.0131696
-0.0139691
-0.0147557
-0.0155209
-0.0162559
-0.0169519
-0.0175999
-0.0181912
-0.0187173
-0.01917
-0.019542
-0.0198266
-0.020018
-0.0201116
-0.020104
-0.0199931
-0.0197786
-0.0194616
-0.019045
-0.0185334
-0.0179336
-0.017254
-0.0165047
-0.015698
-0.0148475
-0.0139681
-0.013076
-0.0121882
-0.0113218
-0.0104939
-0.00972091
-0.00901774
-0.0083976
-0.0078713
-0.00744679
-0.00712887
-0.00691897
-0.00681513
-0.00681221
-0.00690215
-0.00707452
-0.00731702
-0.00761619
-0.00795799
-0.0083284
-0.00871396
-0.00910218
-0.00948181
-0.00984166
-0.0101717
-0.0104807
-0.010783
-0.000407606
-0.000924489
-0.00130512
-0.00160163
-0.001865
-0.00210576
-0.00233378
-0.00256051
-0.00279594
-0.00304848
-0.00332518
-0.00363196
-0.00397364
-0.00435411
-0.00477643
-0.00524288
-0.00575499
-0.00631362
-0.00691889
-0.00757019
-0.00826619
-0.00900477
-0.009783
-0.0105971
-0.0114427
-0.0123142
-0.0132056
-0.0141099
-0.0150195
-0.0159261
-0.0168209
-0.0176946
-0.0185376
-0.0193399
-0.0200918
-0.0207833
-0.021405
-0.0219475
-0.0224024
-0.0227618
-0.0230189
-0.0231679
-0.0232042
-0.0231249
-0.0229283
-0.0226149
-0.0221865
-0.0216474
-0.0210035
-0.0202629
-0.0194359
-0.0185348
-0.0175737
-0.0165687
-0.0155372
-0.0144981
-0.0134707
-0.0124748
-0.0115298
-0.010654
-0.00986419
-0.00917457
-0.00859653
-0.00813796
-0.0078029
-0.0075914
-0.00749961
-0.00752
-0.00764185
-0.00785193
-0.00813518
-0.00847552
-0.00885658
-0.0092624
-0.00967806
-0.01009
-0.0104848
-0.0108505
-0.0111969
-0.0115403
-0.000958215
-0.0014837
-0.00187101
-0.00217369
-0.00244419
-0.00269378
-0.00293298
-0.00317386
-0.00342692
-0.00370099
-0.00400347
-0.00434057
-0.00471734
-0.0051379
-0.00560546
-0.00612243
-0.0066905
-0.00731057
-0.00798282
-0.00870667
-0.0094807
-0.0103027
-0.0111696
-0.0120775
-0.0130214
-0.0139957
-0.0149938
-0.0160081
-0.0170304
-0.0180518
-0.0190627
-0.0200529
-0.0210118
-0.0219287
-0.0227927
-0.0235928
-0.0243183
-0.0249589
-0.025505
-0.0259475
-0.0262784
-0.0264908
-0.026579
-0.0265389
-0.0263678
-0.026065
-0.0256316
-0.0250708
-0.024388
-0.0235907
-0.0226889
-0.0216947
-0.0206228
-0.0194897
-0.0183142
-0.0171166
-0.0159185
-0.0147422
-0.0136103
-0.0125447
-0.0115658
-0.010692
-0.00993853
-0.00931701
-0.00883477
-0.00849456
-0.0082944
-0.00822778
-0.00828413
-0.00844943
-0.00870709
-0.0090389
-0.00942591
-0.00984936
-0.0102915
-0.0107361
-0.0111672
-0.0115705
-0.011957
-0.012345
-0.00158527
-0.00211625
-0.00250829
-0.00281605
-0.00309311
-0.00335143
-0.00360215
-0.00385791
-0.00412969
-0.0044267
-0.0047567
-0.00512612
-0.0055403
-0.00600352
-0.00651917
-0.00708985
-0.00771731
-0.00840258
-0.00914588
-0.00994663
-0.0108034
-0.0117138
-0.0126747
-0.0136818
-0.0147301
-0.0158133
-0.0169243
-0.0180552
-0.0191971
-0.0203402
-0.0214742
-0.022588
-0.0236703
-0.0247091
-0.0256925
-0.0266085
-0.0274454
-0.0281917
-0.0288365
-0.0293697
-0.0297821
-0.0300656
-0.0302135
-0.0302204
-0.0300826
-0.0297982
-0.0293673
-0.0287922
-0.0280773
-0.0272294
-0.0262579
-0.0251747
-0.0239943
-0.0227339
-0.0214127
-0.0200526
-0.018677
-0.0173107
-0.0159794
-0.0147085
-0.0135226
-0.0124444
-0.0114936
-0.0106862
-0.0100336
-0.00954199
-0.00921198
-0.00903877
-0.0090124
-0.00911845
-0.00933895
-0.00965351
-0.0100404
-0.0104778
-0.0109448
-0.011422
-0.0118905
-0.0123334
-0.0127627
-0.0131987
-0.00228943
-0.00282269
-0.00321745
-0.00352913
-0.00381213
-0.00407904
-0.00434159
-0.00461291
-0.00490442
-0.00522571
-0.00558481
-0.00598845
-0.00644216
-0.00695043
-0.00751684
-0.00814411
-0.00883414
-0.00958804
-0.0104061
-0.0112877
-0.0122314
-0.0132347
-0.0142943
-0.0154057
-0.0165635
-0.0177609
-0.0189906
-0.0202438
-0.021511
-0.0227819
-0.0240451
-0.0252887
-0.0265004
-0.0276673
-0.0287764
-0.0298147
-0.0307692
-0.0316275
-0.0323776
-0.0330082
-0.0335089
-0.0338707
-0.0340855
-0.034147
-0.0340503
-0.0337924
-0.0333723
-0.0327912
-0.0320524
-0.0311618
-0.0301281
-0.0289625
-0.0276791
-0.0262951
-0.0248302
-0.0233072
-0.0217509
-0.0201886
-0.0186485
-0.0171598
-0.0157511
-0.0144499
-0.0132808
-0.0122648
-0.0114181
-0.0107512
-0.0102682
-0.00996684
-0.00983839
-0.00986856
-0.0100383
-0.0103251
-0.0107044
-0.0111509
-0.0116402
-0.0121494
-0.0126561
-0.0131403
-0.0136151
-0.0141031
-0.00307055
-0.00360277
-0.00399817
-0.00431258
-0.00460086
-0.00487617
-0.00515078
-0.00543826
-0.00575043
-0.00609719
-0.00648686
-0.0069264
-0.00742156
-0.00797704
-0.00859656
-0.00928301
-0.0100384
-0.010864
-0.01176
-0.0127259
-0.0137602
-0.0148603
-0.0160227
-0.0172426
-0.0185142
-0.0198304
-0.0211833
-0.0225636
-0.023961
-0.0253643
-0.0267615
-0.0281397
-0.0294856
-0.0307854
-0.032025
-0.0331904
-0.0342675
-0.0352428
-0.0361033
-0.0368366
-0.0374315
-0.0378775
-0.0381658
-0.0382889
-0.0382408
-0.0380174
-0.0376167
-0.0370385
-0.0362852
-0.0353615
-0.034275
-0.0330361
-0.0316582
-0.0301578
-0.028555
-0.0268726
-0.0251368
-0.0233763
-0.0216222
-0.0199068
-0.0182629
-0.0167227
-0.0153161
-0.0140699
-0.0130057
-0.0121391
-0.0114789
-0.0110261
-0.0107742
-0.0107098
-0.010813
-0.0110597
-0.0114222
-0.0118718
-0.0123799
-0.0129198
-0.013465
-0.0139922
-0.0145153
-0.0150592
-0.00392764
-0.00445546
-0.00484938
-0.00516529
-0.00545814
-0.0057416
-0.00602842
-0.00633256
-0.00666616
-0.00703942
-0.00746092
-0.00793783
-0.00847611
-0.00908063
-0.00975528
-0.0105031
-0.0113262
-0.0122259
-0.0132026
-0.0142557
-0.0153836
-0.0165836
-0.017852
-0.0191837
-0.0205725
-0.0220111
-0.0234906
-0.0250014
-0.0265324
-0.0280717
-0.0296062
-0.0311223
-0.0326057
-0.0340415
-0.0354148
-0.0367103
-0.0379133
-0.039009
-0.0399835
-0.0408234
-0.0415166
-0.0420517
-0.0424188
-0.0426095
-0.0426168
-0.0424356
-0.0420627
-0.0414968
-0.040739
-0.0397929
-0.0386648
-0.0373639
-0.0359026
-0.0342965
-0.0325651
-0.0307312
-0.0288214
-0.0268656
-0.024897
-0.0229506
-0.0210632
-0.0192717
-0.0176116
-0.0161155
-0.0148115
-0.0137212
-0.012859
-0.0122303
-0.011832
-0.0116522
-0.0116714
-0.0118635
-0.0121984
-0.0126434
-0.0131657
-0.0137343
-0.014318
-0.0148895
-0.0154637
-0.0160676
-0.00485888
-0.00537892
-0.00576922
-0.00608535
-0.006382
-0.00667328
-0.00697235
-0.0072935
-0.00764917
-0.00804977
-0.00850412
-0.0090196
-0.00960233
-0.0102574
-0.0109887
-0.0117996
-0.0126923
-0.0136682
-0.0147275
-0.0158699
-0.0170936
-0.0183957
-0.0197724
-0.0212182
-0.0227266
-0.0242897
-0.0258982
-0.0275416
-0.0292082
-0.0308852
-0.0325589
-0.0342145
-0.0358369
-0.0374101
-0.0389184
-0.0403455
-0.0416756
-0.0428932
-0.0439834
-0.0449321
-0.0457262
-0.0463536
-0.0468035
-0.0470666
-0.0471351
-0.0470029
-0.0466657
-0.0461213
-0.0453694
-0.0444124
-0.0432551
-0.0419053
-0.0403741
-0.0386758
-0.0368288
-0.0348554
-0.0327818
-0.0306386
-0.02846
-0.0262837
-0.0241497
-0.0220992
-0.0201734
-0.0184112
-0.0168474
-0.0155107
-0.0144219
-0.0135925
-0.0130236
-0.0127061
-0.0126214
-0.0127427
-0.0130373
-0.0134687
-0.0139995
-0.0145938
-0.0152154
-0.0158322
-0.01646
-0.0171281
-0.00586161
-0.00637049
-0.00675502