/*--------------------------------*- C++ -*----------------------------------*\
  =========                 |
  \\      /  F ield         | OpenFOAM: The Open Source CFD Toolbox
   \\    /   O peration     | Website:  https://openfoam.org
    \\  /    A nd           | Version:  7
     \\/     M anipulation  |
\*---------------------------------------------------------------------------*/
FoamFile
{
    version     2.0;
    format      ascii;
    class       volVectorField;
    location    "0.5";
    object      U;
}
// * * * * * * * * * * * * * * * * * * * * * * * * * * * * * * * * * * * * * //

dimensions      [0 1 -1 0 0 0 0];

internalField   nonuniform List<vector> 
6400
(
(9.49143e-06 -9.75201e-06 0)
(2.27208e-05 -7.70755e-06 0)
(1.73937e-05 1.10227e-06 0)
(-1.35843e-05 1.03396e-05 0)
(-6.97788e-05 1.8554e-05 0)
(-0.00014743 2.51812e-05 0)
(-0.000242751 3.02673e-05 0)
(-0.000352032 3.40476e-05 0)
(-0.000472006 3.67758e-05 0)
(-0.000599947 3.86784e-05 0)
(-0.000733634 3.99459e-05 0)
(-0.000871295 4.07323e-05 0)
(-0.00101153 4.11594e-05 0)
(-0.00115327 4.13223e-05 0)
(-0.00129565 4.12926e-05 0)
(-0.00143805 4.11218e-05 0)
(-0.00157994 4.08462e-05 0)
(-0.00172093 4.04894e-05 0)
(-0.00186067 4.00646e-05 0)
(-0.00199886 3.95763e-05 0)
(-0.00213521 3.90225e-05 0)
(-0.00226942 3.83966e-05 0)
(-0.00240117 3.7688e-05 0)
(-0.00253012 3.6883e-05 0)
(-0.00265587 3.59657e-05 0)
(-0.00277799 3.49188e-05 0)
(-0.00289599 3.37245e-05 0)
(-0.00300933 3.23647e-05 0)
(-0.00311742 3.08218e-05 0)
(-0.00321963 2.90788e-05 0)
(-0.00331525 2.71201e-05 0)
(-0.00340357 2.49321e-05 0)
(-0.00348382 2.25036e-05 0)
(-0.00355522 1.98265e-05 0)
(-0.00361695 1.68965e-05 0)
(-0.00366823 1.37133e-05 0)
(-0.00370826 1.02817e-05 0)
(-0.00373627 6.61167e-06 0)
(-0.00375157 2.71885e-06 0)
(-0.00375348 -1.37448e-06 0)
(-0.00374146 -5.64163e-06 0)
(-0.00371502 -1.00473e-05 0)
(-0.00367383 -1.45507e-05 0)
(-0.00361769 -1.91053e-05 0)
(-0.00354654 -2.36591e-05 0)
(-0.00346051 -2.81559e-05 0)
(-0.00335991 -3.25357e-05 0)
(-0.00324521 -3.67362e-05 0)
(-0.00311711 -4.06944e-05 0)
(-0.0029765 -4.43477e-05 0)
(-0.00282443 -4.7636e-05 0)
(-0.00266216 -5.05029e-05 0)
(-0.00249111 -5.28973e-05 0)
(-0.00231284 -5.47751e-05 0)
(-0.00212903 -5.61002e-05 0)
(-0.00194147 -5.68459e-05 0)
(-0.00175202 -5.69951e-05 0)
(-0.00156258 -5.65411e-05 0)
(-0.00137506 -5.54875e-05 0)
(-0.00119135 -5.38482e-05 0)
(-0.00101328 -5.16465e-05 0)
(-0.000842618 -4.89138e-05 0)
(-0.000681029 -4.56888e-05 0)
(-0.000530048 -4.20167e-05 0)
(-0.000391069 -3.79478e-05 0)
(-0.000265332 -3.35349e-05 0)
(-0.000153904 -2.88336e-05 0)
(-5.76714e-05 -2.39012e-05 0)
(2.26707e-05 -1.87987e-05 0)
(8.66342e-05 -1.35853e-05 0)
(0.000133958 -8.32449e-06 0)
(0.00016464 -3.10011e-06 0)
(0.000178998 1.98797e-06 0)
(0.000177748 6.79548e-06 0)
(0.000162174 1.1106e-05 0)
(0.000134379 1.45519e-05 0)
(9.7644e-05 1.65282e-05 0)
(5.69937e-05 1.60146e-05 0)
(2.08066e-05 1.14779e-05 0)
(2.57912e-06 2.62803e-06 0)
(7.49805e-06 -2.2789e-05 0)
(2.0709e-06 -2.31918e-06 0)
(-5.1905e-05 4.14662e-05 0)
(-0.000163059 8.86336e-05 0)
(-0.000330807 0.000132303 0)
(-0.000549657 0.000169613 0)
(-0.000812261 0.000199999 0)
(-0.00111087 0.000223929 0)
(-0.00143817 0.000242233 0)
(-0.00178769 0.000255821 0)
(-0.00215389 0.000265559 0)
(-0.00253217 0.000272208 0)
(-0.00291874 0.000276418 0)
(-0.00331057 0.00027872 0)
(-0.00370518 0.000279532 0)
(-0.00410062 0.000279177 0)
(-0.0044953 0.000277891 0)
(-0.00488788 0.000275839 0)
(-0.00527723 0.000273123 0)
(-0.00566233 0.000269795 0)
(-0.00604222 0.000265866 0)
(-0.00641593 0.000261314 0)
(-0.00678248 0.000256092 0)
(-0.00714079 0.000250132 0)
(-0.00748973 0.000243354 0)
(-0.00782803 0.000235664 0)
(-0.00815433 0.000226965 0)
(-0.00846712 0.000217161 0)
(-0.00876479 0.000206153 0)
(-0.0090456 0.000193849 0)
(-0.0093077 0.000180168 0)
(-0.00954918 0.000165039 0)
(-0.009768 0.000148406 0)
(-0.00996212 0.000130235 0)
(-0.0101295 0.000110514 0)
(-0.0102679 8.92551e-05 0)
(-0.0103756 6.65018e-05 0)
(-0.0104504 4.23282e-05 0)
(-0.0104906 1.68427e-05 0)
(-0.0104946 -9.81043e-06 0)
(-0.0104609 -3.74508e-05 0)
(-0.0103886 -6.5861e-05 0)
(-0.0102767 -9.47887e-05 0)
(-0.0101248 -0.000123949 0)
(-0.00993292 -0.000153027 0)
(-0.00970142 -0.000181684 0)
(-0.00943116 -0.000209563 0)
(-0.00912348 -0.000236294 0)
(-0.00878021 -0.000261505 0)
(-0.00840366 -0.000284828 0)
(-0.0079966 -0.000305909 0)
(-0.00756229 -0.000324415 0)
(-0.00710437 -0.000340045 0)
(-0.00662687 -0.000352538 0)
(-0.00613411 -0.000361677 0)
(-0.00563068 -0.000367297 0)
(-0.00512137 -0.000369289 0)
(-0.00461105 -0.000367601 0)
(-0.00410466 -0.000362239 0)
(-0.00360708 -0.000353268 0)
(-0.00312309 -0.000340806 0)
(-0.0026573 -0.000325022 0)
(-0.00221407 -0.000306129 0)
(-0.00179748 -0.000284381 0)
(-0.00141124 -0.000260064 0)
(-0.00105869 -0.000233494 0)
(-0.000742713 -0.00020501 0)
(-0.000465739 -0.000174977 0)
(-0.000229665 -0.000143789 0)
(-3.58148e-05 -0.000111873 0)
(0.00011512 -7.97139e-05 0)
(0.000223204 -4.78816e-05 0)
(0.000289416 -1.70999e-05 0)
(0.000315852 1.16876e-05 0)
(0.000306062 3.71749e-05 0)
(0.000265507 5.74975e-05 0)
(0.000202039 6.99846e-05 0)
(0.000126412 7.08416e-05 0)
(5.47518e-05 5.51893e-05 0)
(1.11965e-05 2.06717e-05 0)
(-1.07066e-06 -1.76164e-05 0)
(-4.22385e-05 5.19254e-05 0)
(-0.000163552 0.000161306 0)
(-0.000366275 0.000277984 0)
(-0.00064753 0.000387583 0)
(-0.00100077 0.000483572 0)
(-0.00141678 0.00056385 0)
(-0.00188548 0.000628724 0)
(-0.00239709 0.00067962 0)
(-0.00294266 0.000718396 0)
(-0.00351433 0.000746971 0)
(-0.00410534 0.000767141 0)
(-0.00471004 0.000780491 0)
(-0.00532374 0.00078836 0)
(-0.00594257 0.000791838 0)
(-0.00656335 0.000791779 0)
(-0.00718344 0.000788828 0)
(-0.00780061 0.000783447 0)
(-0.00841289 0.000775935 0)
(-0.00901853 0.00076646 0)
(-0.00961586 0.000755079 0)
(-0.0102032 0.000741758 0)
(-0.010779 0.000726393 0)
(-0.0113413 0.000708824 0)
(-0.0118884 0.000688853 0)
(-0.0124181 0.00066625 0)
(-0.0129284 0.000640774 0)
(-0.0134168 0.000612175 0)
(-0.0138809 0.00058021 0)
(-0.0143179 0.00054465 0)
(-0.014725 0.000505293 0)
(-0.0150994 0.000461967 0)
(-0.0154378 0.000414547 0)
(-0.0157373 0.000362958 0)
(-0.0159947 0.00030719 0)
(-0.0162069 0.000247299 0)
(-0.0163711 0.000183424 0)
(-0.0164842 0.000115786 0)
(-0.0165437 4.46947e-05 0)
(-0.0165473 -2.94436e-05 0)
(-0.016493 -0.000106127 0)
(-0.0163792 -0.00018476 0)
(-0.0162048 -0.000264658 0)
(-0.0159693 -0.000345052 0)
(-0.0156727 -0.000425098 0)
(-0.0153158 -0.00050389 0)
(-0.0148999 -0.00058048 0)
(-0.0144272 -0.000653889 0)
(-0.0139003 -0.000723133 0)
(-0.0133229 -0.000787241 0)
(-0.0126992 -0.000845281 0)
(-0.012034 -0.00089638 0)
(-0.0113327 -0.000939744 0)
(-0.0106014 -0.000974683 0)
(-0.00984644 -0.00100062 0)
(-0.00907475 -0.00101712 0)
(-0.00829339 -0.00102388 0)
(-0.00750961 -0.00102075 0)
(-0.00673074 -0.00100773 0)
(-0.00596407 -0.00098497 0)
(-0.00521673 -0.00095276 0)
(-0.00449561 -0.000911525 0)
(-0.00380725 -0.000861808 0)
(-0.0031578 -0.000804264 0)
(-0.00255286 -0.000739641 0)
(-0.0019975 -0.000668775 0)
(-0.00149612 -0.000592584 0)
(-0.0010524 -0.000512065 0)
(-0.00066925 -0.000428313 0)
(-0.000348688 -0.000342547 0)
(-9.17295e-05 -0.000256161 0)
(0.000101761 -0.000170788 0)
(0.000233303 -8.84476e-05 0)
(0.000306073 -1.17032e-05 0)
(0.000325296 5.60891e-05 0)
(0.000298726 0.000110483 0)
(0.000237029 0.000145607 0)
(0.000154105 0.000153927 0)
(7.00976e-05 0.000126563 0)
(1.54517e-05 5.61678e-05 0)
(-1.06769e-05 1.41173e-05 0)
(-9.23059e-05 0.000165698 0)
(-0.000288112 0.000365622 0)
(-0.000587343 0.000573073 0)
(-0.000982524 0.000767857 0)
(-0.00146542 0.000940029 0)
(-0.00202521 0.00108589 0)
(-0.00265019 0.00120544 0)
(-0.00332892 0.00130062 0)
(-0.00405083 0.00137426 0)
(-0.00480641 0.00142943 0)
(-0.00558739 0.00146911 0)
(-0.00638669 0.001496 0)
(-0.00719831 0.00151243 0)
(-0.00801721 0.00152033 0)
(-0.00883918 0.00152123 0)
(-0.00966063 0.00151632 0)
(-0.0104785 0.00150645 0)
(-0.01129 0.00149221 0)
(-0.0120927 0.00147391 0)
(-0.0128842 0.0014517 0)
(-0.0136622 0.00142554 0)
(-0.0144244 0.00139527 0)
(-0.0151683 0.00136061 0)
(-0.0158913 0.00132123 0)
(-0.0165908 0.00127672 0)
(-0.0172637 0.00122666 0)
(-0.017907 0.00117061 0)
(-0.0185173 0.00110816 0)
(-0.0190911 0.00103889 0)
(-0.0196247 0.000962459 0)
(-0.0201144 0.000878584 0)
(-0.0205561 0.000787057 0)
(-0.020946 0.000687774 0)
(-0.0212801 0.000580743 0)
(-0.0215545 0.000466107 0)
(-0.0217654 0.000344149 0)
(-0.0219092 0.00021531 0)
(-0.0219829 8.01966e-05 0)
(-0.0219834 -6.04139e-05 0)
(-0.0219084 -0.000205572 0)
(-0.0217559 -0.000354158 0)
(-0.0215248 -0.000504891 0)
(-0.0212146 -0.00065634 0)
(-0.0208253 -0.000806947 0)
(-0.0203582 -0.000955042 0)
(-0.019815 -0.00109888 0)
(-0.0191985 -0.00123667 0)
(-0.0185125 -0.00136662 0)
(-0.0177615 -0.00148696 0)
(-0.0169508 -0.00159598 0)
(-0.0160867 -0.0016921 0)
(-0.0151762 -0.00177389 0)
(-0.0142269 -0.00184008 0)
(-0.013247 -0.00188962 0)
(-0.0122451 -0.00192172 0)
(-0.0112302 -0.00193581 0)
(-0.0102114 -0.00193163 0)
(-0.00919815 -0.00190915 0)
(-0.00819953 -0.00186862 0)
(-0.00722461 -0.00181057 0)
(-0.00628211 -0.00173574 0)
(-0.00538035 -0.00164511 0)
(-0.00452711 -0.00153986 0)
(-0.00372954 -0.00142137 0)
(-0.00299408 -0.00129115 0)
(-0.00232636 -0.00115092 0)
(-0.00173107 -0.00100254 0)
(-0.00121191 -0.000848082 0)
(-0.00077143 -0.000689855 0)
(-0.000410904 -0.000530507 0)
(-0.00013012 -0.000373143 0)
(7.28511e-05 -0.00022151 0)
(0.000201962 -8.02555e-05 0)
(0.000263571 4.47603e-05 0)
(0.00026689 0.000146082 0)
(0.000224272 0.000214297 0)
(0.000151451 0.000237822 0)
(7.0788e-05 0.000203171 0)
(1.59488e-05 9.61365e-05 0)
(-1.98383e-05 7.3086e-05 0)
(-0.000141695 0.0003416 0)
(-0.00041258 0.000656138 0)
(-0.000808295 0.0009725 0)
(-0.00131532 0.00126727 0)
(-0.00192289 0.00152832 0)
(-0.00261836 0.00175092 0)
(-0.00338849 0.00193496 0)
(-0.00422061 0.00208294 0)
(-0.00510292 0.00219866 0)
(-0.00602479 0.00228638 0)
(-0.00697682 0.0023503 0)
(-0.00795088 0.00239431 0)
(-0.00893998 0.00242179 0)
(-0.00993815 0.00243562 0)
(-0.0109403 0.00243809 0)
(-0.011942 0.002431 0)
(-0.0129395 0.00241566 0)
(-0.0139293 0.00239297 0)
(-0.0149083 0.00236346 0)
(-0.0158734 0.00232737 0)
(-0.0168218 0.00228467 0)
(-0.0177503 0.00223513 0)
(-0.018656 0.00217837 0)
(-0.0195356 0.00211388 0)
(-0.0203857 0.00204109 0)
(-0.0212027 0.00195935 0)
(-0.0219828 0.00186802 0)
(-0.022722 0.00176648 0)
(-0.0234159 0.00165415 0)
(-0.0240602 0.00153051 0)
(-0.0246502 0.00139515 0)
(-0.0251814 0.00124781 0)
(-0.0256491 0.00108836 0)
(-0.0260485 0.000916861 0)
(-0.0263752 0.000733575 0)
(-0.0266246 0.000538991 0)
(-0.0267928 0.000333837 0)
(-0.026876 0.000119097 0)
(-0.0268709 -0.000103983 0)
(-0.0267748 -0.000333895 0)
(-0.0265856 -0.000568873 0)
(-0.026302 -0.000806908 0)
(-0.0259236 -0.00104576 0)
(-0.0254508 -0.00128302 0)
(-0.0248849 -0.00151608 0)
(-0.0242284 -0.00174226 0)
(-0.0234846 -0.0019588 0)
(-0.0226581 -0.00216292 0)
(-0.0217543 -0.00235193 0)
(-0.0207796 -0.00252321 0)
(-0.0197416 -0.00267434 0)
(-0.0186484 -0.00280312 0)
(-0.0175091 -0.00290762 0)
(-0.0163333 -0.00298626 0)
(-0.0151313 -0.0030378 0)
(-0.0139134 -0.00306139 0)
(-0.0126907 -0.00305661 0)
(-0.0114738 -0.00302342 0)
(-0.0102737 -0.0029622 0)
(-0.0091008 -0.00287374 0)
(-0.00796547 -0.00275917 0)
(-0.00687741 -0.00261999 0)
(-0.00584573 -0.00245801 0)
(-0.00487881 -0.00227534 0)
(-0.00398418 -0.00207435 0)
(-0.0031684 -0.00185769 0)
(-0.00243697 -0.00162828 0)
(-0.00179417 -0.00138939 0)
(-0.00124294 -0.00114464 0)
(-0.00078471 -0.000898214 0)
(-0.000419197 -0.000654944 0)
(-0.000144149 -0.000420599 0)
(4.49411e-05 -0.000202174 0)
(0.000155193 -8.26244e-06 0)
(0.000196735 0.000150522 0)
(0.000182934 0.000261143 0)
(0.000130603 0.00030789 0)
(6.30686e-05 0.000272414 0)
(1.45031e-05 0.000133523 0)
(-2.79764e-05 0.000157278 0)
(-0.000187645 0.000577774 0)
(-0.000530748 0.0010314 0)
(-0.00101969 0.00147437 0)
(-0.00163435 0.00188258 0)
(-0.00236084 0.0022433 0)
(-0.0031843 0.00255162 0)
(-0.00408992 0.00280781 0)
(-0.0050638 0.00301515 0)
(-0.00609319 0.00317851 0)
(-0.00716656 0.00330338 0)
(-0.00827372 0.00339523 0)
(-0.00940572 0.00345916 0)
(-0.0105548 0.00349968 0)
(-0.0117143 0.00352062 0)
(-0.0128784 0.00352508 0)
(-0.0140421 0.00351551 0)
(-0.0152008 0.00349371 0)
(-0.0163506 0.00346095 0)
(-0.0174877 0.00341797 0)
(-0.0186084 0.00336511 0)
(-0.0197092 0.00330238 0)
(-0.0207866 0.00322947 0)
(-0.0218368 0.00314588 0)
(-0.0228562 0.00305094 0)
(-0.0238406 0.00294385 0)
(-0.0247858 0.00282378 0)
(-0.0256874 0.00268984 0)
(-0.0265406 0.0025412 0)
(-0.0273406 0.00237709 0)
(-0.0280822 0.00219683 0)
(-0.0287603 0.0019999 0)
(-0.0293696 0.00178596 0)
(-0.0299046 0.0015549 0)
(-0.0303602 0.00130686 0)
(-0.0307311 0.00104226 0)
(-0.0310126 0.000761858 0)
(-0.0311999 0.000466724 0)
(-0.031289 0.000158301 0)
(-0.0312762 -0.000161607 0)
(-0.0311587 -0.000490835 0)
(-0.0309342 -0.000826859 0)
(-0.0306015 -0.00116682 0)
(-0.03016 -0.00150756 0)
(-0.0296105 -0.00184564 0)
(-0.0289548 -0.00217744 0)
(-0.0281956 -0.00249917 0)
(-0.027337 -0.00280698 0)
(-0.0263842 -0.00309699 0)
(-0.0253435 -0.00336543 0)
(-0.0242224 -0.00360868 0)
(-0.0230294 -0.00382336 0)
(-0.0217738 -0.00400643 0)
(-0.0204659 -0.00415523 0)
(-0.0191167 -0.00426754 0)
(-0.0177377 -0.00434168 0)
(-0.0163408 -0.00437647 0)
(-0.0149382 -0.00437132 0)
(-0.0135421 -0.0043262 0)
(-0.0121647 -0.00424165 0)
(-0.0108179 -0.00411876 0)
(-0.00951319 -0.00395912 0)
(-0.00826144 -0.00376484 0)
(-0.00707287 -0.00353843 0)
(-0.00595683 -0.00328287 0)
(-0.00492171 -0.00300149 0)
(-0.0039748 -0.00269805 0)
(-0.00312215 -0.00237669 0)
(-0.00236848 -0.00204202 0)
(-0.00171697 -0.00169921 0)
(-0.00116912 -0.00135413 0)
(-0.000724551 -0.00101357 0)
(-0.000380726 -0.000685509 0)
(-0.000132716 -0.00037945 0)
(2.7134e-05 -0.000106843 0)
(0.000109542 0.000118483 0)
(0.000128488 0.000279878 0)
(0.000101391 0.000357562 0)
(5.16903e-05 0.000328463 0)
(1.23255e-05 0.000165285 0)
(-3.5077e-05 0.00026443 0)
(-0.000229386 0.000870432 0)
(-0.000640094 0.0014872 0)
(-0.00121713 0.00207408 0)
(-0.00193375 0.0026084 0)
(-0.00277263 0.00307837 0)
(-0.00371644 0.00347995 0)
(-0.00474859 0.0038144 0)
(-0.00585396 0.00408614 0)
(-0.00701889 0.00430133 0)
(-0.0082311 0.00446679 0)
(-0.00947972 0.00458932 0)
(-0.0107552 0.00467525 0)
(-0.0120493 0.00473023 0)
(-0.0133547 0.00475906 0)
(-0.014665 0.0047657 0)
(-0.0159747 0.00475324 0)
(-0.0172787 0.004724 0)
(-0.0185725 0.0046796 0)
(-0.0198517 0.00462102 0)
(-0.0211124 0.00454872 0)
(-0.0223503 0.00446271 0)
(-0.0235614 0.00436263 0)
(-0.0247415 0.00424784 0)
(-0.0258862 0.00411748 0)
(-0.026991 0.00397056 0)
(-0.028051 0.003806 0)
(-0.0290612 0.0036227 0)
(-0.0300163 0.00341959 0)
(-0.0309108 0.00319569 0)
(-0.0317391 0.00295018 0)
(-0.0324952 0.00268243 0)
(-0.0331734 0.00239204 0)
(-0.0337677 0.00207894 0)
(-0.0342723 0.00174336 0)
(-0.0346816 0.00138595 0)
(-0.0349901 0.00100776 0)
(-0.0351928 0.000610279 0)
(-0.0352854 0.000195476 0)
(-0.0352638 -0.000234206 0)
(-0.035125 -0.00067585 0)
(-0.0348667 -0.00112607 0)
(-0.0344875 -0.00158107 0)
(-0.0339872 -0.00203662 0)
(-0.0333667 -0.00248819 0)
(-0.0326279 -0.00293097 0)
(-0.0317743 -0.00335997 0)
(-0.0308103 -0.0037701 0)
(-0.029742 -0.0041563 0)
(-0.0285765 -0.0045136 0)
(-0.0273219 -0.00483727 0)
(-0.025988 -0.0051229 0)
(-0.0245851 -0.0053665 0)
(-0.0231246 -0.00556462 0)
(-0.0216187 -0.0057144 0)
(-0.0200802 -0.00581362 0)
(-0.0185221 -0.0058608 0)
(-0.0169581 -0.00585518 0)
(-0.0154015 -0.00579675 0)
(-0.0138658 -0.00568625 0)
(-0.0123639 -0.00552512 0)
(-0.0109084 -0.0053155 0)
(-0.00951126 -0.00506016 0)
(-0.00818357 -0.00476247 0)
(-0.00693549 -0.00442633 0)
(-0.00577606 -0.00405621 0)
(-0.00471311 -0.00365708 0)
(-0.00375312 -0.00323443 0)
(-0.00290105 -0.0027944 0)
(-0.0021602 -0.00234384 0)
(-0.00153208 -0.00189047 0)
(-0.00101611 -0.00144319 0)
(-0.000609514 -0.00101229 0)
(-0.000306983 -0.000609894 0)
(-0.000100443 -0.000250357 0)
(2.12511e-05 4.92774e-05 0)
(7.24767e-05 0.000268829 0)
(7.09761e-05 0.000384631 0)
(3.98612e-05 0.000369277 0)
(1.01233e-05 0.000190529 0)
(-4.12842e-05 0.00039217 0)
(-0.00026699 0.00121504 0)
(-0.000740035 0.00201807 0)
(-0.00139909 0.00276559 0)
(-0.00221117 0.00343812 0)
(-0.00315541 0.00402617 0)
(-0.00421184 0.00452761 0)
(-0.005362 0.00494538 0)
(-0.00658947 0.00528551 0)
(-0.00787964 0.0055557 0)
(-0.00921956 0.00576426 0)
(-0.0105978 0.00591941 0)
(-0.0120043 0.00602877 0)
(-0.0134304 0.00609914 0)
(-0.0148682 0.00613632 0)
(-0.0163111 0.00614509 0)
(-0.017753 0.00612922 0)
(-0.0191885 0.00609154 0)
(-0.0206126 0.00603402 0)
(-0.0220205 0.00595787 0)
(-0.0234076 0.00586366 0)
(-0.0247694 0.00575142 0)
(-0.0261014 0.0056207 0)
(-0.0273989 0.00547072 0)
(-0.0286569 0.00530045 0)
(-0.0298705 0.00510865 0)
(-0.0310343 0.00489402 0)
(-0.0321427 0.00465519 0)
(-0.0331899 0.00439089 0)
(-0.0341698 0.00409992 0)
(-0.0350763 0.00378131 0)
(-0.0359029 0.00343431 0)
(-0.0366433 0.00305851 0)
(-0.0372909 0.00265386 0)
(-0.0378395 0.00222075 0)
(-0.038283 0.00176005 0)
(-0.0386154 0.00127317 0)
(-0.0388315 0.000762079 0)
(-0.0389263 0.00022933 0)
(-0.0388958 -0.00032192 0)
(-0.0387365 -0.000887917 0)
(-0.0384462 -0.00146433 0)
(-0.0380235 -0.00204629 0)
(-0.0374681 -0.00262844 0)
(-0.0367811 -0.00320501 0)
(-0.035965 -0.0037699 0)
(-0.0350233 -0.0043168 0)
(-0.0339614 -0.0048393 0)
(-0.0327857 -0.00533098 0)
(-0.031504 -0.00578563 0)
(-0.0301257 -0.00619727 0)
(-0.0286611 -0.00656039 0)
(-0.0271217 -0.00687 0)
(-0.0255201 -0.00712177 0)
(-0.0238695 -0.00731215 0)
(-0.0221839 -0.00743839 0)
(-0.0204778 -0.00749868 0)
(-0.0187656 -0.0074921 0)
(-0.0170622 -0.0074187 0)
(-0.015382 -0.00727946 0)
(-0.0137391 -0.00707625 0)
(-0.0121471 -0.00681182 0)
(-0.0106188 -0.00648972 0)
(-0.00916613 -0.00611425 0)
(-0.00779987 -0.00569041 0)
(-0.00652963 -0.00522387 0)
(-0.00536366 -0.00472097 0)
(-0.00430869 -0.00418871 0)
(-0.00336983 -0.00363486 0)
(-0.0025504 -0.00306809 0)
(-0.00185177 -0.00249812 0)
(-0.00127316 -0.00193601 0)
(-0.000811478 -0.0013945 0)
(-0.000461039 -0.000888371 0)
(-0.000213374 -0.000434892 0)
(-5.69606e-05 -5.42753e-05 0)
(2.29066e-05 0.000229882 0)
(4.41974e-05 0.000390268 0)
(2.96178e-05 0.000395591 0)
(8.29348e-06 0.000209716 0)
(-4.67485e-05 0.000538325 0)
(-0.000300804 0.00160699 0)
(-0.000830866 0.00261815 0)
(-0.00156562 0.00354239 0)
(-0.0024663 0.00436473 0)
(-0.00350864 0.00507921 0)
(-0.00467 0.00568654 0)
(-0.00592996 0.00619203 0)
(-0.00727075 0.00660381 0)
(-0.00867682 0.00693145 0)
(-0.0101345 0.00718497 0)
(-0.0116319 0.0073741 0)
(-0.0131585 0.00750784 0)
(-0.0147052 0.00759415 0)
(-0.016264 0.00763984 0)
(-0.0178277 0.00765054 0)
(-0.01939 0.00763067 0)
(-0.0209452 0.00758356 0)
(-0.0224877 0.00751153 0)
(-0.0240126 0.00741602 0)
(-0.0255148 0.00729769 0)
(-0.0269894 0.00715655 0)
(-0.0284316 0.00699209 0)
(-0.0298361 0.00680337 0)
(-0.0311976 0.00658914 0)
(-0.0325107 0.00634795 0)
(-0.0337694 0.00607822 0)
(-0.0349679 0.00577834 0)
(-0.0360997 0.00544679 0)
(-0.0371582 0.00508218 0)
(-0.0381369 0.00468336 0)
(-0.0390286 0.00424949 0)
(-0.0398266 0.00378011 0)
(-0.0405238 0.00327525 0)
(-0.0411135 0.00273546 0)
(-0.041589 0.00216188 0)
(-0.0419441 0.0015563 0)
(-0.0421729 0.000921218 0)
(-0.0422703 0.000259833 0)
(-0.0422319 -0.000423913 0)
(-0.042054 -0.00112535 0)
(-0.0417342 -0.00183912 0)
(-0.041271 -0.0025592 0)
(-0.0406643 -0.00327897 0)
(-0.0399153 -0.00399132 0)
(-0.0390267 -0.00468878 0)
(-0.0380025 -0.00536358 0)
(-0.0368483 -0.00600785 0)
(-0.0355713 -0.00661376 0)
(-0.0341802 -0.00717369 0)
(-0.0326849 -0.00768037 0)
(-0.0310968 -0.00812705 0)
(-0.0294284 -0.00850768 0)
(-0.0276934 -0.00881701 0)
(-0.0259062 -0.00905071 0)
(-0.0240819 -0.00920553 0)
(-0.0222362 -0.00927926 0)
(-0.0203849 -0.00927089 0)
(-0.0185439 -0.00918055 0)
(-0.0167287 -0.00900949 0)
(-0.0149547 -0.00876013 0)
(-0.0132362 -0.00843589 0)
(-0.0115871 -0.00804122 0)
(-0.0100199 -0.00758147 0)
(-0.0085461 -0.00706287 0)
(-0.00717573 -0.00649243 0)
(-0.00591738 -0.005878 0)
(-0.00477795 -0.00522821 0)
(-0.0037626 -0.00455262 0)
(-0.00287455 -0.0038618 0)
(-0.00211497 -0.0031676 0)
(-0.00148279 -0.00248335 0)
(-0.000974517 -0.00182427 0)
(-0.000584059 -0.00120784 0)
(-0.000302496 -0.000654248 0)
(-0.000117877 -0.000186825 0)
(-1.51145e-05 0.000167535 0)
(2.40535e-05 0.000378085 0)
(2.2145e-05 0.00041005 0)
(7.0375e-06 0.000224132 0)
(-5.15964e-05 0.000700985 0)
(-0.000331239 0.00204195 0)
(-0.000913245 0.00328165 0)
(-0.00171746 0.00439786 0)
(-0.00269992 0.00538114 0)
(-0.00383313 0.00623002 0)
(-0.00509185 0.00694889 0)
(-0.00645373 0.00754609 0)
(-0.00789961 0.00803234 0)
(-0.00941297 0.00841945 0)
(-0.0109795 0.00871933 0)
(-0.0125867 0.0089434 0)
(-0.0142238 0.00910209 0)
(-0.0158813 0.00920462 0)
(-0.0175509 0.00925881 0)
(-0.0192253 0.00927113 0)
(-0.0208979 0.00924664 0)
(-0.0225625 0.00918918 0)
(-0.0242136 0.00910141 0)
(-0.0258456 0.00898495 0)
(-0.0274535 0.00884056 0)
(-0.0290318 0.00866822 0)
(-0.0305753 0.00846733 0)
(-0.0320785 0.00823676 0)
(-0.0335358 0.00797506 0)
(-0.0349411 0.00768051 0)
(-0.0362882 0.00735126 0)
(-0.0375707 0.00698545 0)
(-0.0387817 0.00658128 0)
(-0.0399143 0.00613716 0)
(-0.0409612 0.00565176 0)
(-0.0419149 0.00512413 0)
(-0.0427681 0.00455379 0)
(-0.0435133 0.00394084 0)
(-0.0441432 0.00328599 0)
(-0.0446506 0.00259069 0)
(-0.0450289 0.00185714 0)
(-0.0452718 0.0010884 0)
(-0.0453736 0.000288374 0)
(-0.0453298 -0.000538155 0)
(-0.0451363 -0.00138554 0)
(-0.0447904 -0.00224728 0)
(-0.0442907 -0.00311612 0)
(-0.0436369 -0.0039841 0)
(-0.0428304 -0.00484266 0)
(-0.0418739 -0.00568281 0)
(-0.0407719 -0.00649522 0)
(-0.0395304 -0.00727046 0)
(-0.0381572 -0.00799915 0)
(-0.0366615 -0.00867215 0)
(-0.0350541 -0.00928078 0)
(-0.0333474 -0.00981697 0)
(-0.0315549 -0.0102735 0)
(-0.0296913 -0.0106441 0)
(-0.0277722 -0.0109238 0)
(-0.0258141 -0.0111085 0)
(-0.0238337 -0.0111958 0)
(-0.0218483 -0.0111846 0)
(-0.0198748 -0.011075 0)
(-0.0179302 -0.0108688 0)
(-0.0160308 -0.0105689 0)
(-0.014192 -0.0101795 0)
(-0.0124285 -0.0097061 0)
(-0.0107538 -0.00915528 0)
(-0.00917972 -0.00853459 0)
(-0.00771693 -0.00785258 0)
(-0.00637423 -0.00711871 0)
(-0.00515867 -0.00634342 0)
(-0.00407536 -0.00553818 0)
(-0.00312737 -0.00471561 0)
(-0.00231557 -0.00388976 0)
(-0.00163851 -0.00307632 0)
(-0.00109224 -0.00229308 0)
(-0.00067012 -0.00156023 0)
(-0.000362689 -0.000900888 0)
(-0.000157439 -0.000341472 0)
(-3.87444e-05 8.79085e-05 0)
(1.21631e-05 0.000353212 0)
(1.80425e-05 0.000416421 0)
(6.4389e-06 0.000235493 0)
(-5.5928e-05 0.000878485 0)
(-0.00035869 0.0025159 0)
(-0.000987938 0.00400308 0)
(-0.0018557 0.0053256 0)
(-0.00291335 0.00648039 0)
(-0.0041304 0.0074713 0)
(-0.00547918 0.00830707 0)
(-0.00693545 0.00899972 0)
(-0.00847869 0.009563 0)
(-0.0100914 0.0100113 0)
(-0.0117586 0.0103587 0)
(-0.0134672 0.0106184 0)
(-0.0152063 0.0108024 0)
(-0.016966 0.0109213 0)
(-0.0187378 0.0109839 0)
(-0.0205141 0.0109975 0)
(-0.0222882 0.0109678 0)
(-0.0240538 0.0108992 0)
(-0.025805 0.0107946 0)
(-0.0275362 0.0106559 0)
(-0.0292419 0.0104839 0)
(-0.0309165 0.0102784 0)
(-0.0325544 0.0100388 0)
(-0.0341499 0.00976383 0)
(-0.035697 0.00945168 0)
(-0.0371892 0.0091004 0)
(-0.03862 0.00870786 0)
(-0.0399826 0.0082719 0)
(-0.0412696 0.00779045 0)
(-0.0424737 0.00726167 0)
(-0.043587 0.00668406 0)
(-0.0446017 0.00605654 0)
(-0.0455099 0.00537861 0)
(-0.0463036 0.00465041 0)
(-0.0469748 0.00387285 0)
(-0.047516 0.00304766 0)
(-0.04792 0.00217752 0)
(-0.04818 0.00126605 0)
(-0.04829 0.00031792 0)
(-0.0482447 -0.000661203 0)
(-0.04804 -0.00166461 0)
(-0.0476729 -0.00268463 0)
(-0.0471416 -0.00371264 0)
(-0.0464458 -0.00473924 0)
(-0.0455868 -0.00575433 0)
(-0.0445676 -0.00674726 0)
(-0.0433927 -0.00770705 0)
(-0.0420686 -0.00862256 0)
(-0.0406035 -0.00948273 0)
(-0.0390073 -0.0102768 0)
(-0.0372916 -0.0109945 0)
(-0.0354696 -0.0116264 0)
(-0.0335558 -0.0121639 0)
(-0.0315661 -0.0125998 0)
(-0.0295174 -0.0129281 0)
(-0.0274272 -0.0131442 0)
(-0.0253139 -0.0132452 0)
(-0.0231958 -0.0132299 0)
(-0.0210915 -0.0130987 0)
(-0.0190192 -0.0128537 0)
(-0.0169962 -0.0124984 0)
(-0.0150394 -0.0120382 0)
(-0.0131643 -0.0114795 0)
(-0.0113852 -0.0108303 0)
(-0.00971476 -0.0100997 0)
(-0.008164 -0.00929791 0)
(-0.00674206 -0.00843622 0)
(-0.00545609 -0.00752701 0)
(-0.00431117 -0.00658382 0)
(-0.00331011 -0.00562148 0)
(-0.00245345 -0.00465632 0)
(-0.00173923 -0.00370654 0)
(-0.00116293 -0.00279251 0)
(-0.000717271 -0.00193723 0)
(-0.000392066 -0.00116675 0)
(-0.000174062 -0.000510589 0)
(-4.68474e-05 -2.06887e-06 0)
(9.15522e-06 0.000321533 0)
(1.75057e-05 0.000419009 0)
(6.50984e-06 0.000245688 0)
(-5.98221e-05 0.00106937 0)
(-0.000383508 0.00302522 0)
(-0.00105571 0.00477731 0)
(-0.00198149 0.00631953 0)
(-0.0031081 0.00765583 0)
(-0.00440232 0.00879602 0)
(-0.00583421 0.00975385 0)
(-0.00737775 0.0105455 0)
(-0.0090111 0.0111882 0)
(-0.0107158 0.0116993 0)
(-0.0124762 0.0120951 0)
(-0.0142788 0.0123911 0)
(-0.0161123 0.0126008 0)
(-0.0179665 0.0127361 0)
(-0.0198329 0.012807 0)
(-0.0217038 0.0128216 0)
(-0.0235721 0.0127863 0)
(-0.0254315 0.0127059 0)
(-0.0272759 0.0125838 0)
(-0.0290996 0.0124218 0)
(-0.0308969 0.0122208 0)
(-0.032662 0.0119808 0)
(-0.0343891 0.0117008 0)
(-0.0360722 0.0113793 0)
(-0.0377049 0.0110143 0)
(-0.0392806 0.0106036 0)
(-0.0407923 0.0101447 0)
(-0.0422329 0.00963508 0)
(-0.0435946 0.00907242 0)
(-0.0448696 0.0084546 0)
(-0.0460496 0.00777991 0)
(-0.0471264 0.00704713 0)
(-0.0480913 0.0062557 0)
(-0.0489359 0.00540582 0)
(-0.0496518 0.00449857 0)
(-0.0502307 0.003536 0)
(-0.0506649 0.00252122 0)
(-0.0509471 0.00145848 0)
(-0.0510707 0.000353211 0)
(-0.05103 -0.000787958 0)
(-0.0508204 -0.00195722 0)
(-0.0504384 -0.00314561 0)
(-0.049882 -0.00434312 0)
(-0.0491507 -0.00553879 0)
(-0.0482455 -0.00672084 0)
(-0.0471695 -0.00787689 0)
(-0.0459275 -0.00899413 0)
(-0.044526 -0.0100596 0)
(-0.0429736 -0.0110604 0)
(-0.0412809 -0.011984 0)
(-0.0394601 -0.0128185 0)
(-0.0375252 -0.0135528 0)
(-0.0354918 -0.0141771 0)
(-0.0333769 -0.0146827 0)
(-0.0311985 -0.0150628 0)
(-0.0289758 -0.0153121 0)
(-0.0267284 -0.0154273 0)
(-0.0244762 -0.015407 0)
(-0.0222392 -0.0152518 0)
(-0.0200371 -0.0149642 0)
(-0.0178887 -0.0145487 0)
(-0.0158122 -0.0140114 0)
(-0.0138243 -0.0133603 0)
(-0.0119401 -0.0126049 0)
(-0.0101733 -0.0117558 0)
(-0.00853546 -0.0108253 0)
(-0.00703603 -0.00982657 0)
(-0.00568234 -0.00877425 0)
(-0.00447941 -0.00768407 0)
(-0.00342981 -0.00657322 0)
(-0.00253364 -0.00546051 0)
(-0.00178839 -0.0043667 0)
(-0.00118881 -0.00331489 0)
(-0.000726819 -0.00233094 0)
(-0.000391333 -0.00144392 0)
(-0.000168091 -0.000686516 0)
(-3.95907e-05 -9.53105e-05 0)
(1.49287e-05 0.000289105 0)
(2.04641e-05 0.000422229 0)
(7.22242e-06 0.000256614 0)
(-6.33397e-05 0.00127237 0)
(-0.000405997 0.00356666 0)
(-0.00111725 0.00559966 0)
(-0.00209599 0.00737401 0)
(-0.00328574 0.00890121 0)
(-0.00465085 0.0101976 0)
(-0.00615931 0.0112824 0)
(-0.00778344 0.0121765 0)
(-0.00950013 0.012901 0)
(-0.01129 0.0134763 0)
(-0.0131369 0.0139216 0)
(-0.0150267 0.0142544 0)
(-0.0169478 0.0144901 0)
(-0.01889 0.0146419 0)
(-0.0208445 0.0147211 0)
(-0.0228034 0.0147366 0)
(-0.0247597 0.0146955 0)
(-0.0267069 0.014603 0)
(-0.028639 0.0144628 0)
(-0.03055 0.0142769 0)
(-0.0324341 0.0140463 0)
(-0.0342854 0.0137706 0)
(-0.0360979 0.013449 0)
(-0.0378653 0.0130796 0)
(-0.0395812 0.0126601 0)
(-0.0412386 0.0121879 0)
(-0.0428302 0.0116602 0)
(-0.0443485 0.0110742 0)
(-0.0457854 0.0104272 0)
(-0.0471327 0.00971677 0)
(-0.0483816 0.00894093 0)
(-0.0495234 0.0080983 0)
(-0.0505489 0.00718826 0)
(-0.051449 0.00621101 0)
(-0.0522149 0.0051678 0)
(-0.0528376 0.00406096 0)
(-0.0533087 0.00289407 0)
(-0.0536204 0.00167201 0)
(-0.0537653 0.000400995 0)
(-0.0537373 -0.000911358 0)
(-0.0535311 -0.00225608 0)
(-0.0531428 -0.00362288 0)
(-0.0525698 -0.00500025 0)
(-0.0518113 -0.00637558 0)
(-0.0508682 -0.00773532 0)
(-0.0497433 -0.00906522 0)
(-0.0484412 -0.0103505 0)
(-0.0469688 -0.0115763 0)
(-0.0453348 -0.0127278 0)
(-0.0435503 -0.0137903 0)
(-0.0416279 -0.0147502 0)
(-0.0395826 -0.0155947 0)
(-0.0374308 -0.0163123 0)
(-0.0351906 -0.0168931 0)
(-0.0328813 -0.0173292 0)
(-0.0305236 -0.0176144 0)
(-0.0281385 -0.0177449 0)
(-0.0257478 -0.0177192 0)
(-0.023373 -0.0175379 0)
(-0.0210355 -0.0172042 0)
(-0.0187559 -0.0167234 0)
(-0.0165539 -0.0161027 0)
(-0.0144476 -0.0153516 0)
(-0.0124534 -0.0144813 0)
(-0.010586 -0.0135044 0)
(-0.00885774 -0.0124352 0)
(-0.00727862 -0.0112893 0)
(-0.00585622 -0.0100836 0)
(-0.00459553 -0.00883626 0)
(-0.0034989 -0.00756713 0)
(-0.00256595 -0.00629763 0)
(-0.0017935 -0.00505125 0)
(-0.00117549 -0.00385394 0)
(-0.000702843 -0.00273455 0)
(-0.000363334 -0.0017253 0)
(-0.00014142 -0.000862158 0)
(-1.81469e-05 -0.000185119 0)
(2.88464e-05 0.000261703 0)
(2.66587e-05 0.000430302 0)
(8.52365e-06 0.000270066 0)
(-6.65281e-05 0.00148636 0)
(-0.000426411 0.00413728 0)
(-0.00117319 0.00646584 0)
(-0.00220023 0.00848382 0)
(-0.00344775 0.0102107 0)
(-0.00487792 0.0116698 0)
(-0.00645685 0.0128863 0)
(-0.00815532 0.0138862 0)
(-0.0099491 0.0146947 0)
(-0.011818 0.0153359 0)
(-0.013745 0.0158317 0)
(-0.0157159 0.016202 0)
(-0.0177187 0.016464 0)
(-0.019743 0.0166327 0)
(-0.0217799 0.0167203 0)
(-0.0238214 0.0167368 0)
(-0.0258606 0.0166898 0)
(-0.0278908 0.0165852 0)
(-0.029906 0.0164268 0)
(-0.0319003 0.0162169 0)
(-0.0338676 0.0159562 0)
(-0.0358021 0.0156446 0)
(-0.0376976 0.0152808 0)
(-0.0395477 0.0148626 0)
(-0.0413457 0.0143876 0)
(-0.0430845 0.0138527 0)
(-0.0447566 0.0132547 0)
(-0.046354 0.0125904 0)
(-0.0478684 0.0118567 0)
(-0.0492911 0.0110509 0)
(-0.050613 0.0101707 0)
(-0.0518247 0.00921448 0)
(-0.0529166 0.00818151 0)
(-0.0538791 0.007072 0)
(-0.0547024 0.00588729 0)
(-0.0553772 0.00463001 0)
(-0.0558942 0.00330417 0)
(-0.056245 0.00191527 0)
(-0.0564215 0.000470339 0)
(-0.0564168 -0.001022 0)
(-0.0562249 -0.00255159 0)
(-0.0558414 -0.00410674 0)
(-0.0552631 -0.00567438 0)
(-0.0544887 -0.00724017 0)
(-0.0535185 -0.00878871 0)
(-0.0523549 -0.0103037 0)
(-0.0510026 -0.0117685 0)