/*--------------------------------*- C++ -*----------------------------------*\
  =========                 |
  \\      /  F ield         | OpenFOAM: The Open Source CFD Toolbox
   \\    /   O peration     | Website:  https://openfoam.org
    \\  /    A nd           | Version:  7
     \\/     M anipulation  |
\*---------------------------------------------------------------------------*/
FoamFile
{
    version     2.0;
    format      ascii;
    class       volScalarField;
    location    "1.725";
    object      p;
}
// * * * * * * * * * * * * * * * * * * * * * * * * * * * * * * * * * * * * * //

dimensions      [0 2 -2 0 0 0 0];

internalField   nonuniform List<scalar> 
6400
(
-2.00912e-08
8.12036e-06
-5.36975e-06
-4.18268e-05
-9.82845e-05
-0.00017146
-0.000258185
-0.000355769
-0.000462149
-0.000575844
-0.000695839
-0.000821448
-0.000952185
-0.00108765
-0.00122745
-0.0013711
-0.00151799
-0.00166733
-0.00181815
-0.00196926
-0.00211923
-0.00226645
-0.00240905
-0.00254499
-0.00267205
-0.00278785
-0.00288991
-0.00297569
-0.00304265
-0.00308832
-0.0031104
-0.00310683
-0.0030759
-0.00301633
-0.00292741
-0.00280908
-0.00266201
-0.00248767
-0.00228841
-0.00206746
-0.0018289
-0.0015778
-0.00131983
-0.00106139
-0.000809377
-0.000570989
-0.000353503
-0.000164031
-9.26303e-06
0.000104796
0.000173068
0.000191631
0.000157893
7.07252e-05
-6.94693e-05
-0.000260756
-0.000499736
-0.000781678
-0.00110072
-0.00145007
-0.00182234
-0.00220979
-0.00260462
-0.00299924
-0.00338651
-0.00375992
-0.0041137
-0.00444292
-0.00474348
-0.00501207
-0.00524609
-0.00544353
-0.0056029
-0.00572317
-0.00580391
-0.0058456
-0.00585059
-0.00582477
-0.00577954
-0.00573203
-8.6272e-06
-5.67744e-07
-1.42743e-05
-4.7935e-05
-9.84093e-05
-0.000163508
-0.000241031
-0.000328946
-0.000425585
-0.000529673
-0.00064026
-0.000756647
-0.000878297
-0.00100475
-0.00113555
-0.00127019
-0.00140806
-0.00154841
-0.00169033
-0.00183273
-0.00197432
-0.00211363
-0.00224898
-0.00237853
-0.00250026
-0.00261201
-0.00271153
-0.0027965
-0.00286459
-0.00291353
-0.00294118
-0.00294563
-0.00292526
-0.00287887
-0.00280572
-0.00270571
-0.00257938
-0.00242802
-0.00225374
-0.00205946
-0.00184893
-0.00162662
-0.00139786
-0.00116852
-0.000944955
-0.000733794
-0.000541761
-0.000375431
-0.000240987
-0.000143977
-8.90832e-05
-7.99122e-05
-0.000118828
-0.000206831
-0.000343498
-0.000526985
-0.000754092
-0.00102039
-0.00132041
-0.00164787
-0.00199591
-0.00235738
-0.00272511
-0.00309214
-0.00345194
-0.00379857
-0.0041268
-0.00443219
-0.00471107
-0.00496054
-0.00517839
-0.00536304
-0.00551344
-0.00562912
-0.00571021
-0.00575769
-0.00577403
-0.00576386
-0.00573204
-0.00568446
4.83759e-06
1.24316e-05
-1.85624e-06
-3.45157e-05
-8.20233e-05
-0.000142551
-0.00021437
-0.000295833
-0.000385584
-0.000482561
-0.00058595
-0.00069513
-0.000809607
-0.000928945
-0.00105272
-0.00118044
-0.00131156
-0.00144537
-0.00158105
-0.00171761
-0.00185387
-0.00198849
-0.00211993
-0.00224651
-0.00236634
-0.00247743
-0.00257766
-0.00266482
-0.0027367
-0.0027911
-0.00282595
-0.00283933
-0.00282963
-0.00279557
-0.00273634
-0.00265168
-0.00254198
-0.00240832
-0.00225257
-0.0020774
-0.00188623
-0.00168336
-0.00147376
-0.00126299
-0.00105714
-0.000862554
-0.000685717
-0.000532968
-0.000410288
-0.00032305
-0.000275792
-0.000272011
-0.000313992
-0.000402693
-0.000537685
-0.000717154
-0.000937966
-0.0011958
-0.00148533
-0.00180045
-0.00213454
-0.00248071
-0.00283207
-0.003182
-0.00352431
-0.00385341
-0.00416447
-0.0044534
-0.00471692
-0.00495252
-0.00515836
-0.00533322
-0.00547643
-0.00558782
-0.00566768
-0.00571689
-0.0057374
-0.00573222
-0.00570038
-0.00563928
4.28116e-05
4.59962e-05
2.89521e-05
-4.66525e-06
-5.14744e-05
-0.000109808
-0.000178167
-0.000255215
-0.000339873
-0.000431306
-0.000528888
-0.00063214
-0.000740678
-0.00085416
-0.000972239
-0.00109451
-0.00122049
-0.00134958
-0.00148105
-0.00161401
-0.0017474
-0.00187999
-0.00201039
-0.00213699
-0.00225805
-0.00237165
-0.00247574
-0.00256818
-0.00264676
-0.00270929
-0.00275362
-0.00277779
-0.00278003
-0.00275894
-0.00271353
-0.00264333
-0.00254851
-0.00242993
-0.00228923
-0.00212886
-0.00195198
-0.00176276
-0.00156595
-0.00136698
-0.00117182
-0.000986752
-0.000818186
-0.000672449
-0.00055552
-0.000472794
-0.00042884
-0.000427192
-0.000470174
-0.000558775
-0.000692587
-0.000869805
-0.00108729
-0.00134073
-0.00162477
-0.00193331
-0.00225974
-0.00259721
-0.00293892
-0.00327835
-0.00360946
-0.0039269
-0.00422606
-0.00450317
-0.00475527
-0.0049802
-0.00517647
-0.00534324
-0.00548012
-0.00558713
-0.00566458
-0.00571302
-0.0057337
-0.0057282
-0.00569117
-0.00561427
0.000103284
9.74916e-05
7.5005e-05
3.85612e-05
-9.22429e-06
-6.68536e-05
-0.000133086
-0.000206893
-0.00028749
-0.000374306
-0.000466935
-0.000565086
-0.000668535
-0.000777078
-0.000890486
-0.00100847
-0.00113067
-0.00125659
-0.00138561
-0.00151698
-0.00164976
-0.00178283
-0.0019149
-0.00204448
-0.00216989
-0.00228927
-0.00240058
-0.00250168
-0.0025903
-0.00266416
-0.00272099
-0.00275865
-0.00277519
-0.00276897
-0.00273875
-0.00268381
-0.00260406
-0.00250009
-0.00237331
-0.00222598
-0.00206105
-0.00188253
-0.00169507
-0.00150405
-0.00131541
-0.00113546
-0.000970681
-0.000827503
-0.000712032
-0.000629808
-0.000585552
-0.000582943
-0.000624437
-0.000711128
-0.000842679
-0.00101732
-0.00123191
-0.00148207
-0.0017624
-0.00206671
-0.00238827
-0.00272017
-0.00305555
-0.00338785
-0.0037111
-0.00402002
-0.00431017
-0.00457801
-0.00482086
-0.00503687
-0.0052249
-0.00538443
-0.00551537
-0.00561792
-0.0056924
-0.00573909
-0.00575868
-0.0057517
-0.00570994
-0.0056215
0.000183339
0.000164726
0.000134399
9.34165e-05
4.31367e-05
-1.5142e-05
-8.04602e-05
-0.00015214
-0.000229725
-0.000312937
-0.000401628
-0.000495734
-0.000595227
-0.000700077
-0.000810211
-0.000925495
-0.0010457
-0.00117048
-0.00129936
-0.00143171
-0.00156671
-0.00170337
-0.00184049
-0.00197665
-0.00211019
-0.00223928
-0.00236184
-0.00247563
-0.00257827
-0.00266729
-0.00274023
-0.00279468
-0.00282843
-0.00283953
-0.00282643
-0.00278811
-0.00272417
-0.0026349
-0.00252151
-0.00238616
-0.00223125
-0.00206101
-0.00187994
-0.00169342
-0.00150745
-0.00132843
-0.00116302
-0.00101784
-0.000899229
-0.000812989
-0.000764103
-0.000756507
-0.000792893
-0.000874553
-0.0010013
-0.00117146
-0.00138191
-0.00162826
-0.00190501
-0.00220583
-0.00252386
-0.00285198
-0.00318317
-0.00351077
-0.00382871
-0.0041317
-0.00441536
-0.00467628
-0.00491198
-0.00512087
-0.00530213
-0.00545552
-0.00558122
-0.00567966
-0.00575118
-0.00579595
-0.00581429
-0.00580609
-0.00576158
-0.00566713
0.000279293
0.000244992
0.000204777
0.000157717
0.000103639
4.35329e-05
-2.19673e-05
-9.25829e-05
-0.000168225
-0.000248943
-0.00033488
-0.000426232
-0.0005232
-0.000625958
-0.000734626
-0.000849247
-0.000969764
-0.00109599
-0.00122762
-0.00136414
-0.00150488
-0.00164894
-0.00179521
-0.00194229
-0.00208853
-0.00223204
-0.00237064
-0.00250193
-0.00262332
-0.0027321
-0.00282551
-0.0029008
-0.0029554
-0.00298701
-0.0029937
-0.00297409
-0.00292743
-0.00285371
-0.00275397
-0.00263046
-0.00248397
-0.00232008
-0.00214293
-0.00195784
-0.0017709
-0.0015887
-0.0014181
-0.00126601
-0.00113911
-0.00104355
-0.000984698
-0.000966866
-0.000993104
-0.00106502
-0.0011827
-0.00134466
-0.00154789
-0.00178801
-0.00205949
-0.00235584
-0.00267003
-0.00299471
-0.00332262
-0.00364688
-0.00396122
-0.00426023
-0.00453948
-0.00479558
-0.00502616
-0.0052298
-0.00540592
-0.00555454
-0.00567611
-0.00577122
-0.00584039
-0.00588373
-0.00590143
-0.00589304
-0.00584829
-0.00575309
0.00038728
0.000334854
0.000283078
0.00022875
0.000169821
0.000106916
4.02845e-05
-3.02499e-05
-0.000105012
-0.000184416
-0.00026893
-0.000359037
-0.000455194
-0.000557811
-0.000667227
-0.000783692
-0.000907341
-0.00103818
-0.00117605
-0.00132061
-0.00147131
-0.00162734
-0.00178763
-0.00195079
-0.00211513
-0.00227861
-0.00243891
-0.00259339
-0.00273917
-0.0028732
-0.00299234
-0.00309344
-0.00317349
-0.00322974
-0.00325985
-0.00326202
-0.0032351
-0.00317879
-0.0030936
-0.00298098
-0.00284381
-0.00268541
-0.00251035
-0.0023241
-0.00213285
-0.0019434
-0.00176288
-0.00159857
-0.00145754
-0.00134641
-0.00127104
-0.00123628
-0.00124566
-0.00130129
-0.00140364
-0.00155157
-0.00174233
-0.00197167
-0.00223406
-0.00252295
-0.00283113
-0.003151
-0.00347503
-0.00379601
-0.00410741
-0.00440357
-0.00467988
-0.00493286
-0.00516012
-0.00536035
-0.00553308
-0.00567855
-0.0057974
-0.00589045
-0.00595836
-0.00600135
-0.00601959
-0.00601255
-0.00597015
-0.00587882
0.000503047
0.000430535
0.000365905
0.00030336
0.000238754
0.000172256
0.000103663
3.22764e-05
-4.26941e-05
-0.000122066
-0.000206662
-0.000297278
-0.000394656
-0.000499469
-0.000612298
-0.000733623
-0.000863798
-0.00100303
-0.00115134
-0.00130854
-0.0014742
-0.00164759
-0.00182765
-0.00201295
-0.00220168
-0.00239166
-0.00258028
-0.00276463
-0.00294144
-0.00310724
-0.00325843
-0.00339138
-0.00350257
-0.00358875
-0.00364706
-0.00367523
-0.00367167
-0.00363569
-0.00356735
-0.00346749
-0.00333978
-0.00318649
-0.00301229
-0.00282271
-0.00262403
-0.00242326
-0.00222783
-0.00204541
-0.00188356
-0.00174949
-0.00164967
-0.00158961
-0.00157354
-0.00160422
-0.00168274
-0.00180849
-0.00197914
-0.00219073
-0.00243791
-0.00271413
-0.00301206
-0.0033239
-0.00364178
-0.00395815
-0.00426609
-0.0045596
-0.00483377
-0.00508487
-0.00531039
-0.00550896
-0.00568015
-0.00582429
-0.00594219
-0.00603483
-0.00610304
-0.00614721
-0.00616757
-0.00616364
-0.00612607
-0.00604236
0.000622063
0.000527873
0.000449382
0.000377918
0.000307007
0.000236271
0.000164966
9.18031e-05
1.54731e-05
-6.52818e-05
-0.00015167
-0.000244828
-0.00034581
-0.000455571
-0.000574962
-0.000704716
-0.000845424
-0.000997509
-0.00116119
-0.00133643
-0.0015229
-0.00171992
-0.00192642
-0.00214088
-0.00236134
-0.00258534
-0.00280999
-0.00303197
-0.00324758
-0.00345284
-0.00364361
-0.00381569
-0.00396498
-0.00408765
-0.00418026
-0.00423997
-0.00426469
-0.00425321
-0.00420519
-0.00412122
-0.00400411
-0.00385641
-0.00368255
-0.00348795
-0.00327899
-0.00306281
-0.00284719
-0.0026402
-0.00244997
-0.00228436
-0.00215063
-0.00205513
-0.00200296
-0.00199776
-0.0020415
-0.00213434
-0.0022746
-0.00245885
-0.00268209
-0.00293796
-0.0032191
-0.00351756
-0.00382517
-0.00413399
-0.00443664
-0.00472665
-0.00499867
-0.0052486
-0.00547363
-0.00567218
-0.00584371
-0.00598853
-0.00610751
-0.00620174
-0.00627219
-0.00631939
-0.00634371
-0.00634476
-0.00631422
-0.00624103
0.000739389
0.000622283
0.000529184
0.000448309
0.000370632
0.000295116
0.000220392
0.000144502
6.5568e-05
-1.81482e-05
-0.000108272
-0.00020631
-0.000313649
-0.000431553
-0.000561167
-0.000703497
-0.000859393
-0.00102951
-0.00121426
-0.00141376
-0.00162778
-0.00185565
-0.00209624
-0.00234791
-0.00260846
-0.00287514
-0.00314466
-0.00341323
-0.00367664
-0.00393032
-0.00416952
-0.00438938
-0.00458514
-0.0047523
-0.00488675
-0.00498501
-0.00504435
-0.00506296
-0.00504
-0.00497572
-0.004872
-0.00473147
-0.00455825
-0.00435759
-0.00413584
-0.00390031
-0.00365904
-0.00342054
-0.00319356
-0.00298671
-0.00280816
-0.00266527
-0.00256426
-0.00250991
-0.00250533
-0.00255175
-0.00264847
-0.00279288
-0.00298058
-0.00320562
-0.00346081
-0.00373814
-0.00402921
-0.00432566
-0.00461961
-0.004904
-0.0051729
-0.00542167
-0.005647
-0.00584693
-0.00602063
-0.00616825
-0.00629056
-0.00638864
-0.00646354
-0.0065159
-0.00654617
-0.0065541
-0.00653252
-0.00647201
0.000849761
0.000708765
0.000600535
0.000509935
0.000425154
0.000344385
0.000265533
0.000185905
0.000102997
1.45486e-05
-8.15137e-05
-0.000187092
-0.000303932
-0.000433633
-0.000577656
-0.000737306
-0.000913707
-0.00110776
-0.00132007
-0.00155091
-0.0018001
-0.00206699
-0.00235034
-0.00264831
-0.00295844
-0.0032776
-0.00360203
-0.00392741
-0.00424892
-0.00456134
-0.00485921
-0.00513694
-0.00538902
-0.00561017
-0.00579554
-0.00594087
-0.0060427
-0.00609848
-0.00610674
-0.00606717
-0.00598093
-0.00585029
-0.00567896
-0.00547196
-0.00523554
-0.00497703
-0.00470472
-0.00442756
-0.00415491
-0.00389622
-0.00366069
-0.00345686
-0.0032923
-0.00317322
-0.00310417
-0.00308783
-0.00312484
-0.00321377
-0.00335117
-0.0035318
-0.0037489
-0.0039946
-0.00426034
-0.0045374
-0.00481736
-0.00509247
-0.00535606
-0.00560275
-0.00582855
-0.00603088
-0.00620841
-0.00636091
-0.00648889
-0.00659327
-0.00667504
-0.00673487
-0.00677322
-0.00678988
-0.00677893
-0.00673262
0.000947477
0.000781902
0.000658226
0.000557725
0.000465591
0.000379118
0.000295399
0.000210924
0.000122514
2.73448e-05
-7.71365e-05
-0.000193255
-0.000323143
-0.000468762
-0.000631913
-0.000814224
-0.00101711
-0.00124173
-0.00148889
-0.00175898
-0.00205189
-0.00236692
-0.00270269
-0.00305713
-0.00342743
-0.00381001
-0.0042006
-0.00459425
-0.00498547
-0.0053683
-0.00573648
-0.00608361
-0.00640331
-0.00668945
-0.00693629
-0.00713871
-0.00729236
-0.00739386
-0.00744093
-0.00743253
-0.00736905
-0.00725218
-0.00708512
-0.00687249
-0.0066203
-0.00633585
-0.00602755
-0.00570472
-0.00537736
-0.00505577
-0.00475025
-0.00447072
-0.00422628
-0.00402485
-0.00387279
-0.0037746
-0.00373269
-0.00374725
-0.00381623
-0.00393549
-0.00409905
-0.00429943
-0.00452815
-0.00477621
-0.00503462
-0.00529489
-0.00554945
-0.00579198
-0.00601755
-0.00622271
-0.00640539
-0.00656471
-0.00670069
-0.0068139
-0.00690508
-0.00697479
-0.0070234
-0.00705065
-0.00705177
-0.00702068
0.00102643
0.000835881
0.000696637
0.000586172
0.000486486
0.000393853
0.000304454
0.000213897
0.000118273
1.41575e-05
-0.000101514
-0.00023152
-0.000378408
-0.00054453
-0.000732056
-0.000942959
-0.00117897
-0.00144149
-0.00173154
-0.00204963
-0.00239567
-0.00276888
-0.00316771
-0.00358979
-0.00403189
-0.00448996
-0.00495909
-0.00543368
-0.00590744
-0.0063736
-0.00682501
-0.00725436
-0.00765431
-0.00801774
-0.00833793
-0.00860874
-0.00882484
-0.00898188
-0.00907663
-0.00910715
-0.00907294
-0.00897496
-0.00881572
-0.00859933
-0.0083314
-0.00801902
-0.00767064
-0.00729585
-0.00690518
-0.00650978
-0.00612111
-0.00575052
-0.00540885
-0.00510597
-0.00485039
-0.00464884
-0.00450597
-0.0044241
-0.00440311
-0.00444048
-0.00453145
-0.00466935
-0.00484604
-0.00505243
-0.00527905
-0.00551661
-0.00575652
-0.0059913
-0.0062148
-0.00642243
-0.00661102
-0.00677877
-0.00692493
-0.00704945
-0.00715262
-0.00723469
-0.00729576
-0.00733542
-0.00734991
-0.00733473
0.00108017
0.000864546
0.000709788
0.000589385
0.000481972
0.000382679
0.00028669
0.000188662
8.39091e-05
-3.16263e-05
-0.000161555
-0.000309141
-0.000477378
-0.000669039
-0.000886692
-0.00113268
-0.00140905
-0.00171748
-0.00205918
-0.00243477
-0.00284415
-0.00328643
-0.00375984
-0.00426164
-0.00478815
-0.00533473
-0.0058958
-0.00646498
-0.00703514
-0.00759858
-0.00814717
-0.00867257
-0.00916639
-0.0096204
-0.0100268
-0.0103782
-0.0106684
-0.0108918
-0.011044
-0.0111222
-0.0111249
-0.0110521
-0.0109055
-0.0106885
-0.0104062
-0.0100653
-0.00967408
-0.0092423
-0.00878089
-0.00830175
-0.00781742
-0.00734073
-0.00688434
-0.00646027
-0.00607948
-0.00575132
-0.00548315
-0.00527999
-0.00514425
-0.00507564
-0.00507124
-0.0051257
-0.00523166
-0.00538025
-0.0055617
-0.00576593
-0.00598325
-0.00620477
-0.0064229
-0.00663151
-0.00682602
-0.00700332
-0.00716153
-0.00729969
-0.00741736
-0.00751424
-0.00758998
-0.00764384
-0.00767291
-0.0076741
0.00110192
0.000861463
0.000691421
0.000561173
0.00044585
0.000339331
0.000235716
0.000128658
1.26536e-05
-0.000117027
-0.000264572
-0.000433763
-0.000628074
-0.00085073
-0.00110473
-0.00139279
-0.00171732
-0.00208027
-0.00248301
-0.00292626
-0.00340989
-0.00393286
-0.00449308
-0.00508745
-0.00571172
-0.00636059
-0.00702774
-0.0077059
-0.00838701
-0.00906233
-0.00972267
-0.0103585
-0.0109603
-0.0115187
-0.0120245
-0.0124693
-0.0128456
-0.0131465
-0.0133667
-0.0135021
-0.01355
-0.0135096
-0.0133815
-0.0131684
-0.0128746
-0.0125062
-0.0120713
-0.0115795
-0.0110418
-0.0104709
-0.00988012
-0.00928371
-0.00869614
-0.0081317
-0.00760394
-0.00712519
-0.00670598
-0.00635458
-0.0060766
-0.00587469
-0.00574849
-0.00569469
-0.00570729
-0.00577812
-0.0058974
-0.00605445
-0.00623841
-0.00643888
-0.00664645
-0.00685314
-0.00705251
-0.00723973
-0.0074114
-0.00756524
-0.00769976
-0.00781383
-0.00790642
-0.00797624
-0.00802107
-0.00803908
0.00108477
0.000820022
0.00063509
0.000495137
0.000371698
0.000257296
0.000144884
2.70612e-05
-0.000102531
-0.000249327
-0.000418122
-0.000613251
-0.0008387
-0.00109818
-0.00139515
-0.00173273
-0.00211369
-0.00254023
-0.00301393
-0.00353553
-0.00410485
-0.00472064
-0.00538047
-0.00608074
-0.00681659
-0.00758197
-0.00836971
-0.00917156
-0.0099784
-0.0107804
-0.011567
-0.0123277
-0.0130515
-0.0137277
-0.014346
-0.0148967
-0.0153708
-0.0157604
-0.0160589
-0.016261
-0.0163629
-0.0163627
-0.01626
-0.0160565
-0.0157556
-0.0153628
-0.0148854
-0.0143329
-0.0137163
-0.0130482
-0.012343
-0.011616
-0.0108832
-0.0101612
-0.00946615
-0.00881355
-0.00821747
-0.00768996
-0.00724048
-0.00687541
-0.0065978
-0.00640721
-0.00629984
-0.00626886
-0.00630503
-0.00639736
-0.00653392
-0.0067027
-0.00689224
-0.00709229
-0.00729411
-0.00749065
-0.0076765
-0.00784763
-0.00800109
-0.0081346
-0.00824614
-0.0083337
-0.0083955
-0.00843086
0.00102168
0.000733552
0.000534282
0.000384799
0.000252993
0.000129956
7.43272e-06
-0.000123067
-0.000268786
-0.00043589
-0.000629815
-0.00085548
-0.00111742
-0.00141987
-0.00176675
-0.00216164
-0.00260763
-0.00310723
-0.00366213
-0.00427313
-0.00493991
-0.00566094
-0.0064334
-0.00725309
-0.00811446
-0.0090106
-0.00993333
-0.0108733
-0.0118203
-0.0127632
-0.0136901
-0.0145892
-0.0154481
-0.0162547
-0.0169975
-0.0176654
-0.0182481
-0.0187366
-0.019123
-0.0194008
-0.0195652
-0.0196131
-0.0195431
-0.0193558
-0.0190536
-0.0186413
-0.0181253
-0.0175144
-0.0168192
-0.0160526
-0.0152288
-0.0143642
-0.0134761
-0.0125829
-0.0117033
-0.0108561
-0.010059
-0.00932819
-0.00867762
-0.00811818
-0.00765725
-0.00729824
-0.00704056
-0.00687967
-0.00680759
-0.00681358
-0.00688496
-0.00700811
-0.00716936
-0.00735582
-0.00755597
-0.00775997
-0.00795984
-0.00814928
-0.00832341
-0.00847838
-0.00861092
-0.00871799
-0.00879809
-0.0088515
0.000905722
0.000595459
0.000382555
0.000223735
8.32639e-05
-4.92628e-05
-0.000183351
-0.000328604
-0.000493168
-0.000683965
-0.000907103
-0.00116811
-0.00147212
-0.00182389
-0.00222786
-0.00268805
-0.00320792
-0.0037902
-0.00443674
-0.00514827
-0.00592433
-0.00676303
-0.00766103
-0.00861346
-0.00961393
-0.0106546
-0.011726
-0.0128178
-0.0139184
-0.0150151
-0.0160949
-0.0171442
-0.0181496
-0.0190974
-0.0199747
-0.0207693
-0.0214696
-0.0220654
-0.0225477
-0.0229091
-0.0231435
-0.0232469
-0.0232169
-0.0230529
-0.0227565
-0.0223312
-0.0217827
-0.0211187
-0.0203492
-0.0194865
-0.0185449
-0.0175408
-0.0164925
-0.0154197
-0.0143434
-0.0132852
-0.0122666
-0.0113081
-0.0104284
-0.00964372
-0.00896665
-0.00840558
-0.00796425
-0.00764162
-0.00743203
-0.0073258
-0.00731008
-0.00736991
-0.00748936
-0.00765259
-0.00784481
-0.00805283
-0.00826543
-0.00847343
-0.00866948
-0.0088477
-0.00900315
-0.00913152
-0.00923137
-0.00930387
0.000730181
0.000399374
0.000173685
5.74107e-06
-0.000143747
-0.000286718
-0.000433952
-0.000596173
-0.000782448
-0.00100047
-0.00125705
-0.00155836
-0.00191013
-0.00231771
-0.00278605
-0.00331961
-0.00392221
-0.0045968
-0.0053453
-0.00616838
-0.00706528
-0.00803369
-0.00906964
-0.0101675
-0.0113197
-0.0125175
-0.0137502
-0.0150059
-0.0162716
-0.0175332
-0.0187761
-0.0199854
-0.021146
-0.022243
-0.0232623
-0.0241902
-0.0250144
-0.0257235
-0.0263076
-0.0267583
-0.0270688
-0.0272339
-0.0272505
-0.027117
-0.0268339
-0.0264036
-0.0258306
-0.0251217
-0.0242858
-0.0233342
-0.0222805
-0.0211408
-0.0199336
-0.0186795
-0.0174009
-0.0161218
-0.014867
-0.0136612
-0.0125283
-0.0114901
-0.0105651
-0.00976795
-0.00910791
-0.00858883
-0.00820874
-0.00796023
-0.00783119
-0.00780586
-0.00786626
-0.00799347
-0.00816897
-0.00837561
-0.00859825
-0.00882412
-0.00904271
-0.00924561
-0.00942578
-0.00957724
-0.00969847
-0.00979146
0.000488748
0.000139324
-9.8165e-05
-0.000275008
-0.000433915
-0.000588371
-0.000750434
-0.000931949
-0.0011429
-0.00139178
-0.00168611
-0.00203272
-0.00243799
-0.00290785
-0.00344778
-0.0040627
-0.00475672
-0.005533
-0.00639346
-0.00733861
-0.00836732
-0.00947672
-0.0106621
-0.0119167
-0.0132322
-0.0145981
-0.0160025
-0.0174321
-0.018872
-0.0203068
-0.0217203
-0.0230959
-0.0244173
-0.0256683
-0.0268334
-0.0278983
-0.0288494
-0.0296746
-0.0303635
-0.0309067
-0.031297
-0.0315282
-0.0315969
-0.0315002
-0.0312379
-0.0308112
-0.0302235
-0.0294802
-0.0285889
-0.0275596
-0.0264047
-0.0251394
-0.0237815
-0.0223517
-0.020873
-0.0193711
-0.0178733
-0.0164081
-0.0150042
-0.013689
-0.012488
-0.0114224
-0.0105087
-0.00975694
-0.0091706
-0.00874605
-0.00847323
-0.0083366
-0.00831662
-0.0083914
-0.00853841
-0.00873594
-0.00896422
-0.00920606
-0.0094471
-0.0096757
-0.00988219
-0.0100586
-0.010203
-0.0103183
0.000175687
-0.000190103
-0.000438278
-0.000623786
-0.000792551
-0.000959597
-0.00113825
-0.00134145
-0.0015801
-0.00186349
-0.00219985
-0.00259674
-0.00306114
-0.00359962
-0.00421817
-0.00492212
-0.00571588
-0.00660273
-0.00758451
-0.00866147
-0.00983199
-0.0110925
-0.0124373
-0.0138586
-0.0153465
-0.0168894
-0.0184737
-0.0200841
-0.0217045
-0.0233175
-0.0249053
-0.0264501
-0.027934
-0.0293398
-0.0306511
-0.0318524
-0.0329299
-0.0338707
-0.034664
-0.0353001
-0.0357712
-0.0360711
-0.0361952
-0.0361405
-0.0359056
-0.0354911
-0.034899
-0.0341333
-0.0332001
-0.0321078
-0.0308672
-0.0294918
-0.0279981
-0.0264059
-0.0247379
-0.0230203
-0.021282
-0.0195543
-0.01787
-0.0162623
-0.014763
-0.0134011
-0.0122011
-0.0111811
-0.0103515
-0.0097144
-0.00926366
-0.00898537
-0.00885942
-0.00886139
-0.00896472
-0.00914269
-0.00937014
-0.00962465
-0.00988712
-0.0101419
-0.0103761
-0.0105792
-0.0107488
-0.0108887
-0.000213984
-0.000593593
-0.000851217
-0.00104514
-0.00122423
-0.00140501
-0.00160203
-0.00182933
-0.00209868
-0.00242018
-0.00280279
-0.00325475
-0.00378372
-0.00439685
-0.00510065
-0.00590083
-0.00680203
-0.00780755
-0.00891909
-0.0101365
-0.0114574
-0.0128775
-0.01439
-0.0159856
-0.0176531
-0.019379
-0.0211481
-0.0229433
-0.0247467
-0.0265392
-0.0283015
-0.0300142
-0.0316584
-0.0332159
-0.0346694
-0.0360031
-0.0372026
-0.0382549
-0.0391489
-0.039875
-0.0404253
-0.0407935
-0.0409744
-0.040965
-0.0407631
-0.0403685
-0.0397821
-0.0390066
-0.0380464
-0.0369082
-0.0356006
-0.0341352
-0.0325263
-0.030792
-0.0289536
-0.0270365
-0.0250702
-0.0230874
-0.021124
-0.0192177
-0.0174067
-0.0157279
-0.0142143
-0.0128932
-0.0117841
-0.010897
-0.0102315
-0.00977748
-0.00951578
-0.00942044
-0.00946115
-0.00960598
-0.00982375
-0.0100859
-0.0103676
-0.0106485
-0.0109115
-0.011143
-0.0113401
-0.0115071
-0.000684333
-0.00107494
-0.00134067
-0.00154272
-0.0017326
-0.00192826
-0.00214545
-0.0023992
-0.00270218
-0.00306525
-0.00349811
-0.00400969
-0.00460831
-0.00530168
-0.0060968
-0.00699969
-0.00801517
-0.00914646
-0.010395
-0.0117599
-0.0132383
-0.0148246
-0.0165107
-0.0182858
-0.020137
-0.0220491
-0.0240046
-0.025985
-0.0279702
-0.0299397
-0.0318725
-0.033748
-0.0355463
-0.0372484
-0.0388366
-0.0402947
-0.0416083
-0.0427646
-0.0437527
-0.044563
-0.045188
-0.0456215
-0.0458585
-0.0458955
-0.0457304
-0.045362
-0.0447904
-0.0440171
-0.0430451
-0.0418788
-0.040525
-0.0389925
-0.0372934
-0.0354427
-0.0334598
-0.0313682
-0.029196
-0.0269761
-0.024746
-0.0225466
-0.0204216
-0.0184147
-0.0165681
-0.0149192
-0.0134978
-0.012324
-0.0114059
-0.0107394
-0.0103085
-0.0100873
-0.0100425
-0.0101372
-0.0103336
-0.0105964
-0.0108939
-0.0111998
-0.0114923
-0.011754
-0.0119808
-0.012178
-0.00123836
-0.00163691
-0.00190929
-0.00211916
-0.00232028
-0.00253194
-0.00277101
-0.00305347
-0.00339284
-0.00380072
-0.00428753
-0.00486289
-0.00553573
-0.00631433
-0.00720609
-0.0082173
-0.00935282
-0.0106157
-0.0120069
-0.0135249
-0.0151657
-0.0169225
-0.0187856
-0.0207427
-0.0227789
-0.0248767
-0.0270171
-0.0291793
-0.0313416
-0.0334816
-0.0355772
-0.0376066
-0.0395491
-0.0413853
-0.0430972
-0.0446687
-0.0460857
-0.0473357
-0.0484083
-0.0492946
-0.0499875
-0.0504812
-0.050771
-0.0508537
-0.0507269
-0.0503892
-0.0498399
-0.0490795
-0.0481096
-0.0469328
-0.0455536
-0.0439783
-0.0422159
-0.0402786
-0.0381822
-0.0359473
-0.0335997
-0.0311707
-0.0286975
-0.0262225
-0.023793
-0.0214589
-0.0192705
-0.0172754
-0.0155153
-0.0140219
-0.0128144
-0.0118976
-0.0112614
-0.010882
-0.0107249
-0.0107488
-0.0109093
-0.0111632
-0.0114715
-0.0118006
-0.0121229
-0.0124161
-0.0126751
-0.0129058
-0.00187787
-0.0022811
-0.00255858
-0.00277592
-0.00298866
-0.00321736
-0.00347991
-0.00379319
-0.00417147
-0.00462709
-0.00517116
-0.00581394
-0.00656497
-0.00743301
-0.00842582
-0.00954985
-0.0108099
-0.0122087
-0.0137466
-0.0154212
-0.0172272
-0.0191564
-0.0211974
-0.0233359
-0.025555
-0.0278352
-0.0301553
-0.0324925
-0.0348235
-0.0371243
-0.0393717
-0.0415429
-0.0436168
-0.0455736
-0.0473956
-0.0490671
-0.0505743
-0.0519057
-0.0530514
-0.0540035
-0.0547556
-0.0553025
-0.0556402
-0.0557658
-0.055677
-0.0553722
-0.0548506
-0.0541117
-0.0531559
-0.0519844
-0.0505993
-0.0490047
-0.0472064
-0.045213
-0.0430369
-0.0406946
-0.0382082
-0.035606
-0.0329229
-0.0302011
-0.0274893
-0.0248413
-0.0223146
-0.0199664
-0.0178501
-0.0160107
-0.0144808
-0.0132769
-0.0123979
-0.0118253
-0.0115257
-0.0114544
-0.011561
-0.0117942
-0.0121063
-0.0124555
-0.0128071
-0.0131332
-0.0134267
-0.0136944
-0.00260334
-0.00300785
-0.0032888
-0.00351317
-0.00373785
-0.00398452
-0.00427199
-0.00461794
-0.00503735
-0.00554325
-0.00614737
-0.00686061
-0.00769304
-0.00865383
-0.00975104
-0.0109912
-0.0123788
-0.0139162
-0.0156029
-0.0174354
-0.0194072
-0.0215081
-0.023725
-0.0260416
-0.0284386
-0.0308945
-0.033386
-0.0358884
-0.0383767
-0.0408257
-0.043211
-0.0455095
-0.0476996
-0.0497617
-0.0516785
-0.0534349
-0.055018
-0.0564171
-0.0576234
-0.05863
-0.0594313
-0.0600232
-0.0604024
-0.0605665
-0.0605135
-0.0602422
-0.0597513
-0.05904
-0.0581078
-0.0569545
-0.0555807
-0.0539878
-0.052179
-0.0501594
-0.0479372
-0.0455247
-0.0429395
-0.0402053
-0.0373533
-0.0344229
-0.0314621
-0.0285265
-0.0256782
-0.0229825
-0.020504
-0.0183015
-0.0164225
-0.0148981
-0.0137398
-0.0129377
-0.0124623
-0.0122682
-0.0122997
-0.0124975
-0.0128044
-0.0131693
-0.0135489
-0.0139087
-0.0142392
-0.0145476
-0.00341389
-0.00381617
-0.00409888
-0.00432978
-0.0045666
-0.00483199
-0.00514559
-0.00552577
-0.00598816
-0.00654638
-0.00721278
-0.00799879
-0.00891496
-0.00997083
-0.0111746
-0.0125327
-0.0140494
-0.0157263
-0.0175619
-0.0195517
-0.0216872
-0.0239568
-0.026345
-0.0288334
-0.0314005
-0.0340227
-0.0366746
-0.0393297
-0.0419616
-0.0445439
-0.0470515
-0.049461
-0.0517508
-0.0539017
-0.0558971
-0.0577227
-0.0593667
-0.0608196
-0.0620736
-0.063123
-0.0639634
-0.0645915
-0.0650049
-0.065202
-0.0651814
-0.064942
-0.0644827
-0.0638025
-0.0629004
-0.0617753
-0.0604262
-0.0588528
-0.0570555
-0.0550363
-0.0527996
-0.0503531
-0.0477092
-0.0448864
-0.0419106
-0.0388167
-0.0356495
-0.0324636
-0.0293231
-0.026299
-0.0234654
-0.0208942
-0.0186486
-0.0167767
-0.0153056
-0.0142381
-0.0135522
-0.0132048
-0.0131368
-0.0132816
-0.0135719
-0.0139465
-0.014352
-0.0147459
-0.0151155
-0.0154683
-0.00430722
-0.0047037
-0.0049864
-0.00522322
-0.00547224
-0.00575691
-0.00609758
-0.00651321
-0.00701996
-0.00763201
-0.00836223
-0.00922252
-0.0102239
-0.011376
-0.0126872
-0.0141637
-0.0158093
-0.0176248
-0.0196076
-0.0217516
-0.0240468
-0.0264793
-0.0290317
-0.0316833
-0.0344103
-0.037187
-0.0399861
-0.0427796
-0.0455395
-0.0482388
-0.0508519
-0.0533553
-0.0557278
-0.0579509
-0.0600087
-0.0618881
-0.0635785
-0.0650715
-0.0663608
-0.0674417
-0.068311
-0.0689665
-0.0694068
-0.0696309
-0.0696381
-0.0694278
-0.0689993
-0.0683514
-0.067483
-0.0663925
-0.0650778
-0.0635372
-0.0617691
-0.0597728
-0.0575489
-0.055101
-0.0524362
-0.0495672
-0.0465139
-0.043305
-0.0399799
-0.0365897
-0.0331975
-0.0298768
-0.0267085
-0.023776
-0.0211579
-0.0189203
-0.0171087
-0.0157423
-0.0148113
-0.0142782
-0.0140838
-0.0141551
-0.0144153
-0.0147916
-0.0152198
-0.0156475
-0.0160581
-0.0164591
-0.0052796
-0.00566671
-0.00594757
-0.00618961
-0.00645071
-0.00675499
-0.00712335
-0.00757522
-0.00812724
-0.008794
-0.00958886
-0.0105241
-0.011611
-0.0128594
-0.0142776
-0.0158715
-0.0176442
-0.0195956
-0.0217218
-0.024015
-0.0264635
-0.0290513
-0.0317586
-0.0345626
-0.0374373
-0.040355
-0.0432865
-0.0462025
-0.049074
-0.0518734
-0.054575
-0.0571553
-0.0595939
-0.0618729
-0.0639778
-0.0658965
-0.0676197
-0.0691403
-0.0704534
-0.0715555
-0.0724444
-0.0731191
-0.0735791
-0.073824
-0.0738541
-0.0736692
-0.073269
-0.0726527
-0.0718191
-0.0707664
-0.0694921
-0.0679934
-0.0662673
-0.0643108
-0.0621218
-0.0596998
-0.0570472
-0.054171
-0.0510843
-0.0478088
-0.044377
-0.0408341
-0.0372388
-0.0336641
-0.0301943
-0.0269213
-0.0239376
-0.0213269
-0.0191553
-0.0174617
-0.0162527
-0.0155014
-0.0151515
-0.0151266
-0.0153405
-0.015709
-0.0161551
-0.0166157
-0.0170688
-0.0175215
-0.00632593
-0.00670015
-0.00697731
-0.00722374
-0.00749661
-0.00782053
-0.00821686
-0.00870534
-0.00930295
-0.0100247
-0.0108842
-0.0118942
-0.013066
-0.0144096
-0.015933
-0.0176418
-0.0195381
-0.0216209
-0.0238849
-0.0263205
-0.028914
-0.0316473
-0.0344986
-0.0374426
-0.0404513
-0.0434951
-0.0465434
-0.0495656
-0.052532
-0.0554146
-0.0581879
-0.0608289
-0.0633178
-0.065638
-0.0677759
-0.0697208
-0.0714649
-0.0730022
-0.0743291
-0.0754432
-0.0763437
-0.0770303
-0.0775033
-0.0777634
-0.0778113
-0.0776476
-0.0772724
-0.0766854
-0.0758855
-0.0748712
-0.0736398
-0.072188
-0.0705118
-0.0686069
-0.0664689
-0.064094
-0.0614807
-0.0586304
-0.0555497
-0.0522532
-0.048765
-0.0451225
-0.0413779
-0.0375998
-0.0338723
-0.0302922
-0.0269627
-0.0239842
-0.0214434
-0.0194017
-0.0178861
-0.0168849
-0.0163498
-0.0162036
-0.0163532
-0.0167022
-0.0171604
-0.0176519
-0.0181486
-0.0186563
-0.00743981
-0.00779771
-0.00806929
-0.00831915
-0.00860326
-0.00894657
-0.00937073
-0.00989571
-0.0105387
-0.011315
-0.0122384
-0.0133219
-0.0145769
-0.0160134
-0.017639
-0.0194587
-0.0214738
-0.0236819
-0.0260764
-0.0286459
-0.0313745
-0.0342423
-0.037225
-0.0402953
-0.0434234
-0.0465779
-0.049727
-0.052839
-0.055884
-0.0588337
-0.061663
-0.0643497
-0.0668748
-0.0692228
-0.0713816
-0.0733416
-0.0750963
-0.0766411