/*--------------------------------*- C++ -*----------------------------------*\
  =========                 |
  \\      /  F ield         | OpenFOAM: The Open Source CFD Toolbox
   \\    /   O peration     | Website:  https://openfoam.org
    \\  /    A nd           | Version:  7
     \\/     M anipulation  |
\*---------------------------------------------------------------------------*/
FoamFile
{
    version     2.0;
    format      ascii;
    class       surfaceScalarField;
    location    "1.425";
    object      phi;
}
// * * * * * * * * * * * * * * * * * * * * * * * * * * * * * * * * * * * * * //

dimensions      [0 3 -1 0 0 0 0];

internalField   nonuniform List<scalar> 
12640
(
2.20614e-10
-2.28957e-10
6.18142e-10
-3.97474e-10
9.38973e-10
-3.20816e-10
1.05023e-09
-1.11241e-10
8.92546e-10
1.5769e-10
4.46509e-10
4.46044e-10
-2.84874e-10
7.3139e-10
-1.28655e-09
1.00167e-09
-2.53702e-09
1.25047e-09
-4.0118e-09
1.47478e-09
-5.68539e-09
1.67359e-09
-7.53252e-09
1.84713e-09
-9.52883e-09
1.99631e-09
-1.16513e-08
2.12244e-09
-1.38783e-08
2.227e-09
-1.61898e-08
2.31152e-09
-1.85673e-08
2.37748e-09
-2.09935e-08
2.42624e-09
-2.34525e-08
2.45901e-09
-2.59293e-08
2.47681e-09
-2.84098e-08
2.48048e-09
-3.08805e-08
2.47066e-09
-3.33283e-08
2.44783e-09
-3.57406e-08
2.4123e-09
-3.81049e-08
2.36425e-09
-4.04086e-08
2.30374e-09
-4.26393e-08
2.23073e-09
-4.47845e-08
2.14515e-09
-4.68314e-08
2.04687e-09
-4.87671e-08
1.93578e-09
-5.0579e-08
1.81181e-09
-5.22539e-08
1.67493e-09
-5.37791e-08
1.5252e-09
-5.51419e-08
1.3628e-09
-5.63299e-08
1.18805e-09
-5.73313e-08
1.00141e-09
-5.81349e-08
8.03521e-10
-5.87301e-08
5.95215e-10
-5.91076e-08
3.77515e-10
-5.92592e-08
1.51648e-10
-5.91783e-08
-8.09504e-11
-5.88597e-08
-3.18641e-10
-5.83001e-08
-5.59591e-10
-5.74983e-08
-8.01785e-10
-5.64552e-08
-1.04304e-09
-5.51742e-08
-1.28104e-09
-5.36609e-08
-1.51334e-09
-5.19234e-08
-1.73741e-09
-4.99728e-08
-1.95069e-09
-4.78222e-08
-2.15059e-09
-4.54876e-08
-2.33457e-09
-4.29874e-08
-2.50017e-09
-4.03424e-08
-2.64504e-09
-3.75754e-08
-2.76703e-09
-3.47112e-08
-2.86419e-09
-3.17764e-08
-2.93482e-09
-2.87988e-08
-2.97753e-09
-2.58076e-08
-2.99127e-09
-2.28322e-08
-2.97534e-09
-1.99028e-08
-2.92944e-09
-1.70491e-08
-2.85367e-09
-1.43005e-08
-2.74856e-09
-1.16855e-08
-2.61502e-09
-9.23109e-09
-2.45443e-09
-6.96253e-09
-2.26856e-09
-4.90293e-09
-2.0596e-09
-3.07278e-09
-1.83015e-09
-1.48953e-09
-1.58325e-09
-1.67131e-10
-1.3224e-09
8.8449e-10
-1.05162e-09
1.66003e-09
-7.75537e-10
2.1597e-09
-4.99678e-10
2.39048e-09
-2.30786e-10
2.36788e-09
2.25922e-11
2.119e-09
2.48879e-10
1.68686e-09
4.32147e-10
1.13726e-09
5.49591e-10
5.69744e-10
5.67526e-10
1.33433e-10
4.36335e-10
1.3346e-10
3.95435e-10
-6.24349e-10
9.07364e-10
-9.09389e-10
1.1438e-09
-5.57227e-10
8.67057e-10
1.65524e-10
-5.64673e-11
1.08123e-09
-1.68548e-09
2.07505e-09
-4.02912e-09
3.07503e-09
-7.06417e-09
4.03672e-09
-1.07478e-08
4.9341e-09
-1.50259e-08
5.75283e-09
-1.98384e-08
6.48611e-09
-2.51232e-08
7.13201e-09
-3.08186e-08
7.69167e-09
-3.68643e-08
8.16811e-09
-4.32027e-08
8.56542e-09
-4.97793e-08
8.88815e-09
-5.65428e-08
9.14089e-09
-6.34446e-08
9.32805e-09
-7.04392e-08
9.45361e-09
-7.74834e-08
9.52106e-09
-8.45362e-08
9.53328e-09
-9.15582e-08
9.49259e-09
-9.85111e-08
9.40075e-09
-1.05358e-07
9.25896e-09
-1.12061e-07
9.06798e-09
-1.18586e-07
8.8282e-09
-1.24895e-07
8.53972e-09
-1.30952e-07
8.20245e-09
-1.36722e-07
7.81624e-09
-1.42167e-07
7.38092e-09
-1.47251e-07
6.8965e-09
-1.5194e-07
6.36319e-09
-1.56196e-07
5.78154e-09
-1.59986e-07
5.1525e-09
-1.63275e-07
4.47755e-09
-1.66033e-07
3.75869e-09
-1.68228e-07
2.99859e-09
-1.69833e-07
2.20057e-09
-1.70824e-07
1.36867e-09
-1.7118e-07
5.0767e-10
-1.70884e-07
-3.7694e-10
-1.69924e-07
-1.27894e-09
-1.68292e-07
-2.19142e-09
-1.65987e-07
-3.10683e-09
-1.63013e-07
-4.01705e-09
-1.59381e-07
-4.91347e-09
-1.55107e-07
-5.78708e-09
-1.50216e-07
-6.62861e-09
-1.44738e-07
-7.42863e-09
-1.38711e-07
-8.17773e-09
-1.32178e-07
-8.86665e-09
-1.25192e-07
-9.48643e-09
-1.17809e-07
-1.00286e-08
-1.1009e-07
-1.04853e-08
-1.02105e-07
-1.08496e-08
-9.39245e-08
-1.11153e-08
-8.56245e-08
-1.12775e-08
-7.72834e-08
-1.13324e-08
-6.89811e-08
-1.12776e-08
-6.07984e-08
-1.11121e-08
-5.28156e-08
-1.08364e-08
-4.51116e-08
-1.04525e-08
-3.77626e-08
-9.96404e-09
-3.08409e-08
-9.37609e-09
-2.4414e-08
-8.69545e-09
-1.85432e-08
-7.93044e-09
-1.32823e-08
-7.09104e-09
-8.67665e-09
-6.18888e-09
-4.76165e-09
-5.2374e-09
-1.56118e-09
-4.2521e-09
9.14213e-10
-3.25094e-09
2.66954e-09
-2.25502e-09
3.72838e-09
-1.28963e-09
4.13697e-09
-3.86011e-10
3.96955e-09
4.16302e-10
3.33553e-09
1.06616e-09
2.38837e-09
1.49673e-09
1.33429e-09
1.62156e-09
4.34342e-10
1.33622e-09
5.67813e-10
3.25312e-10
-9.49643e-10
5.64087e-10
-1.14815e-09
2.81702e-10
-2.74814e-10
-7.93858e-10
1.2411e-09
-2.82547e-09
3.11285e-09
-5.89189e-09
5.14147e-09
-1.00098e-08
7.19294e-09
-1.51531e-08
9.18001e-09
-2.12669e-08
1.10479e-08
-2.82779e-08
1.27638e-08
-3.61022e-08
1.43105e-08
-4.46508e-08
1.56806e-08
-5.38329e-08
1.68737e-08
-6.35586e-08
1.78939e-08
-7.37408e-08
1.87476e-08
-8.42956e-08
1.9443e-08
-9.51431e-08
1.99883e-08
-1.06207e-07
2.0392e-08
-1.17415e-07
2.06616e-08
-1.28698e-07
2.08041e-08
-1.3999e-07
2.08251e-08
-1.51227e-07
2.07295e-08
-1.62347e-07
2.05208e-08
-1.73289e-07
2.02016e-08
-1.83995e-07
1.97738e-08
-1.94405e-07
1.92383e-08
-2.04461e-07
1.85956e-08
-2.14105e-07
1.78459e-08
-2.23278e-07
1.69893e-08
-2.31922e-07
1.60258e-08
-2.39982e-07
1.49558e-08
-2.47399e-07
1.37804e-08
-2.54119e-07
1.25011e-08
-2.60086e-07
1.11204e-08
-2.65251e-07
9.64193e-09
-2.69563e-07
8.07041e-09
-2.72976e-07
6.41192e-09
-2.75449e-07
4.67394e-09
-2.76946e-07
2.86543e-09
-2.77435e-07
9.96837e-10
-2.76892e-07
-9.19861e-10
-2.753e-07
-2.87123e-09
-2.72649e-07
-4.84241e-09
-2.68939e-07
-6.81726e-09
-2.64177e-07
-8.77848e-09
-2.58383e-07
-1.07078e-08
-2.51584e-07
-1.25861e-08
-2.43819e-07
-1.43938e-08
-2.35136e-07
-1.61111e-08
-2.25596e-07
-1.77183e-08
-2.15266e-07
-1.91958e-08
-2.04228e-07
-2.05249e-08
-1.92569e-07
-2.1688e-08
-1.80385e-07
-2.26686e-08
-1.67783e-07
-2.34522e-08
-1.54872e-07
-2.40262e-08
-1.41769e-07
-2.43801e-08
-1.28595e-07
-2.45062e-08
-1.15473e-07
-2.43997e-08
-1.02527e-07
-2.40585e-08
-8.98796e-08
-2.34838e-08
-7.76521e-08
-2.26801e-08
-6.59611e-08
-2.16551e-08
-5.49172e-08
-2.042e-08
-4.46234e-08
-1.89893e-08
-3.51728e-08
-1.7381e-08
-2.66472e-08
-1.56166e-08
-1.91148e-08
-1.37213e-08
-1.2628e-08
-1.17242e-08
-7.22143e-09
-9.65865e-09
-2.90907e-09
-7.5633e-09
3.18961e-10
-5.48306e-09
2.50023e-09
-3.4709e-09
3.7046e-09
-1.59038e-09
4.04013e-09
8.07758e-11
3.65954e-09
1.44677e-09
2.76783e-09
2.38847e-09
1.6283e-09
2.76111e-09
5.66688e-10
2.39779e-09
1.1345e-09
1.18713e-10
-1.06834e-09
-1.60984e-10
-8.68441e-10
-1.24944e-09
8.13652e-10
-3.41177e-09
3.40343e-09
-6.80919e-09
6.51025e-09
-1.15206e-08
9.85292e-09
-1.75615e-08
1.32338e-08
-2.49e-08
1.65185e-08
-3.34713e-08
1.96191e-08
-4.31877e-08
2.24803e-08
-5.39475e-08
2.50703e-08
-6.56408e-08
2.73739e-08
-7.81542e-08
2.93872e-08
-9.13743e-08
3.11139e-08
-1.05189e-07
3.25625e-08
-1.1949e-07
3.37441e-08
-1.34173e-07
3.46711e-08
-1.49137e-07
3.53559e-08
-1.64286e-07
3.58105e-08
-1.79527e-07
3.60453e-08
-1.94772e-07
3.60696e-08
-2.09933e-07
3.58908e-08
-2.24927e-07
3.55151e-08
-2.39672e-07
3.49467e-08
-2.54087e-07
3.41888e-08
-2.68093e-07
3.32434e-08
-2.81609e-07
3.21117e-08
-2.94557e-07
3.07944e-08
-3.0686e-07
2.92922e-08
-3.1844e-07
2.76058e-08
-3.29221e-07
2.57366e-08
-3.39127e-07
2.36867e-08
-3.48086e-07
2.14597e-08
-3.56026e-07
1.90604e-08
-3.6288e-07
1.64956e-08
-3.68583e-07
1.37739e-08
-3.73077e-07
1.09063e-08
-3.76309e-07
7.90591e-09
-3.78232e-07
4.78841e-09
-3.78808e-07
1.57195e-09
-3.78005e-07
-1.72286e-09
-3.75803e-07
-5.07301e-09
-3.72192e-07
-8.45318e-09
-3.67173e-07
-1.18359e-08
-3.6076e-07
-1.5192e-08
-3.52977e-07
-1.84905e-08
-3.43864e-07
-2.16994e-08
-3.33472e-07
-2.47858e-08
-3.21866e-07
-2.77165e-08
-3.09126e-07
-3.04582e-08
-2.95343e-07
-3.29787e-08
-2.80622e-07
-3.52465e-08
-2.65077e-07
-3.72323e-08
-2.48837e-07
-3.89088e-08
-2.32038e-07
-4.02517e-08
-2.14824e-07
-4.124e-08
-1.97347e-07
-4.18567e-08
-1.79765e-07
-4.20889e-08
-1.62236e-07
-4.19285e-08
-1.44922e-07
-4.13724e-08
-1.27983e-07
-4.04228e-08
-1.11576e-07
-3.90874e-08
-9.58511e-08
-3.73795e-08
-8.09532e-08
-3.53179e-08
-6.70148e-08
-3.29276e-08
-5.41567e-08
-3.02391e-08
-4.24841e-08
-2.72892e-08
-3.20849e-08
-2.41206e-08
-2.30261e-08
-2.07829e-08
-1.53519e-08
-1.73329e-08
-9.07973e-09
-1.38355e-08
-4.19703e-09
-1.03658e-08
-6.57174e-10
-7.01077e-09
1.6252e-09
-3.87277e-09
2.77918e-09
-1.07322e-09
2.98349e-09
1.24243e-09
2.47231e-09
2.89964e-09
1.54165e-09
3.69179e-09
5.58512e-10
3.38091e-09
1.693e-09
-1.54568e-10
-9.13758e-10
-1.10541e-09
8.24124e-11
-3.19353e-09
2.90177e-09
-6.64596e-09
6.85585e-09
-1.16002e-08
1.14644e-08
-1.81196e-08
1.63724e-08
-2.62082e-08
2.13223e-08
-3.58237e-08
2.6134e-08
-4.68896e-08
3.06851e-08
-5.93053e-08
3.48959e-08
-7.29537e-08
3.87187e-08
-8.77083e-08
4.21284e-08
-1.03437e-07
4.5116e-08
-1.20007e-07
4.76838e-08
-1.37286e-07
4.98413e-08
-1.55144e-07
5.16024e-08
-1.73456e-07
5.29832e-08
-1.921e-07
5.40001e-08
-2.10959e-07
5.46692e-08
-2.29919e-07
5.5005e-08
-2.4887e-07
5.50205e-08
-2.67705e-07
5.47261e-08
-2.8632e-07
5.41304e-08
-3.04614e-07
5.324e-08
-3.22485e-07
5.20596e-08
-3.39834e-07
5.05925e-08
-3.56563e-07
4.8841e-08
-3.72575e-07
4.68067e-08
-3.87774e-07
4.44912e-08
-4.02065e-07
4.18963e-08
-4.15353e-07
3.90251e-08
-4.27548e-07
3.58816e-08
-4.3856e-07
3.24718e-08
-4.48304e-07
2.8804e-08
-4.56697e-07
2.48891e-08
-4.63664e-07
2.07409e-08
-4.69134e-07
1.63764e-08
-4.73044e-07
1.1816e-08
-4.7534e-07
7.08386e-09
-4.75975e-07
2.20747e-09
-4.74916e-07
-2.78193e-09
-4.7214e-07
-7.84965e-09
-4.67635e-07
-1.29577e-08
-4.61406e-07
-1.8065e-08
-4.5347e-07
-2.3128e-08
-4.4386e-07
-2.81007e-08
-4.32624e-07
-3.29355e-08
-4.19826e-07
-3.75837e-08
-4.05547e-07
-4.19961e-08
-3.89881e-07
-4.61238e-08
-3.72941e-07
-4.99189e-08
-3.54852e-07
-5.33354e-08
-3.35755e-07
-5.63298e-08
-3.15801e-07
-5.88621e-08
-2.95156e-07
-6.08965e-08
-2.73994e-07
-6.24023e-08
-2.52497e-07
-6.33543e-08
-2.30852e-07
-6.37338e-08
-2.09251e-07
-6.3529e-08
-1.87888e-07
-6.27354e-08
-1.66954e-07
-6.13564e-08
-1.46638e-07
-5.94036e-08
-1.27121e-07
-5.68969e-08
-1.08574e-07
-5.38646e-08
-9.1158e-08
-5.03438e-08
-7.50168e-08
-4.63804e-08
-6.0277e-08
-4.2029e-08
-4.70437e-08
-3.73539e-08
-3.53979e-08
-3.24287e-08
-2.5393e-08
-2.73378e-08
-1.70514e-08
-2.21771e-08
-1.03609e-08
-1.70563e-08
-5.27076e-09
-1.21009e-08
-1.68769e-09
-7.45583e-09
5.28695e-10
-3.28962e-09
1.57048e-09
2.00625e-10
1.68654e-09
2.78356e-09
1.18885e-09
4.18949e-09
4.62831e-10
4.10692e-09
2.15583e-09
-4.58287e-10
-4.5547e-10
-2.16772e-09
1.79184e-09
-5.37818e-09
6.11222e-09
-1.0258e-08
1.17357e-08
-1.69047e-08
1.81111e-08
-2.53536e-08
2.48212e-08
-3.5588e-08
3.15567e-08
-4.75491e-08
3.80952e-08
-6.11462e-08
4.42821e-08
-7.62643e-08
5.00141e-08
-9.27722e-08
5.52267e-08
-1.10528e-07
5.98843e-08
-1.29384e-07
6.39721e-08
-1.49191e-07
6.74904e-08
-1.69798e-07
7.04488e-08
-1.91059e-07
7.28635e-08
-2.1283e-07
7.47538e-08
-2.3497e-07
7.61401e-08
-2.57343e-07
7.70424e-08
-2.79818e-07
7.74794e-08
-3.02265e-07
7.74674e-08
-3.24559e-07
7.70203e-08
-3.46578e-07
7.61494e-08
-3.68201e-07
7.48634e-08
-3.89311e-07
7.3169e-08
-4.09789e-07
7.1071e-08
-4.29521e-07
6.8573e-08
-4.48392e-07
6.56781e-08
-4.6629e-07
6.2389e-08
-4.83104e-07
5.87095e-08
-4.98723e-07
5.46445e-08
-5.13042e-07
5.02007e-08
-5.25958e-07
4.53875e-08
-5.37371e-07
4.02174e-08
-5.47188e-07
3.47064e-08
-5.55322e-07
2.88746e-08
-5.61692e-07
2.27464e-08
-5.66227e-07
1.6351e-08
-5.68865e-07
9.72202e-09
-5.69556e-07
2.89834e-09
-5.68262e-07
-4.07654e-09
-5.64957e-07
-1.11544e-08
-5.59632e-07
-1.82827e-08
-5.52292e-07
-2.54048e-08
-5.4296e-07
-3.24604e-08
-5.31674e-07
-3.93867e-08
-5.18491e-07
-4.61182e-08
-5.03486e-07
-5.25882e-08
-4.86753e-07
-5.87295e-08
-4.68402e-07
-6.44753e-08
-4.4856e-07
-6.97602e-08
-4.27374e-07
-7.45214e-08
-4.05004e-07
-7.86997e-08
-3.81626e-07
-8.22405e-08
-3.57427e-07
-8.50951e-08
-3.32608e-07
-8.72215e-08
-3.07377e-07
-8.85856e-08
-2.81949e-07
-8.91618e-08
-2.56544e-07
-8.8934e-08
-2.31383e-07
-8.78962e-08
-2.06686e-07
-8.60532e-08
-1.82669e-07
-8.34207e-08
-1.5954e-07
-8.00263e-08
-1.37496e-07
-7.59088e-08
-1.1672e-07
-7.11193e-08
-9.73796e-08
-6.57209e-08
-7.96198e-08
-5.97888e-08
-6.35625e-08
-5.34112e-08
-4.93023e-08
-4.6689e-08
-3.69026e-08
-3.97374e-08
-2.63929e-08
-3.26868e-08
-1.77647e-08
-2.56845e-08
-1.09678e-08
-1.88977e-08
-5.90727e-09
-1.25164e-08
-2.4392e-09
-6.75768e-09
-3.67419e-10
-1.87115e-09
5.60856e-10
1.85527e-09
6.60093e-10
4.09024e-09
3.14694e-10
4.45231e-09
2.47052e-09
-7.73163e-10
3.17684e-10
-3.28624e-09
4.30489e-09
-7.69033e-09
1.05163e-08
-1.4084e-08
1.81294e-08
-2.25136e-08
2.65407e-08
-3.29767e-08
3.52843e-08
-4.54283e-08
4.40082e-08
-5.97875e-08
5.24544e-08
-7.59452e-08
6.04398e-08
-9.37705e-08
6.78394e-08
-1.13117e-07
7.45735e-08
-1.33829e-07
8.05961e-08
-1.55744e-07
8.58869e-08
-1.78697e-07
9.04432e-08
-2.02523e-07
9.4275e-08
-2.2706e-07
9.74001e-08
-2.52147e-07
9.98409e-08
-2.77628e-07
1.01621e-07
-3.03351e-07
1.02765e-07
-3.29167e-07
1.03296e-07
-3.54931e-07
1.03232e-07
-3.80502e-07
1.02591e-07
-4.05739e-07
1.01387e-07
-4.30507e-07
9.96311e-08
-4.5467e-07
9.73324e-08
-4.78096e-07
9.44972e-08
-5.00654e-07
9.11307e-08
-5.22213e-07
8.72376e-08
-5.42647e-07
8.28226e-08
-5.61829e-07
7.78914e-08
-5.79636e-07
7.24516e-08
-5.95948e-07
6.65132e-08
-6.10651e-07
6.00898e-08
-6.23632e-07
5.31987e-08
-6.34788e-07
4.58623e-08
-6.44021e-07
3.81078e-08
-6.51243e-07
2.99682e-08
-6.56375e-07
2.14825e-08
-6.59348e-07
1.26957e-08
-6.60109e-07
3.65893e-09
-6.58615e-07
-5.57026e-09
-6.54841e-07
-1.49286e-08
-6.48776e-07
-2.43473e-08
-6.40429e-07
-3.37523e-08
-6.29824e-07
-4.30652e-08
-6.17007e-07
-5.2204e-08
-6.02041e-07
-6.10838e-08
-5.85011e-07
-6.96181e-08
-5.66021e-07
-7.77196e-08
-5.45194e-07
-8.53019e-08
-5.22674e-07
-9.22803e-08
-4.98622e-07
-9.85736e-08
-4.73217e-07
-1.04105e-07
-4.46653e-07
-1.08804e-07
-4.19141e-07
-1.12607e-07
-3.90902e-07
-1.15461e-07
-3.62168e-07
-1.1732e-07
-3.33178e-07
-1.18151e-07
-3.04178e-07
-1.17935e-07
-2.75412e-07
-1.16662e-07
-2.47127e-07
-1.14338e-07
-2.19562e-07
-1.10985e-07
-1.92951e-07
-1.06638e-07
-1.67513e-07
-1.01346e-07
-1.43455e-07
-9.51771e-08
-1.20964e-07
-8.82122e-08
-1.00204e-07
-8.05492e-08
-8.13126e-08
-7.23022e-08
-6.43995e-08
-6.36022e-08
-4.95395e-08
-5.45974e-08
-3.67714e-08
-4.5455e-08
-2.60934e-08
-3.63625e-08
-1.74605e-08
-2.75306e-08
-1.07812e-08
-1.91957e-08
-5.91445e-09
-1.16244e-08
-2.66716e-09
-5.11844e-09
-7.91078e-10
-2.08197e-11
2.02473e-11
3.27891e-09
1.3651e-10
4.33604e-09
2.60704e-09
-1.0891e-09
1.40677e-09
-4.4239e-09
7.63967e-09
-1.00576e-08
1.615e-08
-1.80138e-08
2.60855e-08
-2.82809e-08
3.68078e-08
-4.0812e-08
4.78154e-08
-5.55276e-08
5.87238e-08
-7.23197e-08
6.92466e-08
-9.10573e-08
7.91774e-08
-1.11591e-07
8.83733e-08
-1.33759e-07
9.67412e-08
-1.57389e-07
1.04227e-07
-1.82306e-07
1.10804e-07
-2.0833e-07
1.16468e-07
-2.35284e-07
1.21229e-07
-2.6299e-07
1.25106e-07
-2.91274e-07
1.28125e-07
-3.19967e-07
1.30314e-07
-3.489e-07
1.31699e-07
-3.77912e-07
1.32307e-07
-4.06841e-07
1.32161e-07
-4.35533e-07
1.31282e-07
-4.63831e-07
1.29686e-07
-4.91587e-07
1.27386e-07
-5.18649e-07
1.24395e-07
-5.44871e-07
1.20719e-07
-5.70108e-07
1.16367e-07
-5.94215e-07
1.11345e-07
-6.17052e-07
1.05659e-07
-6.38479e-07
9.93189e-08
-6.58362e-07
9.2334e-08
-6.76567e-07
8.47189e-08
-6.92969e-07
7.64917e-08
-7.07446e-07
6.76757e-08
-7.19884e-07
5.83e-08
-7.30177e-07
4.84003e-08
-7.38227e-07
3.8019e-08
-7.43951e-07
2.7206e-08
-7.47274e-07
1.60187e-08
-7.48137e-07
4.52204e-09
-7.46496e-07
-7.21133e-09
-7.42323e-07
-1.91017e-08
-7.35608e-07
-3.10624e-08
-7.26359e-07
-4.30007e-08
-7.14606e-07
-5.48184e-08
-7.00397e-07
-6.64129e-08
-6.83803e-07
-7.76782e-08
-6.64915e-07
-8.85063e-08
-6.43846e-07
-9.87884e-08
-6.20731e-07
-1.08417e-07
-5.95726e-07
-1.17285e-07
-5.69006e-07
-1.25293e-07
-5.40766e-07
-1.32345e-07
-5.11218e-07
-1.38352e-07
-4.80589e-07
-1.43236e-07
-4.49121e-07
-1.46929e-07
-4.17067e-07
-1.49374e-07
-3.84687e-07
-1.50531e-07
-3.52249e-07
-1.50373e-07
-3.20022e-07
-1.48889e-07
-2.88274e-07
-1.46087e-07
-2.57269e-07
-1.41991e-07
-2.27261e-07
-1.36646e-07
-1.98494e-07
-1.30113e-07
-1.71195e-07
-1.22476e-07
-1.45571e-07
-1.13836e-07
-1.21805e-07
-1.04315e-07
-1.00053e-07
-9.40545e-08
-8.04382e-08
-8.32169e-08
-6.30499e-08
-7.19857e-08
-4.79381e-08
-6.05667e-08
-3.51115e-08
-4.91891e-08
-2.45338e-08
-3.81084e-08
-1.61214e-08
-2.76081e-08
-9.74122e-09
-1.80046e-08
-5.209e-09
-9.65065e-09
-2.28762e-09
-2.9422e-09
-6.85765e-10
1.67706e-09
-5.74087e-11
3.70767e-09
2.54963e-09
-1.40083e-09
2.80759e-09
-5.559e-09
1.17978e-08
-1.24342e-08
2.30252e-08
-2.19741e-08
3.56253e-08
-3.41055e-08
4.89392e-08
-4.87328e-08
6.24427e-08
-6.57374e-08
7.57284e-08
-8.49804e-08
8.84895e-08
-1.06305e-07
1.00502e-07
-1.29543e-07
1.1161e-07
-1.54512e-07
1.2171e-07
-1.81026e-07
1.30741e-07
-2.08895e-07
1.38672e-07
-2.37927e-07
1.45499e-07
-2.6793e-07
1.51232e-07
-2.98715e-07
1.55891e-07
-3.30096e-07
1.59506e-07
-3.61889e-07
1.62107e-07
-3.93915e-07
1.63725e-07
-4.25997e-07
1.64389e-07
-4.57963e-07
1.64128e-07
-4.89644e-07
1.62963e-07
-5.20873e-07
1.60914e-07
-5.51484e-07
1.57998e-07
-5.81317e-07
1.54227e-07
-6.1021e-07
1.49613e-07
-6.38006e-07
1.44163e-07
-6.64549e-07
1.37887e-07
-6.89684e-07
1.30795e-07
-7.13262e-07
1.22897e-07
-7.35136e-07
1.14208e-07
-7.55162e-07
1.04745e-07
-7.73204e-07
9.45339e-08
-7.89132e-07
8.36028e-08
-8.02821e-07
7.1989e-08
-8.14157e-07
5.97369e-08
-8.23038e-07
4.68995e-08
-8.2937e-07
3.35386e-08
-8.33076e-07
1.97248e-08
-8.34092e-07
5.53795e-09
-8.3237e-07
-8.93311e-09
-8.27881e-07
-2.3591e-08
-8.20613e-07
-3.83302e-08
-8.10576e-07
-5.30379e-08
-7.978e-07
-6.75947e-08
-7.82337e-07
-8.18761e-08
-7.64261e-07
-9.57536e-08
-7.43671e-07
-1.09096e-07
-7.20688e-07
-1.21772e-07
-6.95453e-07
-1.33651e-07
-6.68134e-07
-1.44604e-07
-6.38919e-07
-1.54509e-07
-6.08014e-07
-1.6325e-07
-5.75647e-07
-1.70719e-07
-5.42062e-07
-1.76821e-07
-5.07517e-07
-1.81473e-07
-4.72285e-07
-1.84607e-07
-4.36645e-07
-1.8617e-07
-4.00886e-07
-1.86132e-07
-3.65298e-07
-1.84477e-07
-3.30171e-07
-1.81214e-07
-2.95791e-07
-1.76371e-07
-2.62435e-07
-1.70002e-07
-2.30368e-07
-1.6218e-07
-1.99838e-07
-1.53006e-07
-1.71072e-07
-1.42602e-07
-1.44274e-07
-1.31113e-07
-1.19617e-07
-1.18712e-07
-9.72419e-08
-1.05592e-07
-7.72531e-08
-9.19745e-08
-5.97153e-08
-7.81046e-08
-4.46498e-08
-6.42546e-08
-3.20328e-08
-5.07253e-08
-2.17927e-08
-3.78483e-08
-1.38084e-08
-2.59889e-08
-7.90881e-09
-1.55502e-08
-3.87259e-09
-6.97841e-09
-1.42861e-09
-7.66921e-10
-2.58359e-10
2.53742e-09
2.29126e-09
-1.70572e-09
4.5133e-09
-6.6789e-09
1.6771e-08
-1.47915e-08
3.11378e-08
-2.59163e-08
4.67501e-08
-3.99178e-08
6.29408e-08
-5.66488e-08
7.91738e-08
-7.59489e-08
9.50285e-08
-9.76451e-08
1.10186e-07
-1.21553e-07
1.2441e-07
-1.4748e-07
1.37537e-07
-1.75227e-07
1.49457e-07
-2.04591e-07
1.60104e-07
-2.35365e-07
1.69447e-07
-2.67347e-07
1.77481e-07
-3.00331e-07
1.84216e-07
-3.34117e-07
1.89677e-07
-3.68506e-07
1.93896e-07
-4.03305e-07
1.96905e-07
-4.38321e-07
1.98742e-07
-4.73369e-07
1.99437e-07
-5.08263e-07
1.99022e-07
-5.42824e-07
1.97523e-07
-5.76872e-07
1.94962e-07
-6.10231e-07
1.91357e-07
-6.42728e-07
1.86724e-07
-6.74191e-07
1.81076e-07
-7.04451e-07
1.74423e-07
-7.33341e-07
1.66777e-07
-7.60696e-07
1.5815e-07
-7.86355e-07
1.48556e-07
-8.10161e-07
1.38013e-07
-8.31961e-07
1.26546e-07
-8.51609e-07
1.14182e-07
-8.68966e-07
1.00959e-07
-8.83899e-07
8.69222e-08
-8.96287e-07
7.21253e-08
-9.0602e-07
5.66324e-08
-9.12999e-07
4.05178e-08
-9.17141e-07
2.38664e-08
-9.18377e-07
6.77366e-09
-9.16655e-07
-1.06545e-08
-9.11944e-07
-2.83021e-08
-9.04231e-07
-4.60438e-08
-8.93523e-07
-6.37454e-08
-8.79852e-07
-8.12655e-08
-8.63272e-07
-9.84565e-08
-8.43859e-07
-1.15166e-07
-8.21717e-07
-1.31239e-07
-7.9697e-07
-1.46519e-07
-7.6977e-07
-1.60851e-07
-7.40291e-07
-1.74083e-07
-7.0873e-07
-1.8607e-07
-6.75306e-07
-1.96674e-07
-6.40259e-07
-2.05766e-07
-6.03848e-07
-2.13233e-07
-5.66347e-07
-2.18974e-07
-5.28044e-07
-2.22909e-07
-4.8924e-07
-2.24975e-07
-4.5024e-07
-2.25131e-07
-4.11356e-07
-2.23361e-07
-3.72899e-07
-2.19671e-07
-3.35176e-07
-2.14094e-07
-2.98486e-07
-2.06691e-07
-2.63117e-07
-1.9755e-07
-2.29338e-07
-1.86785e-07
-1.97399e-07
-1.74541e-07
-1.67522e-07
-1.6099e-07
-1.39901e-07
-1.46332e-07
-1.14697e-07
-1.30797e-07
-9.20302e-08
-1.14641e-07
-7.19832e-08
-9.81515e-08
-5.45935e-08
-8.16443e-08
-3.98523e-08
-6.54665e-08
-2.77032e-08
-4.99974e-08
-1.80408e-08
-3.56513e-08
-1.07104e-08
-2.28805e-08
-5.5096e-09
-1.21792e-08
-2.18986e-09
-4.08665e-09
-4.613e-10
8.0886e-10
1.82996e-09
-2.00249e-09
6.51579e-09
-7.7763e-09
2.25448e-08
-1.71114e-08
4.04729e-08
-2.98083e-08
5.9447e-08
-4.56696e-08
7.88021e-08
-6.44955e-08
9.79997e-08
-8.60819e-08
1.16615e-07
-1.1022e-07
1.34323e-07
-1.36695e-07
1.50886e-07
-1.6529e-07
1.66133e-07
-1.95786e-07
1.79953e-07
-2.27961e-07
1.92279e-07
-2.61596e-07
2.03082e-07
-2.96473e-07
2.12357e-07
-3.32375e-07
2.20118e-07
-3.69091e-07
2.26393e-07
-4.06411e-07
2.31216e-07
-4.44132e-07
2.34626e-07
-4.82053e-07
2.36662e-07
-5.19975e-07
2.37359e-07
-5.57705e-07
2.36752e-07
-5.95052e-07
2.3487e-07
-6.31827e-07
2.31737e-07
-6.67845e-07
2.27375e-07
-7.02921e-07
2.21801e-07
-7.36874e-07
2.15029e-07
-7.69525e-07
2.07074e-07
-8.00696e-07
1.97948e-07
-8.30213e-07
1.87667e-07
-8.57906e-07
1.76249e-07
-8.83608e-07
1.63716e-07
-9.07158e-07
1.50096e-07
-9.284e-07
1.35425e-07
-9.47188e-07
1.19746e-07
-9.6338e-07
1.03115e-07
-9.7685e-07
8.55944e-08
-9.87478e-07
6.72603e-08
-9.9516e-07
4.82002e-08
-9.99807e-07
2.85135e-08
-1.00135e-06
8.31205e-09
-9.99719e-07
-1.22805e-08
-9.94893e-07
-3.31287e-08
-9.8685e-07
-5.40865e-08
-9.75598e-07
-7.49979e-08
-9.61165e-07
-9.56981e-08
-9.43606e-07
-1.16015e-07
-9.23e-07
-1.35773e-07
-8.99449e-07
-1.54789e-07
-8.73085e-07
-1.72883e-07
-8.44063e-07
-1.89873e-07
-8.12563e-07
-2.05584e-07
-7.7879e-07
-2.19843e-07
-7.42974e-07
-2.3249e-07
-7.05365e-07
-2.43375e-07
-6.66234e-07
-2.52363e-07
-6.2587e-07
-2.59338e-07
-5.84578e-07
-2.64201e-07
-5.42674e-07
-2.66879e-07
-5.00484e-07
-2.67322e-07
-4.58338e-07
-2.65507e-07
-4.16569e-07
-2.6144e-07
-3.75506e-07
-2.55157e-07
-3.3547e-07
-2.46727e-07
-2.96771e-07
-2.36249e-07
-2.59702e-07
-2.23854e-07
-2.24534e-07
-2.09709e-07
-1.91514e-07
-1.9401e-07
-1.60856e-07
-1.7699e-07
-1.32742e-07
-1.58911e-07
-1.07313e-07
-1.4007e-07
-8.46712e-08
-1.20793e-07
-6.48728e-08
-1.01443e-07
-4.79272e-08
-8.24121e-08
-3.3796e-08
-6.41286e-08
-2.2392e-08
-4.70554e-08
-1.35796e-08
-3.16929e-08
-7.17695e-09
-1.85819e-08
-2.95906e-09
-8.30454e-09
-6.63607e-10
-1.48659e-09
1.16635e-09
-2.29062e-09
8.80641e-09
-8.84702e-09
2.91012e-08
-1.93826e-08
5.10086e-08
-3.36289e-08
7.36933e-08
-5.13274e-08
9.65006e-08
-7.22263e-08
1.18899e-07
-9.60769e-08
1.40466e-07
-1.22633e-07
1.60879e-07
-1.51649e-07
1.79902e-07
-1.82882e-07
1.97366e-07
-2.16091e-07
2.13162e-07
-2.51037e-07
2.27226e-07
-2.87485e-07
2.3953e-07
-3.25203e-07
2.50075e-07
-3.63964e-07
2.58879e-07
-4.03545e-07
2.65974e-07
-4.43727e-07
2.71399e-07
-4.84296e-07
2.75196e-07
-5.25044e-07
2.77409e-07
-5.65762e-07
2.78078e-07
-6.06249e-07
2.77239e-07
-6.46304e-07
2.74925e-07
-6.85731e-07
2.71164e-07
-7.24334e-07
2.65978e-07
-7.61921e-07
2.59388e-07
-7.98302e-07
2.5141e-07
-8.33288e-07
2.4206e-07
-8.66694e-07
2.31354e-07
-8.98336e-07
2.1931e-07
-9.28036e-07
2.05949e-07
-9.55619e-07
1.91298e-07
-9.80914e-07
1.75391e-07
-1.00376e-06
1.5827e-07
-1.024e-06
1.39986e-07
-1.04149e-06
1.20602e-07
-1.05608e-06
1.00192e-07
-1.06767e-06
7.88446e-08
-1.07613e-06
5.66598e-08
-1.08137e-06
3.37525e-08
-1.08331e-06
1.02512e-08
-1.08188e-06
-1.37022e-08
-1.07706e-06
-3.79523e-08
-1.06882e-06
-6.23317e-08
-1.05715e-06
-8.66617e-08
-1.0421e-06
-1.10754e-07
-1.0237e-06
-1.34411e-07
-1.00204e-06
-1.5743e-07
-9.7723e-07
-1.79603e-07
-9.4939e-07
-2.00723e-07
-9.18682e-07
-2.20581e-07
-8.85291e-07
-2.38974e-07
-8.4943e-07
-2.55704e-07
-8.11333e-07
-2.70586e-07
-7.71263e-07
-2.83446e-07
-7.295e-07
-2.94126e-07
-6.86347e-07
-3.02491e-07
-6.42124e-07
-3.08425e-07
-5.97163e-07
-3.1184e-07
-5.51808e-07
-3.12677e-07
-5.0641e-07
-3.10905e-07
-4.61322e-07
-3.06527e-07
-4.16896e-07
-2.99584e-07
-3.73476e-07
-2.90147e-07
-3.31396e-07
-2.78328e-07
-2.90974e-07
-2.64277e-07
-2.52504e-07
-2.48178e-07
-2.16258e-07
-2.30256e-07
-1.82475e-07
-2.10773e-07
-1.51359e-07
-1.90027e-07
-1.23076e-07
-1.68353e-07
-9.77485e-08
-1.46121e-07
-7.54547e-08
-1.23737e-07
-5.62253e-08
-1.01642e-07
-4.0042e-08
-8.03118e-08
-2.68382e-08
-6.02592e-08
-1.6499e-08
-4.20321e-08
-8.86396e-09
-2.62169e-08
-3.73138e-09
-1.34371e-08
-8.64258e-10
-4.35371e-09
3.021e-10
-2.56989e-09
1.13763e-08
-9.88863e-09
3.64199e-08
-2.15979e-08
6.27179e-08
-3.73633e-08
8.94586e-08
-5.68676e-08
1.16005e-07
-7.98071e-08
1.41838e-07
-1.05889e-07
1.66547e-07
-1.34829e-07
1.89819e-07
-1.6635e-07
2.11423e-07
-2.00183e-07
2.31199e-07
-2.36063e-07
2.49042e-07
-2.73734e-07
2.64897e-07
-3.12945e-07
2.78741e-07
-3.5345e-07
2.9058e-07
-3.95011e-07
3.0044e-07
-4.37395e-07
3.08357e-07
-4.80374e-07
3.14377e-07
-5.23725e-07
3.18547e-07
-5.6723e-07
3.20914e-07
-6.10675e-07
3.21523e-07
-6.5385e-07
3.20414e-07
-6.96547e-07
3.17622e-07
-7.38562e-07
3.13179e-07
-7.79692e-07
3.07108e-07
-8.19737e-07
2.99433e-07
-8.58499e-07
2.90172e-07
-8.95782e-07
2.79342e-07
-9.31392e-07
2.66964e-07
-9.6514e-07
2.53057e-07
-9.96837e-07
2.37647e-07
-1.0263e-06
2.20764e-07
-1.05336e-06
2.02447e-07
-1.07783e-06
1.82745e-07
-1.09957e-06
1.61718e-07
-1.1184e-06
1.39436e-07
-1.13419e-06
1.15984e-07
-1.14681e-06
9.14631e-08
-1.15614e-06
6.59868e-08
-1.16207e-06
3.96851e-08
-1.16452e-06
1.27034e-08
-1.16343e-06
-1.47976e-08
-1.15874e-06
-4.26426e-08
-1.15042e-06
-7.06422e-08
-1.13849e-06
-9.85945e-08
-1.12296e-06
-1.26286e-07
-1.10388e-06
-1.53495e-07
-1.08132e-06
-1.7999e-07
-1.05538e-06
-2.05537e-07
-1.02621e-06
-2.299e-07
-9.93946e-07
-2.52841e-07
-9.5879e-07
-2.74129e-07
-9.20955e-07
-2.9354e-07
-8.80681e-07
-3.10859e-07
-8.38238e-07
-3.25888e-07
-7.93918e-07
-3.38446e-07
-7.48035e-07
-3.48374e-07
-7.00921e-07
-3.55538e-07
-6.52927e-07
-3.59835e-07
-6.04414e-07
-3.6119e-07
-5.55753e-07
-3.59566e-07
-5.07318e-07
-3.54962e-07
-4.59486e-07
-3.47416e-07
-4.12624e-07
-3.37009e-07
-3.67092e-07
-3.2386e-07
-3.23234e-07
-3.08135e-07
-2.81371e-07
-2.9004e-07
-2.41801e-07
-2.69826e-07
-2.04791e-07
-2.47784e-07
-1.70569e-07
-2.24249e-07
-1.39329e-07
-1.99593e-07
-1.11217e-07
-1.74232e-07
-8.63364e-08
-1.48617e-07
-6.47406e-08
-1.23237e-07
-4.64344e-08
-9.8618e-08
-3.13732e-08
-7.53205e-08
-1.94639e-08
-5.39414e-08
-1.05681e-08
-3.51127e-08
-4.50606e-09
-1.94992e-08
-1.06333e-09
-7.79645e-09
-7.61226e-10
-2.84026e-09
1.42166e-08
-1.08996e-08
4.44793e-08
-2.37524e-08
7.55706e-08
-4.10013e-08
1.06708e-07
-6.22726e-08
1.37276e-07
-8.72122e-08
1.66778e-07
-1.15483e-07
1.94819e-07
-1.46764e-07
2.211e-07
-1.80746e-07
2.45405e-07
-2.17132e-07
2.67584e-07
-2.55635e-07
2.87546e-07
-2.9598e-07
3.05242e-07
-3.379e-07
3.20661e-07
-3.81137e-07
3.33817e-07
-4.25439e-07
3.44743e-07
-4.70566e-07
3.53484e-07
-5.16278e-07
3.6009e-07
-5.62348e-07
3.64616e-07
-6.08548e-07
3.67114e-07
-6.54658e-07
3.67633e-07
-7.00461e-07
3.66217e-07
-7.45743e-07
3.62905e-07
-7.90293e-07
3.57729e-07
-8.33902e-07
3.50717e-07
-8.76364e-07
3.41894e-07
-9.17473e-07
3.31281e-07
-9.57027e-07
3.18897e-07
-9.94826e-07
3.04763e-07
-1.03067e-06
2.88904e-07
-1.06437e-06
2.71348e-07
-1.09574e-06
2.52129e-07
-1.12459e-06
2.31292e-07
-1.15073e-06
2.08893e-07
-1.17401e-06
1.84996e-07
-1.19426e-06
1.59684e-07
-1.21133e-06
1.33051e-07
-1.22507e-06
1.05209e-07
-1.23537e-06
7.62861e-08
-1.24211e-06
4.64272e-08
-1.24521e-06
1.57947e-08
-1.24457e-06
-1.54322e-08
-1.24016e-06
-4.70575e-08
-1.23193e-06
-7.887e-08
-1.21988e-06
-1.10644e-07
-1.20402e-06
-1.42141e-07
-1.1844e-06
-1.73113e-07
-1.16109e-06
-2.03301e-07
-1.13419e-06
-2.32442e-07
-1.10382e-06
-2.60269e-07
-1.07014e-06
-2.86518e-07
-1.03335e-06
-3.10926e-07
-9.93648e-07
-3.33238e-07
-9.51295e-07
-3.53212e-07
-9.06562e-07
-3.70621e-07
-8.5975e-07
-3.85259e-07
-8.11183e-07
-3.96941e-07
-7.61208e-07
-4.05513e-07
-7.10191e-07
-4.10852e-07
-6.58512e-07
-4.12869e-07
-6.06561e-07
-4.11517e-07
-5.54736e-07
-4.06787e-07
-5.03436e-07
-3.98716e-07
-4.53056e-07
-3.87388e-07
-4.03984e-07
-3.72933e-07
-3.5659e-07
-3.55529e-07
-3.11226e-07
-3.35404e-07
-2.68219e-07
-3.12833e-07
-2.27864e-07
-2.88139e-07
-1.90421e-07
-2.61692e-07
-1.5611e-07
-2.33905e-07
-1.25106e-07
-2.05236e-07
-9.75389e-08
-1.76184e-07
-7.34884e-08
-1.47288e-07
-5.29839e-08
-1.19122e-07
-3.60044e-08
-9.23e-08
-2.24797e-08
-6.74661e-08
-1.22929e-08
-4.52994e-08
-5.28521e-09
-2.65069e-08
-1.26164e-09
-1.182e-08
-2.02287e-09
-3.10167e-09
1.73182e-08
-1.1879e-08
5.32566e-08
-2.58424e-08
8.9534e-08
-4.45351e-08
1.254e-07
-6.75289e-08
1.6027e-07
-9.44211e-08
1.9367e-07
-1.24832e-07
2.25229e-07
-1.58402e-07
2.54671e-07
-1.94792e-07
2.81795e-07
-2.33677e-07
3.06469e-07
-2.74748e-07
3.28617e-07
-3.17711e-07
3.48204e-07
-3.62282e-07
3.65232e-07
-4.08191e-07
3.79725e-07
-4.55175e-07
3.91727e-07
-5.02983e-07
4.01291e-07
-5.51369e-07
4.08476e-07
-6.00096e-07
4.13343e-07
-6.48932e-07
4.1595e-07
-6.9765e-07
4.16351e-07
-7.46027e-07
4.14594e-07
-7.93844e-07
4.10722e-07
-8.40884e-07
4.04769e-07
-8.86934e-07
3.96767e-07
-9.3178e-07
3.8674e-07
-9.75213e-07
3.74713e-07
-1.01702e-06
3.60708e-07
-1.05701e-06
3.44747e-07
-1.09496e-06
3.26857e-07
-1.13068e-06
3.0707e-07
-1.16398e-06
2.85425e-07
-1.19466e-06
2.6197e-07
-1.22253e-06
2.36768e-07
-1.24743e-06
2.09891e-07
-1.26917e-06
1.81429e-07
-1.28761e-06
1.51487e-07
-1.30259e-06
1.20189e-07
-1.31398e-06
8.76759e-08
-1.32166e-06
5.41077e-08
-1.32553e-06
1.96634e-08
-1.3255e-06
-1.5459e-08
-1.32151e-06
-5.10434e-08
-1.31353e-06
-8.68564e-08
-1.30152e-06
-1.22649e-07
-1.28551e-06
-1.58156e-07
-1.26552e-06
-1.93103e-07
-1.24162e-06
-2.27203e-07
-1.2139e-06
-2.60163e-07
-1.18248e-06
-2.91686e-07
-1.14752e-06
-3.21475e-07