/*--------------------------------*- C++ -*----------------------------------*\
  =========                 |
  \\      /  F ield         | OpenFOAM: The Open Source CFD Toolbox
   \\    /   O peration     | Website:  https://openfoam.org
    \\  /    A nd           | Version:  7
     \\/     M anipulation  |
\*---------------------------------------------------------------------------*/
FoamFile
{
    version     2.0;
    format      ascii;
    class       volVectorField;
    location    "1.375";
    object      U;
}
// * * * * * * * * * * * * * * * * * * * * * * * * * * * * * * * * * * * * * //

dimensions      [0 1 -1 0 0 0 0];

internalField   nonuniform List<vector> 
6400
(
(1.09695e-05 -1.09973e-05 0)
(4.59162e-05 -2.18391e-05 0)
(9.1485e-05 -2.12832e-05 0)
(0.000124198 -1.46232e-05 0)
(0.000132551 -5.53184e-06 0)
(0.000112933 4.06796e-06 0)
(6.50145e-05 1.32388e-05 0)
(-9.84565e-06 2.15595e-05 0)
(-0.000109421 2.89021e-05 0)
(-0.000231162 3.52786e-05 0)
(-0.000372541 4.07763e-05 0)
(-0.000531215 4.55189e-05 0)
(-0.000705121 4.96369e-05 0)
(-0.000892498 5.32557e-05 0)
(-0.00109188 5.64864e-05 0)
(-0.00130205 5.94179e-05 0)
(-0.001522 6.21173e-05 0)
(-0.00175087 6.463e-05 0)
(-0.00198788 6.69782e-05 0)
(-0.00223227 6.91634e-05 0)
(-0.00248325 7.11685e-05 0)
(-0.00273994 7.29611e-05 0)
(-0.00300134 7.44953e-05 0)
(-0.00326631 7.57155e-05 0)
(-0.00353349 7.65587e-05 0)
(-0.00380135 7.69563e-05 0)
(-0.00406812 7.68369e-05 0)
(-0.00433186 7.61293e-05 0)
(-0.00459039 7.47649e-05 0)
(-0.00484134 7.26789e-05 0)
(-0.00508219 6.98125e-05 0)
(-0.00531025 6.61156e-05 0)
(-0.00552274 6.15491e-05 0)
(-0.0057168 5.60869e-05 0)
(-0.00588953 4.97179e-05 0)
(-0.00603808 4.24467e-05 0)
(-0.00615968 3.42974e-05 0)
(-0.00625167 2.53142e-05 0)
(-0.00631165 1.55627e-05 0)
(-0.00633744 5.13062e-06 0)
(-0.00632722 -5.87539e-06 0)
(-0.00627958 -1.73224e-05 0)
(-0.00619354 -2.90593e-05 0)
(-0.00606867 -4.09165e-05 0)
(-0.00590507 -5.27088e-05 0)
(-0.00570346 -6.42388e-05 0)
(-0.00546518 -7.53009e-05 0)
(-0.00519218 -8.56864e-05 0)
(-0.00488707 -9.51893e-05 0)
(-0.00455307 -0.000103612 0)
(-0.00419395 -0.000110771 0)
(-0.00381404 -0.000116502 0)
(-0.00341807 -0.000120667 0)
(-0.00301119 -0.000123159 0)
(-0.00259879 -0.000123904 0)
(-0.00218643 -0.000122869 0)
(-0.0017797 -0.000120057 0)
(-0.00138416 -0.000115512 0)
(-0.00100514 -0.000109319 0)
(-0.000647691 -0.000101597 0)
(-0.000316449 -9.24978e-05 0)
(-1.55449e-05 -8.22042e-05 0)
(0.000251469 -7.09192e-05 0)
(0.000481697 -5.88613e-05 0)
(0.000672944 -4.62621e-05 0)
(0.000823754 -3.33582e-05 0)
(0.000933428 -2.03878e-05 0)
(0.00100205 -7.58913e-06 0)
(0.00103048 4.79832e-06 0)
(0.00102041 1.65284e-05 0)
(0.000974372 2.7339e-05 0)
(0.000895806 3.69288e-05 0)
(0.000789209 4.49291e-05 0)
(0.000660319 5.08529e-05 0)
(0.000516439 5.40196e-05 0)
(0.0003669 5.34694e-05 0)
(0.000223561 4.78985e-05 0)
(0.000101153 3.56233e-05 0)
(1.78443e-05 1.54725e-05 0)
(-5.76141e-06 -5.72866e-06 0)
(2.21037e-05 -4.60709e-05 0)
(7.95398e-05 -7.90317e-05 0)
(0.000138913 -6.74648e-05 0)
(0.000160928 -3.03459e-05 0)
(0.000124186 1.90859e-05 0)
(1.97842e-05 7.26852e-05 0)
(-0.000154708 0.00012573 0)
(-0.00039767 0.000175654 0)
(-0.000705042 0.000221254 0)
(-0.00107156 0.000262151 0)
(-0.00149158 0.000298458 0)
(-0.00195957 0.000330561 0)
(-0.00247041 0.000358973 0)
(-0.00301953 0.000384235 0)
(-0.00360292 0.000406855 0)
(-0.0042171 0.000427256 0)
(-0.00485901 0.000445763 0)
(-0.00552588 0.00046259 0)
(-0.00621513 0.000477832 0)
(-0.00692418 0.000491475 0)
(-0.00765034 0.000503406 0)
(-0.00839071 0.000513425 0)
(-0.00914205 0.000521257 0)
(-0.00990073 0.000526572 0)
(-0.0106626 0.000528999 0)
(-0.0114232 0.000528145 0)
(-0.0121772 0.000523601 0)
(-0.012919 0.00051497 0)
(-0.0136426 0.00050187 0)
(-0.0143412 0.000483956 0)
(-0.015008 0.000460928 0)
(-0.0156355 0.000432545 0)
(-0.0162164 0.000398642 0)
(-0.0167429 0.000359136 0)
(-0.0172074 0.000314039 0)
(-0.0176026 0.000263469 0)
(-0.0179212 0.000207656 0)
(-0.0181565 0.000146952 0)
(-0.0183025 8.1831e-05 0)
(-0.0183539 1.28946e-05 0)
(-0.0183063 -5.91366e-05 0)
(-0.0181564 -0.000133418 0)
(-0.0179023 -0.000209 0)
(-0.0175432 -0.000284837 0)
(-0.01708 -0.000359802 0)
(-0.0165149 -0.000432715 0)
(-0.0158518 -0.000502357 0)
(-0.0150964 -0.000567508 0)
(-0.0142556 -0.00062697 0)
(-0.0133381 -0.000679602 0)
(-0.012354 -0.000724349 0)
(-0.0113146 -0.000760276 0)
(-0.0102324 -0.000786597 0)
(-0.00912068 -0.0008027 0)
(-0.00799351 -0.000808168 0)
(-0.00686532 -0.0008028 0)
(-0.00575066 -0.000786618 0)
(-0.00466392 -0.000759868 0)
(-0.00361905 -0.000723021 0)
(-0.00262924 -0.000676759 0)
(-0.00170669 -0.00062196 0)
(-0.000862329 -0.000559672 0)
(-0.000105647 -0.00049109 0)
(0.000555528 -0.00041752 0)
(0.00111517 -0.00034036 0)
(0.00156917 -0.00026107 0)
(0.00191543 -0.000181155 0)
(0.00215392 -0.000102149 0)
(0.0022868 -2.56305e-05 0)
(0.00231841 4.67652e-05 0)
(0.00225546 0.000113297 0)
(0.00210716 0.00017204 0)
(0.00188543 0.00022078 0)
(0.00160529 0.000256866 0)
(0.00128525 0.000277031 0)
(0.000947828 0.000277269 0)
(0.000619489 0.000252955 0)
(0.000329958 0.000199389 0)
(0.000114666 0.000114909 0)
(1.5274e-05 1.7728e-05 0)
(2.20627e-05 -9.26221e-05 0)
(6.87089e-05 -0.000138795 0)
(9.38325e-05 -9.36231e-05 0)
(5.4545e-05 5.8941e-06 0)
(-7.34235e-05 0.000134164 0)
(-0.000301212 0.000273881 0)
(-0.000632326 0.000413979 0)
(-0.00106512 0.000547877 0)
(-0.00159458 0.000672058 0)
(-0.00221386 0.000785044 0)
(-0.00291531 0.000886657 0)
(-0.00369121 0.000977497 0)
(-0.0045342 0.00105858 0)
(-0.00543749 0.00113105 0)
(-0.00639497 0.00119605 0)
(-0.00740114 0.00125453 0)
(-0.00845098 0.00130725 0)
(-0.00953984 0.00135467 0)
(-0.0106632 0.00139698 0)
(-0.0118166 0.0014341 0)
(-0.0129953 0.0014657 0)
(-0.0141943 0.00149122 0)
(-0.0154078 0.00150992 0)
(-0.0166298 0.00152093 0)
(-0.0178534 0.00152325 0)
(-0.0190708 0.00151586 0)
(-0.0202739 0.0014977 0)
(-0.0214534 0.00146775 0)
(-0.0225996 0.00142504 0)
(-0.0237021 0.00136872 0)
(-0.0247498 0.00129807 0)
(-0.0257316 0.00121254 0)
(-0.0266359 0.00111179 0)
(-0.0274511 0.000995733 0)
(-0.0281656 0.000864513 0)
(-0.0287685 0.000718582 0)
(-0.029249 0.000558691 0)
(-0.0295974 0.000385911 0)
(-0.029805 0.000201633 0)
(-0.0298642 7.57702e-06 0)
(-0.029769 -0.000194214 0)
(-0.0295149 -0.000401418 0)
(-0.0290996 -0.000611434 0)
(-0.0285225 -0.000821425 0)
(-0.0277854 -0.00102837 0)
(-0.0268923 -0.00122912 0)
(-0.0258495 -0.00142044 0)
(-0.0246656 -0.00159913 0)
(-0.0233517 -0.00176204 0)
(-0.0219208 -0.00190619 0)
(-0.0203883 -0.00202884 0)
(-0.0187711 -0.00212754 0)
(-0.0170879 -0.00220027 0)
(-0.0153588 -0.00224542 0)
(-0.0136046 -0.00226192 0)
(-0.0118468 -0.00224923 0)
(-0.0101073 -0.00220739 0)
(-0.00840759 -0.00213703 0)
(-0.00676845 -0.00203934 0)
(-0.0052098 -0.00191611 0)
(-0.00375005 -0.0017696 0)
(-0.00240586 -0.00160255 0)
(-0.00119173 -0.00141812 0)
(-0.000119794 -0.00121978 0)
(0.00080049 -0.00101127 0)
(0.00156251 -0.000796547 0)
(0.00216267 -0.000579726 0)
(0.00260054 -0.000365053 0)
(0.00287896 -0.000156912 0)
(0.00300419 4.013e-05 0)
(0.00298604 0.000221236 0)
(0.00283805 0.000381173 0)
(0.00257776 0.000514124 0)
(0.00222698 0.000613474 0)
(0.00181211 0.00067164 0)
(0.00136439 0.000680107 0)
(0.000919275 0.000630032 0)
(0.000515154 0.000513866 0)
(0.000199467 0.000330146 0)
(3.53241e-05 0.000100644 0)
(1.55239e-05 -0.00012645 0)
(2.99222e-05 -0.000159872 0)
(-1.24115e-05 -5.32108e-05 0)
(-0.000149707 0.000137935 0)
(-0.000404565 0.000375332 0)
(-0.000787935 0.000632125 0)
(-0.00130297 0.0008903 0)
(-0.00194737 0.00113862 0)
(-0.0027152 0.00137071 0)
(-0.00359837 0.00158358 0)
(-0.0045878 0.00177649 0)
(-0.00567417 0.00195011 0)
(-0.00684843 0.00210591 0)
(-0.00810207 0.00224566 0)
(-0.00942722 0.00237115 0)
(-0.0108166 0.00248392 0)
(-0.0122635 0.00258514 0)
(-0.0137614 0.00267553 0)
(-0.0153039 0.00275534 0)
(-0.0168846 0.00282431 0)
(-0.0184967 0.00288178 0)
(-0.0201329 0.00292666 0)
(-0.0217852 0.00295759 0)
(-0.023445 0.00297292 0)
(-0.0251025 0.00297087 0)
(-0.0267472 0.00294954 0)
(-0.0283677 0.00290704 0)
(-0.0299518 0.00284154 0)
(-0.0314861 0.00275137 0)
(-0.032957 0.00263505 0)
(-0.0343499 0.00249137 0)
(-0.0356502 0.00231948 0)
(-0.0368428 0.00211893 0)
(-0.0379129 0.00188969 0)
(-0.0388459 0.00163224 0)
(-0.0396276 0.00134761 0)
(-0.0402448 0.00103736 0)
(-0.0406854 0.000703655 0)
(-0.0409386 0.000349232 0)
(-0.0409954 -2.25875e-05 0)
(-0.0408487 -0.000407917 0)
(-0.0404935 -0.000802365 0)
(-0.0399273 -0.00120107 0)
(-0.03915 -0.00159876 0)
(-0.0381645 -0.00198986 0)
(-0.0369764 -0.00236859 0)
(-0.0355941 -0.00272907 0)
(-0.034029 -0.00306543 0)
(-0.0322954 -0.00337198 0)
(-0.0304102 -0.00364332 0)
(-0.0283927 -0.00387449 0)
(-0.0262647 -0.00406109 0)
(-0.0240499 -0.00419943 0)
(-0.0217735 -0.00428664 0)
(-0.019462 -0.00432072 0)
(-0.0171427 -0.00430068 0)
(-0.0148432 -0.00422657 0)
(-0.0125907 -0.00409946 0)
(-0.0104118 -0.0039215 0)
(-0.00833203 -0.00369582 0)
(-0.00637491 -0.00342653 0)
(-0.00456201 -0.00311858 0)
(-0.00291226 -0.00277769 0)
(-0.0014416 -0.00241022 0)
(-0.000162682 -0.00202308 0)
(0.000915419 -0.0016236 0)
(0.00178746 -0.00121947 0)
(0.00245222 -0.000818647 0)
(0.00291267 -0.000429407 0)
(0.00317615 -6.03435e-05 0)
(0.0032545 0.000279501 0)
(0.00316428 0.000580484 0)
(0.00292689 0.000832146 0)
(0.00256881 0.001023 0)
(0.00212175 0.00114042 0)
(0.00162276 0.00117089 0)
(0.00111331 0.00110094 0)
(0.000638192 0.000919263 0)
(0.000255312 0.000621501 0)
(4.78142e-05 0.00022311 0)
(5.81498e-06 -0.000134431 0)
(-2.54889e-05 -0.000116256 0)
(-0.000158929 8.5265e-05 0)
(-0.000421788 0.000398208 0)
(-0.000831618 0.000772782 0)
(-0.00139719 0.00117323 0)
(-0.00211993 0.00157497 0)
(-0.00299605 0.00196219 0)
(-0.0040183 0.00232561 0)
(-0.0051774 0.0026606 0)
(-0.00646299 0.00296577 0)
(-0.00786446 0.00324174 0)
(-0.00937143 0.00349036 0)
(-0.010974 0.00371396 0)
(-0.0126628 0.00391493 0)
(-0.0144291 0.00409534 0)
(-0.0162645 0.00425673 0)
(-0.0181609 0.00439998 0)
(-0.0201102 0.00452529 0)
(-0.0221039 0.00463214 0)
(-0.0241333 0.00471936 0)
(-0.0261888 0.00478523 0)
(-0.0282602 0.00482756 0)
(-0.0303361 0.00484381 0)
(-0.0324045 0.00483121 0)
(-0.0344519 0.00478689 0)
(-0.0364641 0.00470799 0)
(-0.0384257 0.00459179 0)
(-0.0403206 0.00443581 0)
(-0.0421318 0.00423794 0)
(-0.0438419 0.00399651 0)
(-0.0454332 0.00371041 0)
(-0.0468877 0.00337916 0)
(-0.0481879 0.003003 0)
(-0.0493165 0.00258292 0)
(-0.0502572 0.00212076 0)
(-0.0509946 0.00161921 0)
(-0.0515148 0.00108185 0)
(-0.0518057 0.000513142 0)
(-0.0518571 -8.15858e-05 0)
(-0.0516612 -0.000696183 0)
(-0.0512129 -0.00132373 0)
(-0.0505098 -0.00195662 0)
(-0.0495523 -0.0025867 0)
(-0.0483444 -0.00320536 0)
(-0.0468929 -0.00380371 0)
(-0.0452084 -0.00437272 0)
(-0.0433044 -0.00490347 0)
(-0.0411978 -0.00538727 0)
(-0.0389085 -0.00581589 0)
(-0.0364593 -0.00618179 0)
(-0.0338758 -0.00647829 0)
(-0.0311854 -0.00669973 0)
(-0.0284179 -0.00684172 0)
(-0.0256042 -0.00690118 0)
(-0.0227761 -0.00687654 0)
(-0.019966 -0.00676778 0)
(-0.0172061 -0.00657644 0)
(-0.0145276 -0.00630569 0)
(-0.0119608 -0.00596022 0)
(-0.0095338 -0.00554618 0)
(-0.00727245 -0.0050711 0)
(-0.00519964 -0.00454368 0)
(-0.00333489 -0.00397369 0)
(-0.00169393 -0.00337178 0)
(-0.000288316 -0.00274932 0)
(0.000874822 -0.00211828 0)
(0.00179309 -0.00149116 0)
(0.00246903 -0.000880907 0)
(0.00291028 -0.000300979 0)
(0.00312979 0.000234568 0)
(0.00314591 0.000710909 0)
(0.00298253 0.00111226 0)
(0.00266917 0.00142171 0)
(0.0022411 0.00162117 0)
(0.00173936 0.00169173 0)
(0.0012099 0.00161463 0)
(0.000702821 0.00137325 0)
(0.000284806 0.000956866 0)
(5.41034e-05 0.000368242 0)
(-5.45183e-06 -0.000110205 0)
(-9.08271e-05 7.66037e-06 0)
(-0.000331855 0.000342917 0)
(-0.000740735 0.000810547 0)
(-0.00132735 0.00135096 0)
(-0.0020967 0.0019207 0)
(-0.00304721 0.00248941 0)
(-0.00417273 0.00303725 0)
(-0.00546422 0.00355231 0)
(-0.00691092 0.0040285 0)
(-0.00850122 0.00446377 0)
(-0.0102233 0.00485874 0)
(-0.0120657 0.00521559 0)
(-0.0140172 0.00553718 0)
(-0.0160673 0.00582639 0)
(-0.0182059 0.00608576 0)
(-0.0204233 0.00631708 0)
(-0.0227098 0.0065213 0)
(-0.0250555 0.00669841 0)
(-0.0274503 0.0068475 0)
(-0.0298834 0.00696677 0)
(-0.0323432 0.00705369 0)
(-0.0348172 0.00710512 0)
(-0.0372918 0.00711747 0)
(-0.0397521 0.00708688 0)
(-0.0421823 0.00700938 0)
(-0.0445655 0.00688108 0)
(-0.0468834 0.0066983 0)
(-0.0491173 0.00645777 0)
(-0.0512476 0.00615675 0)
(-0.0532541 0.00579316 0)
(-0.0551164 0.00536573 0)
(-0.0568144 0.00487412 0)
(-0.058328 0.00431896 0)
(-0.0596379 0.00370201 0)
(-0.060726 0.00302615 0)
(-0.0615752 0.00229548 0)
(-0.0621704 0.0015153 0)
(-0.0624983 0.000692102 0)
(-0.0625481 -0.000166425 0)
(-0.0623114 -0.0010515 0)
(-0.061783 -0.00195333 0)
(-0.0609607 -0.00286121 0)
(-0.0598455 -0.00376371 0)
(-0.058442 -0.00464882 0)
(-0.0567585 -0.00550418 0)
(-0.0548068 -0.00631731 0)
(-0.0526023 -0.00707582 0)
(-0.0501638 -0.00776772 0)
(-0.0475138 -0.00838164 0)
(-0.0446778 -0.00890715 0)
(-0.0416839 -0.009335 0)
(-0.0385633 -0.00965734 0)
(-0.0353488 -0.009868 0)
(-0.032075 -0.00996265 0)
(-0.0287779 -0.00993898 0)
(-0.0254935 -0.00979678 0)
(-0.0222583 -0.00953804 0)
(-0.0191077 -0.00916694 0)
(-0.016076 -0.0086898 0)
(-0.0131955 -0.008115 0)
(-0.0104961 -0.00745282 0)
(-0.00800426 -0.00671529 0)
(-0.00574306 -0.00591595 0)
(-0.00373127 -0.00506963 0)
(-0.00198312 -0.00419229 0)
(-0.000507858 -0.00330078 0)
(0.000690539 -0.00241272 0)
(0.00161363 -0.00154644 0)
(0.0022687 -0.00072093 0)
(0.00266895 4.40829e-05 0)
(0.00283357 0.000727982 0)
(0.00278787 0.00130912 0)
(0.00256325 0.00176466 0)
(0.00219734 0.00207063 0)
(0.00173403 0.00220215 0)
(0.00122275 0.00213433 0)
(0.000718072 0.00184372 0)
(0.000293274 0.00131077 0)
(5.60005e-05 0.000523021 0)
(-1.74725e-05 -5.02138e-05 0)
(-0.000162194 0.000222344 0)
(-0.000522196 0.000735002 0)
(-0.00109205 0.00139298 0)
(-0.00187213 0.00212895 0)
(-0.00286234 0.00289333 0)
(-0.00405704 0.00365114 0)
(-0.0054469 0.00437931 0)
(-0.00702053 0.00506388 0)
(-0.00876539 0.00569764 0)
(-0.0106684 0.00627816 0)
(-0.0127167 0.00680614 0)
(-0.0148975 0.00728413 0)
(-0.0171987 0.00771547 0)
(-0.0196087 0.00810354 0)
(-0.0221163 0.00845119 0)
(-0.0247104 0.00876038 0)
(-0.02738 0.00903196 0)
(-0.0301137 0.0092656 0)
(-0.0328997 0.00945983 0)
(-0.0357253 0.00961207 0)
(-0.038577 0.00971883 0)
(-0.0414402 0.00977589 0)
(-0.0442988 0.0097785 0)
(-0.047136 0.00972162 0)
(-0.0499334 0.0096001 0)
(-0.0526714 0.00940897 0)
(-0.0553298 0.00914361 0)
(-0.057887 0.00879994 0)
(-0.060321 0.00837467 0)
(-0.0626096 0.00786539 0)
(-0.0647301 0.00727082 0)
(-0.0666602 0.00659085 0)
(-0.068378 0.00582675 0)
(-0.0698626 0.0049812 0)
(-0.0710942 0.00405838 0)
(-0.0720546 0.00306402 0)
(-0.0727274 0.00200539 0)
(-0.0730987 0.00089131 0)
(-0.0731569 -0.000267927 0)
(-0.0728933 -0.00146064 0)
(-0.0723026 -0.00267386 0)
(-0.0713826 -0.00389353 0)
(-0.0701347 -0.00510467 0)
(-0.0685641 -0.00629161 0)
(-0.0666797 -0.00743825 0)
(-0.0644944 -0.00852834 0)
(-0.0620249 -0.00954581 0)
(-0.0592916 -0.0104751 0)
(-0.0563186 -0.0113014 0)
(-0.0531333 -0.0120111 0)
(-0.0497665 -0.0125922 0)
(-0.0462515 -0.0130344 0)
(-0.0426242 -0.0133295 0)
(-0.0389221 -0.0134717 0)
(-0.0351843 -0.0134577 0)
(-0.0314507 -0.013287 0)
(-0.027761 -0.0129619 0)
(-0.0241546 -0.0124876 0)
(-0.0206697 -0.011872 0)
(-0.0173424 -0.0111258 0)
(-0.0142064 -0.010262 0)
(-0.0112918 -0.00929639 0)
(-0.0086252 -0.00824639 0)
(-0.00622861 -0.00713144 0)
(-0.00411912 -0.00597248 0)
(-0.00230843 -0.00479172 0)
(-0.000802523 -0.00361245 0)
(0.000398676 -0.00245891 0)
(0.00130149 -0.00135617 0)
(0.00191869 -0.000330213 0)
(0.00226954 0.000592036 0)
(0.00237994 0.00138257 0)
(0.00228234 0.00201218 0)
(0.00201588 0.00245047 0)
(0.00162651 0.00266605 0)
(0.00116635 0.00262705 0)
(0.000693532 0.00230209 0)
(0.0002857 0.00166152 0)
(5.48871e-05 0.000677561 0)
(-2.98208e-05 4.78961e-05 0)
(-0.000237256 0.000534949 0)
(-0.000724127 0.00127252 0)
(-0.00146577 0.00215897 0)
(-0.00245182 0.00312144 0)
(-0.00367609 0.00410591 0)
(-0.00512797 0.00507417 0)
(-0.00679427 0.00600095 0)
(-0.00866071 0.00687101 0)
(-0.0107126 0.00767659 0)
(-0.0129353 0.00841523 0)
(-0.0153146 0.00908795 0)
(-0.0178366 0.00969777 0)
(-0.0204884 0.0102486 0)
(-0.0232573 0.0107441 0)
(-0.0261311 0.0111876 0)
(-0.0290976 0.0115809 0)
(-0.0321445 0.0119247 0)
(-0.0352591 0.0122182 0)
(-0.038428 0.0124593 0)
(-0.0416369 0.0126443 0)
(-0.0448703 0.0127687 0)
(-0.0481117 0.0128271 0)
(-0.0513431 0.0128135 0)
(-0.0545453 0.0127216 0)
(-0.0576979 0.012545 0)
(-0.0607791 0.0122777 0)
(-0.0637664 0.0119141 0)
(-0.0666363 0.0114494 0)
(-0.0693645 0.0108797 0)
(-0.0719268 0.0102026 0)
(-0.0742988 0.00941673 0)
(-0.0764564 0.00852248 0)
(-0.0783761 0.00752188 0)
(-0.0800356 0.00641871 0)
(-0.0814138 0.00521865 0)
(-0.0824915 0.00392925 0)
(-0.0832513 0.00255997 0)
(-0.0836785 0.00112212 0)
(-0.083761 -0.000371193 0)
(-0.0834897 -0.00190518 0)
(-0.0828589 -0.00346353 0)
(-0.0818662 -0.00502863 0)
(-0.0805132 -0.00658175 0)
(-0.0788052 -0.00810337 0)
(-0.0767516 -0.00957345 0)
(-0.0743655 -0.0109718 0)
(-0.0716646 -0.0122784 0)
(-0.0686702 -0.0134738 0)
(-0.0654075 -0.0145398 0)
(-0.0619054 -0.0154591 0)
(-0.0581963 -0.0162168 0)
(-0.0543156 -0.0167997 0)
(-0.0503014 -0.0171975 0)
(-0.0461939 -0.0174026 0)
(-0.0420349 -0.0174105 0)
(-0.0378675 -0.0172203 0)
(-0.0337348 -0.0168342 0)
(-0.0296797 -0.0162583 0)
(-0.0257442 -0.0155021 0)
(-0.0219681 -0.0145785 0)
(-0.018389 -0.0135036 0)
(-0.0150409 -0.0122965 0)
(-0.0119539 -0.0109791 0)
(-0.00915351 -0.00957565 0)
(-0.00666003 -0.00811238 0)
(-0.00448799 -0.00661726 0)
(-0.00264579 -0.00511969 0)
(-0.00113534 -0.0036503 0)
(4.81864e-05 -0.00224077 0)
(0.000916519 -0.000923798 0)
(0.00148842 0.000266887 0)
(0.0017897 0.00129644 0)
(0.00185326 0.0021288 0)
(0.00171913 0.00272667 0)
(0.00143466 0.00305157 0)
(0.00105395 0.00306403 0)
(0.000637786 0.00272406 0)
(0.000266203 0.00199161 0)
(5.17648e-05 0.000824626 0)
(-4.24474e-05 0.000185517 0)
(-0.000314832 0.000950261 0)
(-0.000933883 0.00196318 0)
(-0.00185495 0.00311835 0)
(-0.00305607 0.00433943 0)
(-0.00452421 0.00556981 0)
(-0.00624312 0.0067695 0)
(-0.00819515 0.00791223 0)
(-0.0103627 0.00898242 0)
(-0.0127286 0.00997243 0)
(-0.0152764 0.0108803 0)
(-0.0179904 0.0117076 0)
(-0.0208559 0.0124581 0)
(-0.0238587 0.0131363 0)
(-0.0269855 0.0137464 0)
(-0.0302229 0.0142916 0)
(-0.0335579 0.0147739 0)
(-0.0369772 0.0151936 0)
(-0.0404665 0.0155492 0)
(-0.0440113 0.0158377 0)
(-0.0475957 0.0160545 0)
(-0.0512025 0.0161938 0)
(-0.0548134 0.0162489 0)
(-0.0584087 0.0162124 0)
(-0.0619672 0.0160767 0)
(-0.0654664 0.0158342 0)
(-0.0688829 0.0154778 0)
(-0.072192 0.015001 0)
(-0.0753683 0.0143984 0)
(-0.0783861 0.0136656 0)
(-0.0812191 0.0128001 0)
(-0.0838416 0.0118008 0)
(-0.0862279 0.0106686 0)
(-0.0883532 0.00940648 0)
(-0.090194 0.00801944 0)
(-0.0917281 0.0065148 0)
(-0.0929352 0.00490207 0)
(-0.0937972 0.00319303 0)
(-0.0942986 0.00140162 0)
(-0.0944264 -0.000456109 0)
(-0.0941711 -0.00236216 0)
(-0.0935264 -0.00429677 0)
(-0.0924894 -0.00623862 0)
(-0.0910614 -0.00816515 0)
(-0.0892475 -0.0100528 0)
(-0.0870567 -0.0118775 0)
(-0.0845025 -0.0136149 0)
(-0.0816025 -0.0152409 0)
(-0.0783784 -0.016732 0)
(-0.0748561 -0.018066 0)
(-0.0710654 -0.0192222 0)
(-0.0670399 -0.0201819 0)
(-0.0628165 -0.0209293 0)
(-0.058435 -0.0214513 0)
(-0.0539381 -0.0217382 0)
(-0.04937 -0.0217842 0)
(-0.0447766 -0.0215873 0)
(-0.0402045 -0.0211498 0)
(-0.0357001 -0.0204784 0)
(-0.0313089 -0.0195838 0)
(-0.0270748 -0.0184811 0)
(-0.0230393 -0.0171894 0)
(-0.0192406 -0.0157315 0)
(-0.0157127 -0.0141337 0)
(-0.0124849 -0.0124252 0)
(-0.00958095 -0.0106379 0)
(-0.00701879 -0.00880583 0)
(-0.00480966 -0.00696495 0)
(-0.00295795 -0.00515271 0)
(-0.00146084 -0.00340784 0)
(-0.000308154 -0.00177027 0)
(0.000517829 -0.000280987 0)
(0.00104236 0.00101783 0)
(0.00129825 0.00208282 0)
(0.00132593 0.00286928 0)
(0.0011736 0.00333115 0)
(0.000896713 0.00342091 0)
(0.000557869 0.00308971 0)
(0.000237945 0.00228733 0)
(4.73231e-05 0.000959019 0)
(-5.52095e-05 0.000363432 0)
(-0.000393989 0.00147142 0)
(-0.00114879 0.00281229 0)
(-0.00225447 0.00427803 0)
(-0.00367698 0.00579085 0)
(-0.00539589 0.00729333 0)
(-0.00738881 0.00874526 0)
(-0.00963318 0.0101207 0)
(-0.0121077 0.0114046 0)
(-0.0147925 0.0125904 0)
(-0.0176691 0.0136772 0)
(-0.0207203 0.0146676 0)
(-0.0239302 0.0155662 0)
(-0.0272838 0.0163782 0)
(-0.0307669 0.0171084 0)
(-0.0343653 0.0177602 0)
(-0.0380652 0.0183352 0)
(-0.041852 0.0188334 0)
(-0.0457108 0.0192525 0)
(-0.0496254 0.0195885 0)
(-0.0535788 0.0198356 0)
(-0.0575522 0.0199866 0)
(-0.0615259 0.0200335 0)
(-0.0654783 0.0199674 0)
(-0.0693868 0.0197795 0)
(-0.0732271 0.019461 0)
(-0.076974 0.0190035 0)
(-0.0806013 0.0183998 0)
(-0.084082 0.0176438 0)
(-0.0873889 0.0167309 0)
(-0.0904944 0.0156585 0)
(-0.0933711 0.0144259 0)
(-0.0959924 0.0130345 0)
(-0.0983323 0.0114885 0)
(-0.100366 0.00979411 0)
(-0.102071 0.00796042 0)
(-0.103425 0.00599898 0)
(-0.104409 0.00392394 0)
(-0.105008 0.00175194 0)
(-0.105206 -0.000497986 0)
(-0.104995 -0.00280459 0)
(-0.104366 -0.00514459 0)
(-0.103316 -0.00749294 0)
(-0.101845 -0.00982313 0)
(-0.0999582 -0.0121076 0)
(-0.0976634 -0.0143179 0)
(-0.0949737 -0.0164255 0)
(-0.0919063 -0.0184021 0)
(-0.0884827 -0.0202198 0)
(-0.0847289 -0.0218524 0)
(-0.0806751 -0.0232751 0)
(-0.0763556 -0.0244656 0)
(-0.0718082 -0.0254045 0)
(-0.0670746 -0.0260759 0)
(-0.062199 -0.0264676 0)
(-0.0572283 -0.026572 0)
(-0.0522111 -0.0263858 0)
(-0.0471971 -0.0259108 0)
(-0.0422364 -0.025154 0)
(-0.0373783 -0.0241274 0)
(-0.0326711 -0.022848 0)
(-0.0281603 -0.0213377 0)
(-0.0238885 -0.0196231 0)
(-0.0198942 -0.0177348 0)
(-0.0162109 -0.0157073 0)
(-0.0128665 -0.0135783 0)
(-0.00988249 -0.0113884 0)
(-0.00727364 -0.00918034 0)
(-0.0050473 -0.00699891 0)
(-0.00320318 -0.00489036 0)
(-0.0017331 -0.00290229 0)
(-0.000620878 -0.00108348 0)
(0.000157733 0.000516114 0)
(0.000635039 0.00184529 0)
(0.000851435 0.00285152 0)
(0.000855502 0.00348073 0)
(0.000703527 0.00367708 0)
(0.000459241 0.00338284 0)
(0.000203258 0.0025381 0)
(4.20255e-05 0.00107702 0)
(-6.80504e-05 0.00058228 0)
(-0.000474101 0.00210049 0)
(-0.00136684 0.00382331 0)
(-0.00266039 0.00564258 0)
(-0.00430824 0.00748098 0)
(-0.00628226 0.00928205 0)
(-0.00855356 0.0110069 0)
(-0.0110943 0.0126312 0)
(-0.0138794 0.0141418 0)
(-0.0168858 0.0155339 0)
(-0.0200929 0.0168082 0)
(-0.0234822 0.0179688 0)
(-0.0270363 0.0190218 0)
(-0.0307395 0.0199731 0)
(-0.0345766 0.020828 0)
(-0.038533 0.02159 0)
(-0.0425938 0.0222607 0)
(-0.0467437 0.0228393 0)
(-0.0509667 0.0233227 0)
(-0.0552458 0.0237058 0)
(-0.0595625 0.0239814 0)
(-0.063897 0.024141 0)
(-0.068228 0.0241751 0)
(-0.0725327 0.0240734 0)
(-0.0767869 0.0238256 0)
(-0.080965 0.0234216 0)
(-0.0850404 0.0228522 0)
(-0.0889854 0.0221093 0)
(-0.0927718 0.0211863 0)
(-0.096371 0.0200783 0)
(-0.0997543 0.0187827 0)
(-0.102893 0.0172993 0)
(-0.10576 0.0156302 0)
(-0.108328 0.0137806 0)
(-0.110571 0.0117583 0)
(-0.112465 0.00957392 0)
(-0.113987 0.00724117 0)
(-0.115118 0.00477656 0)
(-0.115841 0.00219941 0)
(-0.116139 -0.000468283 0)
(-0.116003 -0.00320202 0)
(-0.115422 -0.00597503 0)
(-0.114393 -0.00875853 0)
(-0.112914 -0.0115221 0)
(-0.110989 -0.0142339 0)
(-0.108624 -0.0168613 0)
(-0.105832 -0.0193715 0)
(-0.102629 -0.0217314 0)
(-0.0990356 -0.0239089 0)
(-0.0950773 -0.0258732 0)
(-0.0907843 -0.0275952 0)
(-0.086191 -0.0290486 0)
(-0.0813361 -0.0302101 0)
(-0.0762623 -0.0310604 0)
(-0.0710155 -0.0315844 0)
(-0.065645 -0.031772 0)
(-0.060202 -0.0316184 0)
(-0.0547394 -0.0311245 0)
(-0.049311 -0.0302971 0)
(-0.0439704 -0.029149 0)
(-0.03877 -0.027699 0)
(-0.0337603 -0.0259718 0)
(-0.0289886 -0.0239975 0)
(-0.0244983 -0.0218112 0)
(-0.0203276 -0.0194528 0)
(-0.0165091 -0.0169661 0)
(-0.0130687 -0.0143984 0)
(-0.0100251 -0.0117999 0)
(-0.00738903 -0.00922294 0)
(-0.00516339 -0.00672182 0)
(-0.00334247 -0.00435236 0)
(-0.00191207 -0.00217165 0)
(-0.000849347 -0.000237969 0)
(-0.000122898 0.0013892 0)
(0.000307272 0.00264901 0)
(0.000489736 0.00347903 0)
(0.000481167 0.0038149 0)
(0.000345979 0.00359012 0)
(0.000163817 0.00273566 0)
(3.61821e-05 0.00117593 0)
(-8.09276e-05 0.000842397 0)
(-0.000554668 0.00283866 0)
(-0.00158642 0.00499822 0)
(-0.0030694 0.00721462 0)
(-0.0049445 0.00941284 0)
(-0.00717567 0.0115391 0)
(-0.00972732 0.0135574 0)
(-0.0125662 0.0154465 0)
(-0.0156629 0.0171961 0)
(-0.0189915 0.0188041 0)
(-0.0225292 0.0202736 0)
(-0.0262555 0.021611 0)
(-0.0301522 0.0228236 0)
(-0.0342025 0.0239186 0)
(-0.0383906 0.024902 0)
(-0.042701 0.0257773 0)
(-0.0471183 0.026546 0)
(-0.0516266 0.0272065 0)
(-0.0562089 0.0277547 0)
(-0.0608472 0.0281843 0)
(-0.0655222 0.0284868 0)
(-0.0702129 0.0286522 0)
(-0.074897 0.0286693 0)
(-0.0795504 0.0285265 0)
(-0.0841477 0.028212 0)
(-0.0886623 0.0277146 0)
(-0.0930662 0.027024 0)
(-0.0973307 0.0261314 0)
(-0.101427 0.0250297 0)
(-0.105324 0.0237138 0)
(-0.108994 0.0221812 0)
(-0.112406 0.0204321 0)
(-0.115532 0.0184695 0)
(-0.118344 0.0162995 0)
(-0.120816 0.0139314 0)
(-0.122921 0.0113775 0)
(-0.124637 0.0086535 0)
(-0.125943 0.00577824 0)
(-0.126819 0.00277364 0)
(-0.127249 -0.000335418 0)
(-0.127221 -0.00352128 0)
(-0.126723 -0.00675372 0)
(-0.125751 -0.0100003 0)
(-0.1243 -0.0132266 0)
(-0.122372 -0.0163967 0)
(-0.119973 -0.0194737 0)
(-0.117113 -0.02242 0)
(-0.113806 -0.0251981 0)
(-0.110073 -0.027771 0)
(-0.105937 -0.0301032 0)
(-0.101428 -0.032161 0)
(-0.0965812 -0.0339134 0)
(-0.0914342 -0.0353329 0)
(-0.086031 -0.0363962 0)
(-0.0804191 -0.0370847 0)
(-0.0746496 -0.0373854 0)
(-0.0687765 -0.0372912 0)
(-0.062856 -0.0368017 0)
(-0.0569457 -0.035923 0)
(-0.0511036 -0.0346683 0)
(-0.045387 -0.033058 0)
(-0.0398514 -0.0311189 0)
(-0.0345495 -0.0288849 0)
(-0.0295302 -0.0263955 0)
(-0.0248371 -0.0236962 0)
(-0.020508 -0.0208369 0)
(-0.0165739 -0.0178722 0)
(-0.013058 -0.0148598 0)
(-0.00997527 -0.0118603 0)
(-0.00733221 -0.00893668 0)
(-0.00512613 -0.00615338 0)
(-0.00334526 -0.00357641 0)
(-0.00196859 -0.00127292 0)
(-0.000965986 0.000688776 0)
(-0.000298181 0.00223907 0)
(8.30744e-05 0.00330684 0)
(0.000234526 0.00381902 0)
(0.000220987 0.00370044 0)
(0.000120783 0.00287343 0)
(2.99971e-05 0.0012538 0)
(-9.37939e-05 0.00114388 0)
(-0.000635224 0.00368628 0)
(-0.00180602 0.00633766 0)
(-0.00347851 0.00899501 0)
(-0.00558093 0.0115874 0)
(-0.0080692 0.0140653 0)
(-0.0109009 0.0163975 0)
(-0.0140373 0.0185668 0)
(-0.0174446 0.0205672 0)
(-0.021094 0.0224002 0)
(-0.02496 0.0240722 0)
(-0.0290208 0.0255919 0)
(-0.0332568 0.0269688 0)
(-0.0376504 0.0282115 0)
(-0.0421851 0.0293265 0)
(-0.0468449 0.0303178 0)
(-0.0516137 0.0311863 0)
(-0.056475 0.0319299 0)
(-0.0614112 0.0325434 0)
(-0.0664036 0.0330192 0)
(-0.071432 0.0333472 0)
(-0.0764745 0.0335159 0)
(-0.081508 0.0335127 0)
(-0.0865074 0.0333242 0)
(-0.0914463 0.0329375 0)
(-0.0962971 0.0323402 0)
(-0.101031 0.0315209 0)
(-0.105619 0.03047 0)
(-0.11003 0.0291801 0)
(-0.114234 0.0276459 0)
(-0.118201 0.025865 0)
(-0.121899 0.0238381 0)
(-0.125301 0.0215689 0)
(-0.128376 0.0190646 0)
(-0.131098 0.0163356 0)
(-0.133439 0.013396 0)
(-0.135375 0.0102634 0)
(-0.136885 0.00695882 0)
(-0.137946 0.00350658 0)
(-0.138542 -6.56518e-05 0)
(-0.138657 -0.00372718 0)
(-0.138279 -0.00744449 0)
(-0.1374 -0.0111815 0)
(-0.136014 -0.0149 0)
(-0.134121 -0.0185599 0)
(-0.131724 -0.0221198 0)
(-0.128831 -0.0255375 0)
(-0.125454 -0.0287707 0)
(-0.121612 -0.0317774 0)
(-0.117327 -0.034517 0)
(-0.112627 -0.0369507 0)
(-0.107546 -0.0390424 0)
(-0.102123 -0.0407599 0)
(-0.096402 -0.0420751 0)
(-0.0904311 -0.0429655 0)
(-0.0842634 -0.0434144 0)
(-0.0779557 -0.0434118 0)
(-0.0715673 -0.042955 0)
(-0.0651599 -0.0420493 0)
(-0.0587961 -0.0407076 0)
(-0.0525383 -0.0389511 0)
(-0.0464478 -0.0368091 0)
(-0.0405832 -0.0343185 0)
(-0.0349994 -0.0315234 0)
(-0.0297462 -0.0284747 0)
(-0.0248675 -0.025229 0)
(-0.0203999 -0.0218482 0)
(-0.0163721 -0.0183982 0)
(-0.0128038 -0.0149484 0)
(-0.00970579 -0.0115707 0)
(-0.007079 -0.00833907 0)
(-0.00491459 -0.00532898 0)
(-0.00319384 -0.00261708 0)
(-0.0018882 -0.000281089 0)
(-0.000959478 0.00160013 0)
(-0.000359999 0.00294636 0)
(-3.31401e-05 0.00367566 0)
(8.6194e-05 0.00370421 0)
(7.49162e-05 0.00294606 0)
(2.35987e-05 0.00130915 0)
(-0.000106591 0.00148661 0)
(-0.00071529 0.00464303 0)
(-0.00202422 0.00784112 0)
(-0.00388491 0.010983 0)
(-0.00621296 0.0140036 0)
(-0.00895631 0.0168596 0)
(-0.0120657 0.0195255 0)
(-0.0154968 0.0219902 0)
(-0.0192116 0.0242528 0)
(-0.023178 0.0263195 0)
(-0.0273684 0.0282005 0)
(-0.0317591 0.0299078 0)
(-0.0363295 0.0314532 0)
(-0.0410612 0.0328469 0)
(-0.0459369 0.0340964 0)
(-0.0509402 0.0352059 0)
(-0.0560545 0.0361761 0)
(-0.0612628 0.0370039 0)
(-0.0665471 0.0376833 0)
(-0.0718879 0.0382051 0)
(-0.0772646 0.0385578 0)
(-0.0826545 0.0387283 0)
(-0.0880338 0.0387022 0)
(-0.0933767 0.0384648 0)
(-0.0986562 0.0380019 0)
(-0.103844 0.0372996 0)
(-0.10891 0.0363459 0)
(-0.113825 0.0351304 0)
(-0.118558 0.033645 0)
(-0.123078 0.0318847 0)
(-0.127353 0.0298469 0)
(-0.131353 0.0275328 0)
(-0.135047 0.0249467 0)
(-0.138405 0.0220967 0)
(-0.141399 0.0189946 0)
(-0.144001 0.0156559 0)
(-0.146186 0.0120998 0)
(-0.147929 0.00834946 0)
(-0.149208 0.00443144 0)
(-0.150003 0.000375961 0)
(-0.150298 -0.00378343 0)
(-0.150076 -0.00801006 0)
(-0.149329 -0.0122644 0)
(-0.148047 -0.0165044 0)
(-0.146227 -0.0206859 0)
(-0.143869 -0.0247631 0)
(-0.14098 -0.028689 0)
(-0.137568 -0.0324164 0)
(-0.133649 -0.0358979 0)
(-0.129245 -0.0390875 0)
(-0.124381 -0.041941 0)
(-0.119089 -0.0444166 0)
(-0.113408 -0.0464767 0)
(-0.107382 -0.0480879 0)
(-0.101061 -0.0492229 0)
(-0.0944976 -0.0498605 0)
(-0.0877522 -0.049987 0)
(-0.0808872 -0.0495971 0)
(-0.0739683 -0.0486939 0)
(-0.0670629 -0.0472896 0)
(-0.0602391 -0.045406 0)
(-0.0535641 -0.0430738 0)
(-0.0471032 -0.0403331 0)
(-0.0409181 -0.0372322 0)
(-0.0350656 -0.0338277 0)
(-0.0295963 -0.0301829 0)
(-0.0245535 -0.0263673 0)
(-0.019972 -0.0224556 0)
(-0.0158773 -0.0185263 0)
(-0.012285 -0.0146612 0)