/*--------------------------------*- C++ -*----------------------------------*\
  =========                 |
  \\      /  F ield         | OpenFOAM: The Open Source CFD Toolbox
   \\    /   O peration     | Website:  https://openfoam.org
    \\  /    A nd           | Version:  7
     \\/     M anipulation  |
\*---------------------------------------------------------------------------*/
FoamFile
{
    version     2.0;
    format      ascii;
    class       volScalarField;
    location    "2.65";
    object      p;
}
// * * * * * * * * * * * * * * * * * * * * * * * * * * * * * * * * * * * * * //

dimensions      [0 2 -2 0 0 0 0];

internalField   nonuniform List<scalar> 
6400
(
-4.3487e-07
1.36215e-05
2.94254e-06
-3.60526e-05
-0.000101175
-0.000189093
-0.000296179
-0.000419126
-0.000555262
-0.000702564
-0.000859569
-0.00102524
-0.00119883
-0.00137976
-0.00156748
-0.00176141
-0.00196082
-0.00216477
-0.0023721
-0.00258135
-0.00279079
-0.00299836
-0.00320169
-0.00339814
-0.00358479
-0.00375848
-0.00391589
-0.00405356
-0.00416803
-0.00425587
-0.00431383
-0.00433897
-0.00432873
-0.00428114
-0.0041949
-0.00406954
-0.00390553
-0.00370436
-0.00346867
-0.00320222
-0.00290999
-0.00259782
-0.00227301
-0.00194343
-0.00161771
-0.00130493
-0.00101434
-0.000755057
-0.000535709
-0.000364127
-0.000247012
-0.000189652
-0.000195681
-0.000266901
-0.000403186
-0.000602471
-0.000860815
-0.00117257
-0.00153082
-0.00192705
-0.00235237
-0.00279726
-0.00325217
-0.00370781
-0.00415546
-0.00458723
-0.00499619
-0.00537648
-0.0057233
-0.00603289
-0.00630235
-0.00652957
-0.00671301
-0.00685171
-0.0069453
-0.00699439
-0.00700162
-0.00697357
-0.00692306
-0.00686898
-1.53819e-05
-1.15633e-06
-1.33965e-05
-5.07122e-05
-0.000109956
-0.000188966
-0.000285288
-0.000396478
-0.000520433
-0.00065546
-0.000800264
-0.000953856
-0.00111549
-0.00128455
-0.00146044
-0.00164257
-0.0018302
-0.00202244
-0.00221822
-0.00241619
-0.00261476
-0.00281207
-0.00300598
-0.00319408
-0.0033737
-0.00354197
-0.00369583
-0.0038321
-0.00394757
-0.00403906
-0.00410351
-0.00413815
-0.00414053
-0.00410874
-0.00404148
-0.00393819
-0.00379919
-0.00362574
-0.00342017
-0.00318587
-0.00292732
-0.00265
-0.00236042
-0.00206594
-0.00177454
-0.00149465
-0.00123485
-0.00100361
-0.00080897
-0.00065821
-0.000557561
-0.00051193
-0.000524672
-0.000597431
-0.000730049
-0.000920559
-0.00116526
-0.00145887
-0.0017948
-0.00216539
-0.0025622
-0.00297648
-0.00339943
-0.00382252
-0.00423778
-0.00463799
-0.00501687
-0.00536913
-0.00569049
-0.00597763
-0.00622812
-0.00644028
-0.00661309
-0.00674616
-0.00683976
-0.00689508
-0.0069149
-0.00690442
-0.00686893
-0.00681479
-4.61982e-06
1.04962e-05
-2.44266e-06
-3.91428e-05
-9.54129e-05
-0.000169366
-0.000259017
-0.000362406
-0.00047781
-0.000603826
-0.000739361
-0.000883574
-0.0010358
-0.0011955
-0.00136213
-0.00153515
-0.0017139
-0.00189758
-0.00208521
-0.00227559
-0.00246727
-0.00265855
-0.00284746
-0.00303178
-0.00320903
-0.0033765
-0.0035313
-0.00367042
-0.00379073
-0.00388916
-0.00396269
-0.00400855
-0.00402425
-0.0040078
-0.00395776
-0.00387338
-0.00375476
-0.00360291
-0.00341986
-0.00320866
-0.00297341
-0.00271941
-0.00245272
-0.00218034
-0.00190994
-0.00164964
-0.00140773
-0.00119244
-0.00101157
-0.000872221
-0.000780469
-0.000741105
-0.000757406
-0.000830975
-0.000961649
-0.0011475
-0.00138489
-0.00166869
-0.00199242
-0.00234861
-0.00272923
-0.00312563
-0.00352944
-0.0039325
-0.00432723
-0.00470685
-0.00506551
-0.00539836
-0.00570159
-0.0059723
-0.00620851
-0.00640896
-0.00657306
-0.00670078
-0.00679259
-0.00684956
-0.00687392
-0.00686902
-0.00683359
-0.00676445
3.62689e-05
4.78739e-05
3.2213e-05
-5.67385e-06
-6.13191e-05
-0.000132825
-0.000218477
-0.000316562
-0.000425684
-0.000544729
-0.000672844
-0.000809391
-0.000953872
-0.00110587
-0.00126501
-0.00143084
-0.00160284
-0.00178034
-0.0019625
-0.00214826
-0.00233634
-0.00252518
-0.00271298
-0.00289764
-0.00307682
-0.00324793
-0.00340814
-0.00355448
-0.00368384
-0.00379308
-0.00387913
-0.00393906
-0.00397024
-0.00397043
-0.00393796
-0.00387183
-0.00377182
-0.00363867
-0.00347411
-0.00328093
-0.00306292
-0.00282516
-0.00257354
-0.00231488
-0.00205674
-0.00180714
-0.00157436
-0.00136661
-0.00119174
-0.00105689
-0.000968214
-0.000930572
-0.000947317
-0.00102011
-0.00114884
-0.00133159
-0.00156474
-0.00184313
-0.00216028
-0.0025087
-0.00288028
-0.00326654
-0.00365907
-0.00404983
-0.00443142
-0.0047973
-0.0051419
-0.00546071
-0.0057503
-0.00600821
-0.00623286
-0.00642345
-0.00657972
-0.00670191
-0.00679053
-0.0068463
-0.00687068
-0.00686542
-0.00682432
-0.00673771
0.000106138
0.000108536
8.69286e-05
4.57535e-05
-1.11611e-05
-8.19877e-05
-0.000165197
-0.000259416
-0.000363571
-0.000476855
-0.000598697
-0.000728705
-0.000866603
-0.00101217
-0.00116521
-0.00132546
-0.00149256
-0.00166603
-0.00184518
-0.00202913
-0.00221677
-0.00240669
-0.00259722
-0.0027864
-0.00297196
-0.00315134
-0.00332174
-0.00348012
-0.00362328
-0.00374794
-0.00385082
-0.00392875
-0.00397881
-0.00399846
-0.00398568
-0.00393914
-0.00385829
-0.00374352
-0.00359627
-0.00341908
-0.0032155
-0.00299043
-0.00274965
-0.00249992
-0.00224878
-0.00200433
-0.00177493
-0.00156896
-0.00139444
-0.00125872
-0.00116818
-0.00112788
-0.00114139
-0.00121052
-0.00133527
-0.0015138
-0.00174251
-0.00201618
-0.00232826
-0.00267116
-0.00303659
-0.00341598
-0.00380082
-0.00418302
-0.00455518
-0.00491085
-0.00524464
-0.00555228
-0.00583066
-0.00607769
-0.00629223
-0.00647384
-0.00662266
-0.00673915
-0.00682387
-0.00687729
-0.00690027
-0.00689337
-0.00684722
-0.00674824
0.000202316
0.000190595
0.000159876
0.00011337
5.34185e-05
-1.83279e-05
-0.000100571
-0.000192313
-0.000292848
-0.000401716
-0.000518665
-0.000643593
-0.00077649
-0.000917387
-0.00106631
-0.00122321
-0.00138797
-0.00156029
-0.0017397
-0.0019255
-0.00211675
-0.0023122
-0.00251028
-0.00270911
-0.00290644
-0.00309969
-0.00328598
-0.00346211
-0.00362469
-0.00377016
-0.00389493
-0.00399549
-0.00406852
-0.00411108
-0.00412074
-0.00409577
-0.00403523
-0.00393916
-0.00380869
-0.00364618
-0.00345487
-0.00323959
-0.00300602
-0.00276095
-0.002512
-0.0022674
-0.00203575
-0.00182566
-0.00164547
-0.00150288
-0.00140462
-0.0013561
-0.00136122
-0.00142207
-0.0015389
-0.00171002
-0.00193189
-0.00219931
-0.00250563
-0.00284309
-0.00320324
-0.00357726
-0.00395643
-0.00433247
-0.00469786
-0.00504608
-0.00537177
-0.00567082
-0.00594031
-0.00617849
-0.00638452
-0.00655836
-0.00670049
-0.00681164
-0.00689245
-0.00694331
-0.00696471
-0.0069565
-0.00690767
-0.00680277
0.000320982
0.000290919
0.000248753
0.000194965
0.000130339
5.62452e-05
-2.63834e-05
-0.000116997
-0.000215317
-0.00032127
-0.000434966
-0.000556634
-0.000686569
-0.000825091
-0.000972496
-0.00112901
-0.00129475
-0.00146966
-0.0016535
-0.00184577
-0.00204569
-0.00225214
-0.00246364
-0.00267831
-0.00289388
-0.00310765
-0.00331654
-0.00351712
-0.00370566
-0.00387824
-0.00403084
-0.00415948
-0.00426037
-0.0043301
-0.00436575
-0.00436512
-0.00432685
-0.00425059
-0.00413723
-0.00398902
-0.00380844
-0.00360067
-0.00337127
-0.00312706
-0.00287577
-0.00262584
-0.00238615
-0.00216566
-0.00197313
-0.00181672
-0.00170363
-0.00163982
-0.00162962
-0.00167561
-0.00177839
-0.00193658
-0.00214684
-0.00240405
-0.00270153
-0.00303141
-0.003385
-0.00375324
-0.00412708
-0.00449796
-0.00485808
-0.00520075
-0.00552049
-0.00581317
-0.00607599
-0.00630735
-0.00650672
-0.00667435
-0.00681103
-0.00691774
-0.00699534
-0.00704422
-0.00706472
-0.00705641
-0.00700779
-0.00690311
0.000457608
0.000405967
0.000350037
0.000287435
0.000216853
0.000139213
5.50014e-05
-3.57669e-05
-0.000133305
-0.000237982
-0.000350306
-0.000470879
-0.00060034
-0.000739332
-0.000888459
-0.00104824
-0.00121909
-0.0014012
-0.00159457
-0.00179891
-0.00201358
-0.00223757
-0.00246943
-0.00270723
-0.00294858
-0.00319057
-0.00342983
-0.00366257
-0.00388463
-0.0040916
-0.00427893
-0.0044421
-0.00457675
-0.00467889
-0.0047451
-0.00477264
-0.00475971
-0.00470553
-0.00461078
-0.00447796
-0.004307
-0.00410527
-0.00387775
-0.00363117
-0.00337339
-0.00311307
-0.00285941
-0.00262179
-0.00240948
-0.0022312
-0.0020948
-0.00200688
-0.00197247
-0.00199475
-0.00207493
-0.0022121
-0.0024033
-0.00264366
-0.00292659
-0.00324418
-0.00358757
-0.00394741
-0.00431433
-0.00467936
-0.00503436
-0.00537226
-0.00568737
-0.00597537
-0.00623343
-0.00645999
-0.00665467
-0.00681793
-0.00695082
-0.00705457
-0.00713025
-0.0071784
-0.0071994
-0.00719273
-0.00714732
-0.00704814
0.00060718
0.000531261
0.000459771
0.000387171
0.000309598
0.00022741
0.000140536
4.83549e-05
-4.99124e-05
-0.000155131
-0.000268255
-0.000390293
-0.000522261
-0.000665157
-0.000819928
-0.000987421
-0.00116834
-0.00136318
-0.00157218
-0.00179522
-0.0020318
-0.00228097
-0.00254124
-0.00281058
-0.00308635
-0.00336536
-0.00364385
-0.00391753
-0.00418173
-0.00443144
-0.00466149
-0.00486671
-0.00504212
-0.00518309
-0.00528559
-0.00534634
-0.00536302
-0.00533442
-0.00526048
-0.00514224
-0.00498371
-0.00478803
-0.00456094
-0.00430936
-0.00404128
-0.00376558
-0.00349179
-0.00322977
-0.00298936
-0.00277996
-0.0026102
-0.00248752
-0.00241781
-0.00240514
-0.00245154
-0.00255683
-0.00271868
-0.00293266
-0.0031925
-0.00349037
-0.00381734
-0.00416383
-0.00452013
-0.00487684
-0.00522533
-0.00555809
-0.00586898
-0.00615341
-0.00640827
-0.00663192
-0.00682395
-0.00698495
-0.00711609
-0.00721883
-0.00729443
-0.00734365
-0.00736698
-0.00736399
-0.00732457
-0.00723512
0.000764158
0.000661747
0.000573352
0.000489861
0.000404506
0.000316933
0.000226389
0.000131512
3.08782e-05
-7.69308e-05
-0.000193358
-0.000319854
-0.000457842
-0.000608706
-0.000773761
-0.000954206
-0.00115106
-0.00136512
-0.00159683
-0.00184627
-0.00211301
-0.0023961
-0.00269396
-0.00300434
-0.00332431
-0.00365025
-0.00397791
-0.00430243
-0.00461849
-0.0049204
-0.0052023
-0.0054583
-0.0056827
-0.00587018
-0.00601604
-0.00611636
-0.00616825
-0.00617
-0.00612091
-0.00602131
-0.0058758
-0.00568652
-0.00545915
-0.00520055
-0.00491873
-0.00462278
-0.00432254
-0.00402836
-0.00375068
-0.00349973
-0.00328502
-0.00311503
-0.00299676
-0.00293541
-0.0029341
-0.00299374
-0.00311291
-0.00328792
-0.00351305
-0.00378081
-0.00408236
-0.004408
-0.0047477
-0.0050916
-0.00543052
-0.00575639
-0.00606248
-0.00634367
-0.00659645
-0.00681887
-0.00701033
-0.00717133
-0.00730309
-0.00740716
-0.00748496
-0.00753743
-0.00756521
-0.00756803
-0.00753707
-0.00746054
0.000922448
0.000791782
0.000685484
0.000590482
0.000496758
0.000403083
0.000307887
0.000208959
0.00010415
-8.56541e-06
-0.000131163
-0.000265567
-0.00041364
-0.00057718
-0.000757891
-0.000957339
-0.00117688
-0.00141757
-0.00168009
-0.00196464
-0.00227085
-0.00259768
-0.00294338
-0.0033054
-0.0036804
-0.00406427
-0.00445213
-0.00483847
-0.00521725
-0.005582
-0.00592609
-0.00624283
-0.00652575
-0.00676875
-0.0069664
-0.00711406
-0.00720816
-0.00724633
-0.00722739
-0.00715145
-0.00702133
-0.00683997
-0.00661254
-0.00634564
-0.00604723
-0.00572647
-0.0053935
-0.0050591
-0.00473441
-0.00443049
-0.00415792
-0.00392637
-0.00374419
-0.00361799
-0.00355238
-0.00354963
-0.00360963
-0.00372982
-0.00390538
-0.00412943
-0.00439349
-0.00468789
-0.0050024
-0.00532673
-0.0056511
-0.00596672
-0.00626615
-0.00654354
-0.00679474
-0.00701725
-0.00721009
-0.00737344
-0.00750838
-0.0076164
-0.00769898
-0.00775717
-0.00779171
-0.00780247
-0.00778208
-0.00772073
0.0010753
0.000915072
0.000790199
0.000683299
0.000580775
0.000480348
0.000379492
0.000275037
0.000164036
4.37993e-05
-8.82195e-05
-0.000234454
-0.000397234
-0.000578793
-0.000781247
-0.00100654
-0.00125634
-0.00153199
-0.00183435
-0.00216371
-0.00251968
-0.00290107
-0.00330586
-0.00373112
-0.00417301
-0.0046268
-0.00508695
-0.00554716
-0.0060006
-0.00643997
-0.00685777
-0.00724646
-0.00759869
-0.00790756
-0.00816678
-0.00837091
-0.00851561
-0.00859772
-0.00861541
-0.00856835
-0.00845815
-0.00828765
-0.00806153
-0.00778604
-0.00746896
-0.00711946
-0.00674784
-0.00636532
-0.00598367
-0.00561485
-0.00527058
-0.00496191
-0.00469875
-0.00448945
-0.00434038
-0.00425566
-0.0042369
-0.00428311
-0.00439079
-0.0045541
-0.00476522
-0.00501482
-0.00529263
-0.00558799
-0.00589054
-0.00619068
-0.00648006
-0.0067519
-0.00700117
-0.00722457
-0.0074204
-0.00758835
-0.00772909
-0.00784385
-0.00793399
-0.00800055
-0.00804426
-0.00806507
-0.00805702
-0.00801233
0.00121539
0.0010247
0.000880875
0.00076188
0.000650233
0.000542417
0.000434816
0.000323198
0.000203745
7.30543e-05
-7.20327e-05
-0.00023449
-0.00041714
-0.000622677
-0.000853638
-0.00111234
-0.00140078
-0.00172054
-0.00207263
-0.00245736
-0.00287425
-0.0033219
-0.00379793
-0.00429892
-0.00482045
-0.00535709
-0.00590251
-0.00644961
-0.00699064
-0.00751742
-0.0080215
-0.00849443
-0.00892792
-0.00931413
-0.00964588
-0.00991682
-0.0101217
-0.0102565
-0.0103187
-0.010307
-0.0102223
-0.0100668
-0.00984451
-0.0095613
-0.00922459
-0.00884339
-0.00842808
-0.00799018
-0.00754204
-0.00709649
-0.00666645
-0.00626445
-0.00590215
-0.00558989
-0.00533621
-0.00514746
-0.00502744
-0.00497728
-0.00499533
-0.00507728
-0.00521644
-0.00540419
-0.00563047
-0.00588448
-0.00615527
-0.00643239
-0.00670646
-0.00696955
-0.00721543
-0.00743971
-0.00763969
-0.00781421
-0.00796326
-0.00808756
-0.00818813
-0.00826579
-0.00832112
-0.00835399
-0.00835979
-0.00833266
0.0013348
0.00111318
0.000950293
0.000819159
0.000698117
0.000582243
0.000466692
0.000346082
0.000215656
7.12484e-05
-9.09445e-05
-0.000274468
-0.000482664
-0.0007187
-0.000985543
-0.00128589
-0.00162203
-0.00199576
-0.00240818
-0.00285958
-0.00334931
-0.00387565
-0.00443579
-0.00502573
-0.00564037
-0.0062735
-0.00691794
-0.00756568
-0.00820801
-0.00883576
-0.0094395
-0.0100097
-0.0105372
-0.0110131
-0.0114292
-0.0117781
-0.0120537
-0.0122509
-0.0123662
-0.0123976
-0.0123449
-0.0122096
-0.011995
-0.0117063
-0.0113503
-0.0109359
-0.0104732
-0.00997397
-0.00945096
-0.00891781
-0.00838857
-0.00787728
-0.0073975
-0.00696175
-0.00658105
-0.00626438
-0.00601828
-0.00584653
-0.00574994
-0.00572637
-0.00577084
-0.00587594
-0.00603227
-0.00622912
-0.00645514
-0.00669906
-0.0069503
-0.00719956
-0.00743917
-0.00766327
-0.0078678
-0.00805038
-0.00820998
-0.0083465
-0.00846031
-0.0085518
-0.00862118
-0.00866808
-0.00868903
-0.00867993
0.00142509
0.00117252
0.00099072
0.000847512
0.00071682
0.000592142
0.000467289
0.00033564
0.000191447
2.97394e-05
-0.000153968
-0.000363816
-0.000603688
-0.000877236
-0.00118786
-0.00153863
-0.0019321
-0.00237024
-0.00285418
-0.00338411
-0.00395913
-0.00457713
-0.00523476
-0.00592737
-0.00664907
-0.0073928
-0.00815046
-0.00891302
-0.00967076
-0.0104134
-0.0111306
-0.0118116
-0.0124461
-0.0130243
-0.0135367
-0.0139752
-0.0143322
-0.0146019
-0.0147797
-0.0148626
-0.0148493
-0.0147405
-0.0145385
-0.0142478
-0.0138746
-0.0134271
-0.0129153
-0.0123507
-0.0117464
-0.0111167
-0.0104765
-0.00984146
-0.00922686
-0.00864758
-0.00811734
-0.00764811
-0.00724964
-0.00692894
-0.00668999
-0.0065335
-0.00645696
-0.00645481
-0.00651891
-0.00663909
-0.00680386
-0.00700123
-0.00721943
-0.00744758
-0.00767623
-0.00789771
-0.00810618
-0.00829762
-0.00846955
-0.00862067
-0.00875037
-0.00885832
-0.00894411
-0.00900691
-0.00904422
-0.00905343
0.00147743
0.00119436
0.000994026
0.000838888
0.000698269
0.000563939
0.000428259
0.000283304
0.000122284
-6.06094e-05
-0.00027057
-0.000512359
-0.000790416
-0.00110889
-0.00147162
-0.00188199
-0.00234284
-0.00285621
-0.00342323
-0.0040439
-0.00471699
-0.0054399
-0.00620865
-0.00701784
-0.00786072
-0.00872929
-0.0096144
-0.010506
-0.0113932
-0.0122646
-0.0131086
-0.0139136
-0.0146679
-0.0153606
-0.0159812
-0.0165202
-0.0169693
-0.0173214
-0.0175709
-0.0177137
-0.0177476
-0.0176721
-0.0174888
-0.017201
-0.0168142
-0.0163359
-0.0157755
-0.0151443
-0.0144552
-0.0137228
-0.0129629
-0.0121922
-0.0114279
-0.010687
-0.00998609
-0.00934032
-0.00876303
-0.00826506
-0.00785422
-0.00753487
-0.00730781
-0.0071702
-0.00711591
-0.00713593
-0.00721916
-0.00735312
-0.0075249
-0.00772195
-0.00793278
-0.00814747
-0.00835796
-0.00855809
-0.00874347
-0.00891114
-0.00905913
-0.00918598
-0.00929044
-0.00937099
-0.00942575
-0.00945351
0.00148276
0.00117009
0.000951838
0.000784968
0.000634098
0.000489144
0.000340935
0.000180187
-9.62165e-07
-0.000209187
-0.000450413
-0.000730041
-0.00105308
-0.00142417
-0.00184758
-0.00232702
-0.0028655
-0.00346514
-0.00412696
-0.00485068
-0.00563466
-0.00647571
-0.00736911
-0.00830864
-0.00928656
-0.0102938
-0.0113202
-0.0123544
-0.0133844
-0.0143976
-0.0153812
-0.0163222
-0.017208
-0.0180263
-0.0187655
-0.0194152
-0.0199659
-0.0204094
-0.0207391
-0.0209499
-0.0210386
-0.0210037
-0.0208456
-0.0205667
-0.0201717
-0.0196669
-0.0190611
-0.0183649
-0.0175909
-0.0167536
-0.0158692
-0.0149551
-0.0140301
-0.0131131
-0.0122234
-0.0113795
-0.0105986
-0.0098956
-0.00928291
-0.00876936
-0.00835995
-0.00805557
-0.00785307
-0.00774552
-0.00772286
-0.00777265
-0.00788108
-0.00803391
-0.0082174
-0.00841901
-0.00862795
-0.00883539
-0.00903446
-0.00922003
-0.00938837
-0.00953626
-0.0096615
-0.00976157
-0.00983497
-0.00988168
0.00143196
0.00109108
0.000855725
0.000677352
0.000515844
0.000359166
0.000196551
1.73301e-05
-0.000187454
-0.000425361
-0.000703062
-0.00102661
-0.0014016
-0.00183316
-0.00232595
-0.00288397
-0.00351038
-0.00420727
-0.00497548
-0.00581438
-0.00672179
-0.00769383
-0.00872496
-0.00980797
-0.0109341
-0.0120931
-0.0132734
-0.0144627
-0.0156475
-0.0168141
-0.0179481
-0.0190356
-0.0200625
-0.0210155
-0.0218821
-0.0226505
-0.0233104
-0.0238526
-0.0242696
-0.0245554
-0.0247058
-0.0247182
-0.0245922
-0.0243291
-0.0239324
-0.0234076
-0.0227622
-0.022006
-0.0211508
-0.0202108
-0.0192019
-0.0181419
-0.0170505
-0.0159482
-0.0148567
-0.0137975
-0.0127915
-0.0118584
-0.0110153
-0.0102764
-0.00965185
-0.00914732
-0.00876381
-0.00849762
-0.00834071
-0.00828148
-0.00830568
-0.0083976
-0.00854113
-0.00872082
-0.00892263
-0.00913447
-0.00934636
-0.00955036
-0.00974019
-0.00991135
-0.0100594
-0.0101807
-0.0102741
-0.0103403
0.00131611
0.000948864
0.000697405
0.000507778
0.000335173
0.000165545
-1.35013e-05
-0.000214033
-0.000446108
-0.00071818
-0.00103768
-0.00141131
-0.00184525
-0.00234511
-0.00291592
-0.00356191
-0.00428632
-0.00509116
-0.00597696
-0.00694266
-0.00798541
-0.00910054
-0.0102815
-0.0115201
-0.0128062
-0.0141285
-0.015474
-0.0168289
-0.0181785
-0.0195076
-0.0208006
-0.0220423
-0.0232174
-0.0243116
-0.0253113
-0.0262039
-0.0269781
-0.0276241
-0.0281334
-0.0284994
-0.0287169
-0.0287826
-0.0286952
-0.0284549
-0.0280641
-0.0275271
-0.0268503
-0.0260422
-0.0251137
-0.0240778
-0.0229498
-0.0217474
-0.0204903
-0.0192003
-0.0179004
-0.0166149
-0.0153684
-0.0141847
-0.0130865
-0.0120933
-0.0112216
-0.010483
-0.00988386
-0.00942506
-0.00910191
-0.00890472
-0.00881969
-0.00883006
-0.00891751
-0.00906344
-0.00925013
-0.0094616
-0.00968409
-0.00990618
-0.0101187
-0.0103143
-0.010487
-0.0106313
-0.0107459
-0.0108328
0.00112666
0.000735351
0.000468973
0.000268347
8.41218e-05
-9.9787e-05
-0.000297407
-0.000522193
-0.000785297
-0.00109606
-0.00146268
-0.00189251
-0.0023923
-0.00296811
-0.00362531
-0.00436831
-0.00520035
-0.00612324
-0.00713715
-0.00824041
-0.0094294
-0.0106985
-0.0120402
-0.0134448
-0.014901
-0.0163961
-0.0179156
-0.0194442
-0.0209658
-0.0224637
-0.0239211
-0.0253215
-0.0266486
-0.027887
-0.0290224
-0.0300413
-0.0309319
-0.0316837
-0.0322878
-0.0327368
-0.0330251
-0.0331486
-0.0331052
-0.0328943
-0.0325172
-0.031977
-0.0312788
-0.0304297
-0.0294391
-0.0283187
-0.0270825
-0.0257474
-0.0243324
-0.0228595
-0.0213527
-0.0198381
-0.018343
-0.0168956
-0.0155232
-0.0142518
-0.0131042
-0.012099
-0.0112494
-0.0105624
-0.0100382
-0.00967045
-0.00944708
-0.00935113
-0.00936247
-0.00945939
-0.00962015
-0.00982428
-0.0100535
-0.0102922
-0.0105273
-0.0107487
-0.0109474
-0.0111164
-0.011254
-0.0113629
0.000855754
0.000443091
0.000163136
-4.82247e-05
-0.000244649
-0.000444244
-0.000662651
-0.000914679
-0.00121255
-0.00156649
-0.00198544
-0.00247741
-0.00304967
-0.00370874
-0.00446025
-0.00530871
-0.00625728
-0.00730748
-0.00845896
-0.00970935
-0.0110541
-0.0124865
-0.0139977
-0.0155768
-0.017211
-0.0188858
-0.0205853
-0.0222926
-0.0239901
-0.0256597
-0.0272834
-0.0288434
-0.0303225
-0.0317045
-0.0329744
-0.0341183
-0.0351239
-0.0359804
-0.0366786
-0.0372108
-0.0375712
-0.0377551
-0.0377598
-0.0375839
-0.037228
-0.0366938
-0.0359852
-0.0351077
-0.0340691
-0.0328792
-0.0315506
-0.0300982
-0.02854
-0.026897
-0.0251933
-0.0234557
-0.0217135
-0.0199979
-0.0183409
-0.0167743
-0.0153276
-0.0140274
-0.0128946
-0.011944
-0.0111824
-0.0106088
-0.0102143
-0.00998315
-0.00989427
-0.00992318
-0.010044
-0.0102312
-0.0104613
-0.0107137
-0.0109707
-0.0112183
-0.0114446
-0.0116399
-0.0118023
-0.011935
0.000496401
6.54895e-05
-0.000226553
-0.000448373
-0.000657606
-0.00087433
-0.00111575
-0.00139798
-0.00173429
-0.00213573
-0.00261199
-0.0031717
-0.00382265
-0.00457173
-0.00542478
-0.00638634
-0.00745939
-0.008645
-0.00994221
-0.0113478
-0.012856
-0.0144591
-0.0161466
-0.0179061
-0.0197232
-0.0215816
-0.0234639
-0.0253516
-0.0272253
-0.0290658
-0.0308536
-0.0325701
-0.0341974
-0.0357185
-0.037118
-0.0383819
-0.0394977
-0.0404546
-0.0412433
-0.0418563
-0.0422874
-0.042532
-0.0425869
-0.0424503
-0.0421219
-0.0416024
-0.0408945
-0.0400022
-0.0389313
-0.0376898
-0.036288
-0.0347387
-0.033058
-0.0312651
-0.0293828
-0.0274376
-0.0254596
-0.0234818
-0.0215398
-0.0196704
-0.01791
-0.0162928
-0.0148488
-0.0136017
-0.0125668
-0.0117506
-0.0111494
-0.0107505
-0.0105332
-0.0104711
-0.0105344
-0.0106922
-0.0109152
-0.0111767
-0.0114537
-0.0117275
-0.0119824
-0.0122058
-0.0123948
-0.0125538
4.27523e-05
-0.000402961
-0.00070547
-0.000937448
-0.0011601
-0.00139539
-0.00166201
-0.0019773
-0.00235551
-0.00280853
-0.00334672
-0.00397932
-0.00471457
-0.0055597
-0.00652066
-0.00760193
-0.00880616
-0.0101339
-0.0115834
-0.0131503
-0.0148278
-0.0166064
-0.0184744
-0.0204174
-0.0224193
-0.0244622
-0.0265266
-0.0285925
-0.0306391
-0.0326457
-0.0345919
-0.0364581
-0.0382258
-0.0398779
-0.0413987
-0.0427743
-0.0439923
-0.0450422
-0.045915
-0.0466035
-0.0471017
-0.047405
-0.0475103
-0.0474153
-0.0471192
-0.0466221
-0.0459252
-0.0450312
-0.0439442
-0.04267
-0.0412166
-0.0395941
-0.0378161
-0.0358992
-0.033864
-0.0317354
-0.0295426
-0.0273193
-0.0251031
-0.0229346
-0.020856
-0.0189092
-0.0171332
-0.0155618
-0.0142207
-0.0131257
-0.0122808
-0.0116788
-0.0113013
-0.0111213
-0.0111056
-0.0112183
-0.0114235
-0.0116877
-0.0119817
-0.0122809
-0.012565
-0.0128179
-0.0130359
-0.0132238
-0.000509703
-0.000966477
-0.00127771
-0.00151951
-0.00175616
-0.00201139
-0.00230528
-0.00265631
-0.00307964
-0.00358793
-0.0041922
-0.00490223
-0.00572666
-0.00667296
-0.00774715
-0.00895349
-0.0102942
-0.0117691
-0.0133755
-0.0151079
-0.0169579
-0.0189147
-0.0209644
-0.0230911
-0.0252766
-0.0275011
-0.0297435
-0.0319819
-0.0341943
-0.0363587
-0.0384539
-0.0404596
-0.0423569
-0.0441287
-0.0457595
-0.0472355
-0.0485451
-0.0496782
-0.0506264
-0.0513829
-0.0519423
-0.0523003
-0.052454
-0.0524011
-0.0521403
-0.0516712
-0.0509942
-0.0501106
-0.0490228
-0.0477347
-0.0462516
-0.0445811
-0.0427337
-0.0407227
-0.0385656
-0.0362846
-0.0339068
-0.0314646
-0.0289961
-0.0265439
-0.0241547
-0.0218768
-0.019758
-0.0178426
-0.0161677
-0.0147607
-0.0136359
-0.0127939
-0.0122215
-0.0118929
-0.0117732
-0.0118215
-0.0119953
-0.0122537
-0.01256
-0.0128829
-0.0131966
-0.0134804
-0.0137295
-0.0139495
-0.00116395
-0.00162781
-0.00194591
-0.00219714
-0.00244831
-0.00272474
-0.00304779
-0.00343697
-0.00390828
-0.00447507
-0.00514896
-0.00594022
-0.00685783
-0.0079094
-0.00910088
-0.0104362
-0.0119171
-0.0135424
-0.0153083
-0.017208
-0.0192315
-0.021366
-0.023596
-0.0259034
-0.0282681
-0.0306682
-0.0330811
-0.0354831
-0.037851
-0.0401618
-0.0423934
-0.0445254
-0.0465388
-0.0484166
-0.0501437
-0.0517071
-0.0530957
-0.0543003
-0.0553133
-0.0561287
-0.0567419
-0.0571491
-0.0573474
-0.057335
-0.0571105
-0.0566733
-0.0560229
-0.0551596
-0.0540845
-0.0527995
-0.0513077
-0.0496139
-0.0477253
-0.0456517
-0.043407
-0.0410094
-0.0384827
-0.0358567
-0.0331677
-0.0304586
-0.0277784
-0.0251803
-0.0227197
-0.0204509
-0.0184231
-0.0166766
-0.0152385
-0.0141203
-0.0133166
-0.0128061
-0.0125536
-0.0125147
-0.0126406
-0.0128822
-0.0131945
-0.0135383
-0.0138812
-0.0141972
-0.0144798
-0.0147352
-0.00192132
-0.00238809
-0.00271112
-0.00297131
-0.0032374
-0.00353613
-0.00388999
-0.0043194
-0.00484108
-0.00546904
-0.0062154
-0.00709085
-0.00810462
-0.00926437
-0.0105759
-0.0120426
-0.0136655
-0.0154425
-0.0173684
-0.0194349
-0.0216302
-0.0239396
-0.0263454
-0.0288276
-0.0313639
-0.0339308
-0.0365035
-0.0390574
-0.0415677
-0.0440108
-0.0463642
-0.0486073
-0.0507213
-0.0526897
-0.0544982
-0.0561345
-0.0575885
-0.058852
-0.0599184
-0.0607826
-0.0614407
-0.06189
-0.0621279
-0.0621531
-0.0619642
-0.0615605
-0.0609411
-0.0601057
-0.0590542
-0.0577868
-0.0563047
-0.0546102
-0.0527071
-0.0506018
-0.0483041
-0.0458277
-0.0431921
-0.0404229
-0.0375532
-0.0346238
-0.0316838
-0.0287889
-0.0260002
-0.0233807
-0.0209915
-0.0188864
-0.0171072
-0.0156792
-0.0146084
-0.0138806
-0.0134638
-0.0133117
-0.0133699
-0.0135811
-0.013891
-0.0142518
-0.0146229
-0.014972
-0.0152902
-0.0155846
-0.00278135
-0.00324677
-0.0035727
-0.00384129
-0.00412256
-0.00444446
-0.00483048
-0.00530177
-0.00587572
-0.00656685
-0.00738775
-0.00834941
-0.00946122
-0.0107308
-0.0121636
-0.0137625
-0.0155275
-0.0174554
-0.0195397
-0.02177
-0.0241329
-0.0266115
-0.0291862
-0.0318345
-0.0345324
-0.0372543
-0.0399741
-0.0426656
-0.0453033
-0.0478629
-0.0503218
-0.0526595
-0.0548578
-0.0569008
-0.0587751
-0.0604694
-0.0619749
-0.0632844
-0.0643925
-0.0652951
-0.0659893
-0.0664729
-0.0667445
-0.0668029
-0.0666474
-0.0662769
-0.0656909
-0.0648883
-0.0638681
-0.0626297
-0.0611723
-0.059496
-0.057602
-0.0554932
-0.0531751
-0.0506571
-0.0479534
-0.0450845
-0.0420786
-0.0389728
-0.0358135
-0.0326566
-0.0295661
-0.0266118
-0.0238649
-0.0213928
-0.019253
-0.0174871
-0.0161154
-0.0151353
-0.0145207
-0.0142265
-0.014194
-0.0143585
-0.0146558
-0.015028
-0.0154253
-0.0158079
-0.016164
-0.016501
-0.00374179
-0.00420154
-0.00452826
-0.00480458
-0.0051011
-0.00544679
-0.00586593
-0.00638032
-0.00700783
-0.00776344
-0.00866008
-0.00970896
-0.0109195
-0.0122992
-0.013853
-0.0155832
-0.0174886
-0.0195647
-0.0218033
-0.0241924
-0.0267164
-0.0293564
-0.0320904
-0.034894
-0.0377411
-0.0406044
-0.0434565
-0.0462699
-0.0490185
-0.0516779
-0.0542253
-0.0566408
-0.0589068
-0.0610084
-0.0629332
-0.0646713
-0.0662148
-0.0675579
-0.0686964
-0.0696272
-0.0703485
-0.0708589
-0.0711578
-0.0712445
-0.0711188
-0.07078
-0.0702273
-0.0694598
-0.068476
-0.0672742
-0.0658526
-0.0642095
-0.0623438
-0.0602553
-0.0579458
-0.0554201
-0.0526871
-0.0497617
-0.0466662
-0.0434318
-0.0401004
-0.0367253
-0.0333706
-0.0301098
-0.027022
-0.0241869
-0.0216776
-0.0195533
-0.0178522
-0.0165862
-0.01574
-0.0152727
-0.0151241
-0.0152227
-0.0154947
-0.0158713
-0.0162919
-0.0167079
-0.0171038
-0.017487
-0.00479857
-0.00524833
-0.0055737
-0.00585693
-0.00616856
-0.00653834
-0.00699119
-0.00754934
-0.00823108
-0.0090517
-0.0100244
-0.0111605
-0.0124693
-0.013958
-0.0156311
-0.0174899
-0.0195321
-0.0217518
-0.0241389
-0.0266796
-0.0293562
-0.0321474
-0.0350293
-0.0379754
-0.0409577
-0.0439474
-0.0469157
-0.0498345
-0.0526772
-0.0554192
-0.0580383
-0.0605151
-0.0628329
-0.0649779
-0.066939
-0.0687073
-0.0702766
-0.071642
-0.0728005
-0.0737503
-0.0744903
-0.0750202
-0.0753401
-0.0754499
-0.0753499
-0.0750398
-0.0745191
-0.0737868
-0.0728413
-0.0716806
-0.0703021
-0.0687027
-0.0668796
-0.0648302
-0.0625529
-0.0600486
-0.057321
-0.0543792
-0.0512389
-0.0479245
-0.0444717
-0.0409284
-0.0373558
-0.0338278
-0.0304285
-0.0272473
-0.0243716
-0.0218788
-0.0198266
-0.0182456
-0.0171352
-0.016463
-0.0161706
-0.0161819
-0.0164138
-0.0167859
-0.0172257
-0.0176743
-0.0181115
-0.0185444
-0.00594585
-0.00638138
-0.00670321
-0.0069924
-0.00731874
-0.00771258
-0.00819926
-0.00880132
-0.00953728
-0.0104227
-0.0114708
-0.0126929
-0.0140984
-0.0156938
-0.0174829
-0.0194661
-0.0216399
-0.0239967
-0.0265247
-0.0292079
-0.0320266
-0.0349575
-0.0379743
-0.0410487
-0.0441511
-0.0472513
-0.0503194
-0.0533268
-0.0562468
-0.0590549
-0.0617296
-0.0642522
-0.0666071
-0.0687817
-0.0707661
-0.0725529
-0.074137
-0.0755148
-0.0766844
-0.077645
-0.0783965
-0.0789394
-0.0792743
-0.0794021
-0.0793233
-0.0790383
-0.0785469
-0.0778482
-0.076941
-0.0758228
-0.0744909
-0.0729415
-0.0711705
-0.0691734
-0.0669464
-0.0644864
-0.0617932
-0.0588698
-0.0557256
-0.0523777
-0.0488539
-0.045195
-0.0414565
-0.0377094
-0.0340389
-0.0305407
-0.0273145
-0.0244545
-0.0220391
-0.0201204
-0.0187165
-0.0178084
-0.0173435
-0.0172439
-0.0174186
-0.0177754
-0.0182291
-0.0187087
-0.0191883
-0.0196743
-0.00717613
-0.00759335
-0.0079094
-0.00820344
-0.00854386
-0.00896135
-0.00948151
-0.010127
-0.0109165
-0.0118656
-0.0129876
-0.0142937
-0.0157929
-0.0174913
-0.0193919
-0.0214939
-0.0237924
-0.0262783
-0.0289379
-0.0317532
-0.0347023
-0.0377597
-0.0408975
-0.0440853
-0.0472922
-0.0504866
-0.0536383
-0.056718
-0.0596992
-0.062558
-0.0652733
-0.0678277
-0.0702066
-0.0723987
-0.0743954
-0.0761907
-0.0777805
-0.0791625
-0.0803357
-0.0813004
-0.0820572
-0.0826074
-0.0829523
-0.0830932
-0.0830314
-0.0827675
-0.0823019
-0.0816341
-0.080763
-0.0796866
-0.0784019
-0.0769049
-0.0751909
-0.0732544
-0.0710896
-0.0686908
-0.066054
-0.0631776
-0.0600644
-0.0567244
-0.053177
-0.0494544
-0.0456042
-0.0416913
-0.0377984
-0.0340235
-0.0304747
-0.0272612
-0.0244815
-0.0222108
-0.0204894
-0.0193166
-0.0186505
-0.0184152
-0.0185137
-0.0188428
-0.0193036
-0.0198117
-0.0203344
-0.0208764
-0.0084804
-0.00887541
-0.00918347
-0.00948108
-0.00983465
-0.010275
-0.0108278
-0.0115158
-0.0123575
-0.0133684
-0.0145619
-0.0159488
-0.0175377
-0.0193342
-0.0213404
-0.0235542
-0.0259694
-0.0285751
-0.0313558
-0.0342914
-0.0373581
-0.0405284
-0.0437724
-0.0470585
-0.0503541
-0.0536271
-0.0568465
-0.0599832
-0.0630108
-0.065906
-0.0686488
-0.0712227
-0.0736145
-0.075814
-0.077814
-0.0796095
-0.0811977
-0.0825774
-0.0837485
-0.0847119
-0.0854692
-0.0860221
-0.0863726
-0.0865226
-0.0864736
-0.086227
-0.0857834
-0.0851428
-0.0843047
-0.0832673
-0.0820279
-0.0805828
-0.0789271
-0.0770547
-0.0749588