/*--------------------------------*- C++ -*----------------------------------*\
  =========                 |
  \\      /  F ield         | OpenFOAM: The Open Source CFD Toolbox
   \\    /   O peration     | Website:  https://openfoam.org
    \\  /    A nd           | Version:  7
     \\/     M anipulation  |
\*---------------------------------------------------------------------------*/
FoamFile
{
    version     2.0;
    format      ascii;
    class       volScalarField;
    location    "2.375";
    object      p;
}
// * * * * * * * * * * * * * * * * * * * * * * * * * * * * * * * * * * * * * //

dimensions      [0 2 -2 0 0 0 0];

internalField   nonuniform List<scalar> 
6400
(
1.25467e-06
5.40986e-06
-2.64798e-05
-9.35396e-05
-0.000188182
-0.000303385
-0.00043301
-0.000571767
-0.000715704
-0.000861782
-0.00100781
-0.00115222
-0.00129393
-0.00143212
-0.00156617
-0.00169551
-0.00181955
-0.00193767
-0.00204909
-0.00215294
-0.00224821
-0.00233373
-0.00240827
-0.00247047
-0.00251893
-0.00255225
-0.00256903
-0.00256793
-0.00254774
-0.0025074
-0.00244606
-0.00236311
-0.00225827
-0.00213156
-0.00198343
-0.00181471
-0.0016267
-0.00142116
-0.00120032
-0.000966867
-0.000723951
-0.000475135
-0.000224347
2.41783e-05
0.000265975
0.000496443
0.000710945
0.000904923
0.00107401
0.00121417
0.00132177
0.00139374
0.00142766
0.00142181
0.0013753
0.00128805
0.00116086
0.000995361
0.00079402
0.000560065
0.000297411
1.05668e-05
-0.000295471
-0.000615334
-0.000943404
-0.00127393
-0.00160112
-0.00191926
-0.00222277
-0.0025063
-0.00276475
-0.00299337
-0.00318779
-0.00334419
-0.00345952
-0.00353195
-0.00356188
-0.00355349
-0.00351678
-0.00346986
-1.55285e-06
1.90344e-06
-2.73934e-05
-8.58935e-05
-0.000167092
-0.000266038
-0.000378614
-0.000500086
-0.000627502
-0.00075816
-0.000890002
-0.00102149
-0.00115146
-0.00127903
-0.00140345
-0.00152406
-0.0016402
-0.0017512
-0.00185628
-0.00195458
-0.00204515
-0.0021269
-0.00219869
-0.00225929
-0.00230744
-0.00234185
-0.00236128
-0.00236451
-0.00235046
-0.00231817
-0.00226686
-0.00219601
-0.00210534
-0.00199489
-0.00186506
-0.00171661
-0.00155072
-0.00136899
-0.00117344
-0.000966532
-0.00075112
-0.000530448
-0.000308092
-8.7909e-05
0.000126039
0.000329567
0.000518459
0.000688574
0.000835954
0.000956932
0.00104824
0.00110711
0.00113137
0.00111952
0.00107078
0.000985149
0.000863399
0.000707089
0.000518522
0.000300696
5.72284e-05
-0.000207726
-0.000489583
-0.000783431
-0.00108414
-0.00138649
-0.00168524
-0.00197524
-0.00225152
-0.00250935
-0.0027443
-0.00295233
-0.00312989
-0.00327403
-0.00338258
-0.00345456
-0.00349087
-0.00349485
-0.00347003
-0.00342301
3.11071e-05
3.09996e-05
9.80786e-07
-5.42008e-05
-0.000128683
-0.000218568
-0.000320348
-0.000430621
-0.000546671
-0.000666235
-0.000787522
-0.000909138
-0.00102999
-0.00114921
-0.00126605
-0.00137985
-0.00148995
-0.00159566
-0.00169623
-0.00179082
-0.00187851
-0.0019583
-0.00202909
-0.00208975
-0.00213909
-0.0021759
-0.002199
-0.00220727
-0.00219968
-0.0021753
-0.0021334
-0.00207345
-0.00199515
-0.00189852
-0.00178387
-0.00165188
-0.00150362
-0.00134053
-0.00116447
-0.000977704
-0.000782866
-0.00058298
-0.000381373
-0.000181644
1.24075e-05
0.000196861
0.000367764
0.000521228
0.000653536
0.000761245
0.000841289
0.000891076
0.000908578
0.000892401
0.000841847
0.000756942
0.00063846
0.00048791
0.000307503
0.000100106
-0.000130839
-0.00038139
-0.000647215
-0.000923691
-0.00120601
-0.0014893
-0.0017687
-0.00203948
-0.0022971
-0.00253729
-0.00275612
-0.00295007
-0.00311607
-0.00325168
-0.00335509
-0.00342544
-0.00346333
-0.00347074
-0.00344551
-0.00338602
0.000100379
8.99325e-05
5.45504e-05
-1.78897e-06
-7.44476e-05
-0.000160115
-0.00025583
-0.000358913
-0.000467108
-0.000578568
-0.000691814
-0.000805682
-0.000919241
-0.00103172
-0.00114247
-0.00125086
-0.00135629
-0.00145811
-0.00155558
-0.00164793
-0.00173427
-0.00181363
-0.00188497
-0.00194719
-0.00199916
-0.0020397
-0.00206768
-0.00208199
-0.0020816
-0.0020656
-0.00203323
-0.00198391
-0.00191731
-0.00183335
-0.00173227
-0.00161464
-0.00148138
-0.0013338
-0.00117363
-0.00100295
-0.000824217
-0.000640302
-0.000454355
-0.000269803
-9.02777e-05
8.04565e-05
0.000238596
0.000380391
0.000502249
0.000600834
0.000673176
0.000716762
0.000729625
0.00071042
0.000658474
0.000573829
0.00045725
0.000310221
0.000134906
-6.58944e-05
-0.000288827
-0.000530068
-0.000785426
-0.00105045
-0.00132053
-0.00159102
-0.00185734
-0.00211503
-0.00235989
-0.00258799
-0.00279575
-0.00298002
-0.00313807
-0.0032677
-0.0033672
-0.00343552
-0.00347271
-0.00347946
-0.00344962
-0.00337657
0.000199985
0.000172867
0.000127913
6.7068e-05
-6.92791e-06
-9.13016e-05
-0.00018363
-0.000281835
-0.000384181
-0.000489253
-0.000595921
-0.000703294
-0.000810659
-0.000917414
-0.00102302
-0.00112697
-0.00122871
-0.00132766
-0.00142314
-0.00151442
-0.00160064
-0.00168089
-0.00175414
-0.00181934
-0.00187535
-0.00192104
-0.00195525
-0.00197688
-0.00198486
-0.00197826
-0.00195624
-0.00191818
-0.00186364
-0.00179245
-0.00170472
-0.00160089
-0.00148176
-0.00134849
-0.00120265
-0.00104616
-0.000881401
-0.000711033
-0.000538088
-0.000365876
-0.000197921
-3.78906e-05
0.000110493
0.000243546
0.000357726
0.00044974
0.00051664
0.000555931
0.000565656
0.000544467
0.000491688
0.000407351
0.000292205
0.000147714
-2.39819e-05
-0.000220121
-0.000437394
-0.00067204
-0.000919948
-0.00117677
-0.00143803
-0.00169924
-0.001956
-0.00220409
-0.00243955
-0.00265873
-0.00285834
-0.00303551
-0.00318777
-0.00331307
-0.00340974
-0.00347652
-0.003513
-0.00351897
-0.00348584
-0.00340436
0.000323358
0.000275175
0.000217181
0.000148999
7.09964e-05
-1.4582e-05
-0.000105814
-0.00020121
-0.000299561
-0.000399898
-0.000501467
-0.000603686
-0.000706094
-0.000808293
-0.000909912
-0.00101056
-0.0011098
-0.00120711
-0.0013019
-0.00139346
-0.001481
-0.00156361
-0.0016403
-0.00171002
-0.00177164
-0.001824
-0.00186592
-0.00189626
-0.0019139
-0.00191782
-0.00190711
-0.00188103
-0.00183903
-0.0017808
-0.00170633
-0.0016159
-0.00151017
-0.00139015
-0.00125726
-0.0011133
-0.000960494
-0.000801411
-0.000638985
-0.000476444
-0.000317252
-0.000165035
-2.34954e-05
0.000103687
0.000212958
0.000300998
0.000364827
0.000401906
0.000410231
0.000388412
0.00033573
0.00025218
0.00013848
-3.92933e-06
-0.000172927
-0.000365767
-0.000579157
-0.000809356
-0.00105228
-0.00130364
-0.00155902
-0.00181403
-0.00206439
-0.00230605
-0.00253521
-0.00274844
-0.00294268
-0.00311526
-0.00326391
-0.0033867
-0.00348198
-0.00354835
-0.0035851
-0.00359143
-0.00355768
-0.00347358
0.000464273
0.000391816
0.000318191
0.000240384
0.000156168
6.72783e-05
-2.48386e-05
-0.000119275
-0.000215347
-0.000312542
-0.000410502
-0.000508978
-0.000607788
-0.000706766
-0.000805726
-0.000904429
-0.00100255
-0.00109968
-0.00119527
-0.00128869
-0.00137917
-0.00146582
-0.00154768
-0.00162366
-0.00169262
-0.00175336
-0.00180466
-0.00184527
-0.00187401
-0.00188975
-0.00189145
-0.00187823
-0.0018494
-0.00180451
-0.00174337
-0.00166612
-0.00157323
-0.00146558
-0.00134444
-0.00121148
-0.00106882
-0.000918935
-0.000764696
-0.000609286
-0.000456152
-0.000308928
-0.000171347
-4.71409e-05
6.00673e-05
0.000146873
0.000210202
0.000247418
0.000256419
0.00023572
0.00018452
0.000102741
-8.9514e-06
-0.000149157
-0.000315776
-0.000506072
-0.000716751
-0.000944066
-0.00118393
-0.00143204
-0.00168402
-0.0019355
-0.00218226
-0.00242035
-0.00264608
-0.00285617
-0.00304771
-0.00321819
-0.00336547
-0.00348774
-0.00358338
-0.00365092
-0.00368946
-0.00369792
-0.00366647
-0.00358492
0.000616561
0.000517612
0.000426456
0.000337273
0.000245126
0.000151257
5.66435e-05
-3.83901e-05
-0.000133687
-0.000229202
-0.00032498
-0.000421124
-0.00051775
-0.000614937
-0.000712702
-0.000810969
-0.000909546
-0.00100811
-0.00110622
-0.00120326
-0.00129851
-0.0013911
-0.00148004
-0.00156423
-0.00164248
-0.00171353
-0.00177606
-0.00182875
-0.00187026
-0.00189935
-0.00191481
-0.00191561
-0.00190088
-0.00186998
-0.00182255
-0.00175854
-0.00167827
-0.00158244
-0.00147217
-0.00134904
-0.00121503
-0.00107257
-0.000924465
-0.000773898
-0.000624328
-0.000479435
-0.000343026
-0.000218932
-0.000110899
-2.24673e-05
4.31396e-05
8.31314e-05
9.52532e-05
7.78758e-05
3.00662e-05
-4.83653e-05
-0.000156843
-0.000294032
-0.000457873
-0.000645644
-0.000854046
-0.00107931
-0.00131732
-0.00156375
-0.00181417
-0.00206422
-0.00230969
-0.00254663
-0.00277144
-0.00298091
-0.00317221
-0.00334296
-0.00349111
-0.00361493
-0.00371285
-0.0037834
-0.00382559
-0.00383823
-0.00381196
-0.0037373
0.000774319
0.000647391
0.000537345
0.000435501
0.000334132
0.000233994
0.000135592
3.86603e-05
-5.7182e-05
-0.000152358
-0.00024733
-0.00034256
-0.000438467
-0.000535389
-0.000633551
-0.000733048
-0.000833821
-0.000935656
-0.00103817
-0.00114082
-0.0012429
-0.00134353
-0.00144172
-0.00153631
-0.00162604
-0.00170957
-0.00178548
-0.00185229
-0.00190854
-0.00195279
-0.00198367
-0.00199995
-0.00200055
-0.00198464
-0.00195164
-0.00190131
-0.00183378
-0.00174958
-0.00164968
-0.00153552
-0.001409
-0.00127248
-0.00112874
-0.000980946
-0.000832616
-0.000687499
-0.000549514
-0.000422633
-0.000310767
-0.000217645
-0.000146693
-0.000100911
-8.27637e-05
-9.40822e-05
-0.000135986
-0.000208829
-0.000312172
-0.000444785
-0.000604678
-0.000789167
-0.000994957
-0.00121826
-0.00145491
-0.00170053
-0.00195064
-0.00220081
-0.00244679
-0.00268461
-0.00291066
-0.00312174
-0.00331509
-0.00348837
-0.00363958
-0.00376706
-0.0038693
-0.00394484
-0.00399269
-0.00401163
-0.00399317
-0.0039289
0.000931893
0.00077599
0.000646131
0.000530728
0.000419202
0.000311816
0.000208596
0.000108674
1.11185e-05
-8.49714e-05
-0.000180477
-0.000276224
-0.000372942
-0.000471223
-0.000571508
-0.00067406
-0.000778958
-0.000886087
-0.00099514
-0.00110561
-0.00121681
-0.00132785
-0.0014377
-0.00154514
-0.00164884
-0.00174731
-0.00183901
-0.00192232
-0.00199557
-0.00205714
-0.00210544
-0.00213902
-0.00215656
-0.00215701
-0.00213955
-0.00210373
-0.00204945
-0.00197707
-0.00188741
-0.00178174
-0.00166189
-0.00153012
-0.0013892
-0.00124232
-0.00109304
-0.000945205
-0.00080288
-0.000670208
-0.000551311
-0.000450153
-0.000370416
-0.000315368
-0.000287746
-0.000289649
-0.000322446
-0.000386719
-0.000482225
-0.00060789
-0.000761843
-0.000941471
-0.00114351
-0.00136416
-0.00159922
-0.00184424
-0.00209465
-0.00234594
-0.00259376
-0.00283407
-0.0030632
-0.0032779
-0.0034754
-0.00365335
-0.00380978
-0.00394305
-0.00405168
-0.00413428
-0.00418983
-0.00421712
-0.00420877
-0.00415767
0.00108375
0.000898249
0.000747997
0.000618453
0.00049613
0.000380775
0.000271924
0.000168086
6.77675e-05
-3.04186e-05
-0.000127777
-0.000225498
-0.000324618
-0.000425985
-0.00053025
-0.000637846
-0.000748981
-0.000863639
-0.000981576
-0.00110232
-0.00122519
-0.00134928
-0.00147349
-0.00159653
-0.00171696
-0.00183317
-0.00194343
-0.00204594
-0.00213883
-0.00222025
-0.00228837
-0.00234147
-0.00237799
-0.0023966
-0.00239624
-0.00237619
-0.00233614
-0.00227622
-0.00219706
-0.00209981
-0.00198614
-0.00185826
-0.0017189
-0.00157126
-0.00141896
-0.00126597
-0.0011165
-0.000974893
-0.000845529
-0.000732652
-0.000640254
-0.000571935
-0.000530773
-0.000519204
-0.000538928
-0.000590828
-0.000674932
-0.000790394
-0.00093552
-0.00110782
-0.00130411
-0.00152059
-0.00175305
-0.00199695
-0.00224764
-0.00250047
-0.00275098
-0.00299498
-0.00322869
-0.00344877
-0.00365234
-0.00383699
-0.00400074
-0.00414191
-0.00425904
-0.00435074
-0.004416
-0.00445361
-0.00445739
-0.00442166
0.00122441
0.001009
0.000838048
0.000694035
0.000560512
0.00043668
0.000321555
0.000213005
0.000108963
7.54462e-06
-9.29799e-05
-0.000194163
-0.000297346
-0.000403629
-0.000513867
-0.000628655
-0.000748328
-0.000872957
-0.00100236
-0.00113608
-0.00127344
-0.00141348
-0.00155506
-0.00169677
-0.00183705
-0.00197412
-0.00210608
-0.0022309
-0.00234649
-0.00245072
-0.0025415
-0.00261683
-0.00267484
-0.00271392
-0.00273271
-0.00273021
-0.00270585
-0.00265952
-0.00259163
-0.00250316
-0.0023956
-0.0022711
-0.00213232
-0.00198247
-0.00182523
-0.00166468
-0.0015052
-0.00135137
-0.00120784
-0.00107919
-0.000969774
-0.000883593
-0.000824142
-0.000794279
-0.000796119
-0.000830941
-0.000899133
-0.00100016
-0.0011326
-0.00129414
-0.00148173
-0.00169164
-0.00191965
-0.00216116
-0.0024114
-0.0026656
-0.00291911
-0.00316757
-0.00340702
-0.00363394
-0.0038453
-0.00403858
-0.00421166
-0.00436281
-0.0044905
-0.00459337
-0.00467029
-0.00472007
-0.00473777
-0.00471918
0.0013484
0.00110303
0.000911317
0.000752716
0.00060778
0.000475126
0.000353215
0.000239255
0.000130586
2.48246e-05
-8.01886e-05
-0.000186367
-0.00029535
-0.000408485
-0.000526823
-0.000651116
-0.000781813
-0.000919069
-0.00106274
-0.0012124
-0.00136734
-0.00152656
-0.00168882
-0.00185262
-0.00201622
-0.00217768
-0.00233488
-0.00248555
-0.00262734
-0.00275783
-0.00287463
-0.0029754
-0.00305797
-0.00312038
-0.00316094
-0.00317835
-0.00317172
-0.00314067
-0.00308535
-0.00300655
-0.00290546
-0.00278422
-0.00264539
-0.00249215
-0.00232822
-0.00215778
-0.0019854
-0.0018159
-0.00165425
-0.00150538
-0.00137409
-0.00126483
-0.00118161
-0.0011278
-0.00110604
-0.0011181
-0.00116483
-0.00124614
-0.00136095
-0.00150724
-0.00168215
-0.0018821
-0.00210288
-0.00233987
-0.00258819
-0.00284291
-0.00309917
-0.00335239
-0.00359834
-0.00383328
-0.00405395
-0.0042576
-0.00444195
-0.00460509
-0.0047454
-0.00486143
-0.00495194
-0.00501567
-0.00504889
-0.00504892
0.00145023
0.0011751
0.000962775
0.000789642
0.000633229
0.000491531
0.000362419
0.000242412
0.00012825
1.70386e-05
-9.38115e-05
-0.000206572
-0.000323175
-0.000445209
-0.000573913
-0.000710185
-0.000854582
-0.00100733
-0.00116832
-0.00133714
-0.00151303
-0.00169495
-0.00188155
-0.0020712
-0.00226199
-0.00245178
-0.00263821
-0.00281875
-0.00299075
-0.00315147
-0.00329819
-0.00342821
-0.003539
-0.00362822
-0.00369382
-0.00373413
-0.00374791
-0.00373444
-0.00369356
-0.00362571
-0.00353217
-0.00341459
-0.00327548
-0.00311799
-0.00294584
-0.00276331
-0.00257516
-0.00238644
-0.00220245
-0.00202856
-0.00187003
-0.00173186
-0.00161864
-0.00153436
-0.0014823
-0.00146485
-0.00148348
-0.00153862
-0.00162968
-0.00175505
-0.00191218
-0.00209767
-0.00230743
-0.00253683
-0.00278091
-0.00303454
-0.00329266
-0.00355039
-0.0038032
-0.00404701
-0.00427824
-0.00449385
-0.00469126
-0.00486835
-0.00502329
-0.00515446
-0.00526045
-0.00533976
-0.00539002
-0.00540998
0.00152441
0.00121997
0.000987354
0.000799891
0.000632057
0.000481184
0.000344519
0.000217869
9.73577e-05
-2.04256e-05
-0.000138501
-0.000259495
-0.00038563
-0.000518723
-0.000660195
-0.000811083
-0.000972041
-0.00114336
-0.00132496
-0.00151641
-0.00171693
-0.00192539
-0.00214034
-0.00235998
-0.00258222
-0.00280472
-0.00302484
-0.00323976
-0.00344651
-0.00364202
-0.00382316
-0.00398687
-0.0041302
-0.00425039
-0.00434499
-0.00441189
-0.00444945
-0.00445657
-0.00443274
-0.00437807
-0.00429346
-0.00418043
-0.00404129
-0.00387908
-0.0036975
-0.0035009
-0.00329417
-0.00308263
-0.00287194
-0.00266788
-0.00247627
-0.00230273
-0.00215253
-0.00203038
-0.00194033
-0.00188554
-0.00186821
-0.0018895
-0.00194942
-0.00204692
-0.00217987
-0.0023452
-0.00253899
-0.00275667
-0.00299321
-0.00324333
-0.00350169
-0.00376307
-0.00402257
-0.0042757
-0.00451846
-0.00474739
-0.00495954
-0.00515243
-0.00532394
-0.00547221
-0.0055955
-0.00569208
-0.00576081
-0.00580191
0.00156544
0.00123237
0.000979976
0.00077851
0.000599408
0.000439296
0.000294763
0.000160889
3.31638e-05
-9.23434e-05
-0.000219084
-0.000350037
-0.000487707
-0.000634136
-0.000790918
-0.000959217
-0.00113978
-0.00133296
-0.00153868
-0.00175651
-0.00198562
-0.00222479
-0.00247243
-0.00272659
-0.00298499
-0.00324502
-0.00350377
-0.00375813
-0.00400475
-0.00424017
-0.00446089
-0.0046634
-0.00484428
-0.00500033
-0.00512861
-0.00522655
-0.00529204
-0.00532352
-0.00532004
-0.00528133
-0.00520788
-0.00510096
-0.00496262
-0.00479573
-0.00460392
-0.00439155
-0.00416363
-0.00392574
-0.00368386
-0.00344428
-0.00321337
-0.00299745
-0.00280257
-0.00263429
-0.00249755
-0.00239644
-0.00233408
-0.00231249
-0.00233252
-0.00239381
-0.00249482
-0.00263292
-0.00280449
-0.00300512
-0.00322974
-0.00347293
-0.00372905
-0.00399251
-0.00425796
-0.0045204
-0.00477529
-0.00501866
-0.00524704
-0.00545748
-0.00564743
-0.0058147
-0.00595714
-0.00607264
-0.00616127
-0.00622471
0.00156787
0.0012071
0.000935595
0.000720562
0.000530421
0.000361052
0.000208359
6.66736e-05
-6.91547e-05
-0.000203582
-0.00034049
-0.000483206
-0.000634513
-0.000796668
-0.000971435
-0.0011601
-0.0013635
-0.00158202
-0.00181562
-0.00206383
-0.00232577
-0.00260012
-0.00288516
-0.00317877
-0.00347843
-0.00378128
-0.00408413
-0.00438349
-0.00467567
-0.00495678
-0.00522287
-0.00546997
-0.00569415
-0.0058917
-0.00605914
-0.00619336
-0.00629172
-0.00635213
-0.00637311
-0.00635393
-0.00629464
-0.0061961
-0.00606006
-0.00588912
-0.00568679
-0.00545739
-0.00520599
-0.00493839
-0.00466092
-0.00438033
-0.00410363
-0.00383788
-0.00358999
-0.00336652
-0.00317343
-0.00301592
-0.0028982
-0.00282337
-0.00279329
-0.00280851
-0.0028683
-0.00297062
-0.0031123
-0.00328917
-0.00349624
-0.00372794
-0.00397837
-0.00424152
-0.00451148
-0.00478265
-0.00504986
-0.00530846
-0.00555434
-0.00578392
-0.00599413
-0.00618226
-0.00634567
-0.00648176
-0.00659177
-0.00667882
0.00152634
0.00113905
0.000849253
0.000621184
0.000420294
0.00024168
8.05367e-05
-6.95653e-05
-0.000214423
-0.000359019
-0.000507664
-0.000664029
-0.00083117
-0.00101156
-0.00120711
-0.00141925
-0.00164887
-0.00189642
-0.00216186
-0.00244471
-0.002744
-0.00305832
-0.00338581
-0.00372414
-0.00407059
-0.00442201
-0.00477489
-0.00512538
-0.00546938
-0.00580256
-0.00612048
-0.00641864
-0.0066926
-0.00693804
-0.00715089
-0.00732745
-0.00746445
-0.00755919
-0.0076096
-0.00761438
-0.00757303
-0.00748595
-0.00735445
-0.00718083
-0.00696834
-0.0067212
-0.0064445
-0.00614419
-0.00582691
-0.00549991
-0.00517082
-0.00484751
-0.00453784
-0.00424945
-0.0039895
-0.00376444
-0.00357981
-0.00344
-0.00334811
-0.00330586
-0.00331351
-0.00336986
-0.00347238
-0.00361727
-0.00379973
-0.00401411
-0.00425426
-0.00451368
-0.0047859
-0.00506457
-0.00534376
-0.005618
-0.00588237
-0.00613253
-0.00636468
-0.00657552
-0.00676171
-0.0069201
-0.00705302
-0.00716508
0.00143563
0.00102325
0.000716135
0.000475648
0.000264348
7.65202e-05
-9.33732e-05
-0.000252527
-0.000407384
-0.000563456
-0.000725477
-0.000897458
-0.00108272
-0.00128395
-0.00150322
-0.00174206
-0.00200146
-0.0022819
-0.00258336
-0.00290531
-0.00324673
-0.00360609
-0.00398139
-0.0043701
-0.00476926
-0.00517542
-0.00558473
-0.00599298
-0.0063956
-0.00678781
-0.00716464
-0.00752102
-0.00785191
-0.00815237
-0.00841766
-0.0086434
-0.00882562
-0.00896093
-0.00904659
-0.0090806
-0.00906185
-0.00899015
-0.00886629
-0.00869215
-0.00847064
-0.00820577
-0.00790258
-0.0075671
-0.00720625
-0.0068277
-0.00643975
-0.00605108
-0.00567058
-0.00530707
-0.00496905
-0.00466441
-0.00440021
-0.00418236
-0.0040155
-0.00390276
-0.00384567
-0.00384413
-0.00389647
-0.00399948
-0.00414867
-0.00433843
-0.00456236
-0.00481353
-0.00508476
-0.00536891
-0.00565911
-0.00594892
-0.00623244
-0.00650437
-0.00676005
-0.00699536
-0.00720617
-0.0073886
-0.00754609
-0.00768473
0.00129073
0.000854935
0.000531638
0.000279429
5.8095e-05
-0.000138908
-0.000317866
-0.00048674
-0.000652618
-0.00082153
-0.000998633
-0.00118827
-0.00139404
-0.00161881
-0.00186482
-0.00213373
-0.0024266
-0.00274394
-0.00308576
-0.00345148
-0.00384003
-0.00424977
-0.00467852
-0.00512357
-0.0055817
-0.00604915
-0.00652173
-0.0069948
-0.00746336
-0.00792209
-0.00836546
-0.00878782
-0.00918344
-0.00954671
-0.00987216
-0.0101547
-0.0103895
-0.0105724
-0.0106999
-0.0107693
-0.0107787
-0.0107272
-0.0106149
-0.0104433
-0.0102148
-0.0099331
-0.00960304
-0.00923068
-0.00882312
-0.00838844
-0.00793555
-0.00747395
-0.0070136
-0.00656458
-0.00613684
-0.00573989
-0.0053825
-0.00507241
-0.00481602
-0.00461819
-0.00448205
-0.0044089
-0.0043982
-0.00444758
-0.00455307
-0.00470924
-0.00490954
-0.00514656
-0.00541243
-0.00569909
-0.00599858
-0.00630332
-0.00660622
-0.00690084
-0.00718143
-0.00744292
-0.00768017
-0.00788846
-0.00807231
-0.00823931
0.00108694
0.000629642
0.000291435
2.8275e-05
-0.000202684
-0.000408823
-0.000597183
-0.000776483
-0.000954448
-0.00113762
-0.00133157
-0.00154098
-0.00176968
-0.00202078
-0.00229667
-0.0025991
-0.00292922
-0.00328762
-0.00367427
-0.00408861
-0.00452947
-0.00499511
-0.00548319
-0.0059908
-0.00651445
-0.00705007
-0.00759308
-0.00813843
-0.00868063
-0.00921381
-0.00973184
-0.0102284
-0.0106971
-0.0111315
-0.0115255
-0.0118729
-0.0121683
-0.0124066
-0.0125834
-0.0126951
-0.0127389
-0.0127133
-0.0126176
-0.0124526
-0.0122201
-0.0119234
-0.011567
-0.011157
-0.0107006
-0.010206
-0.00968278
-0.00914124
-0.00859238
-0.0080476
-0.00751839
-0.00701603
-0.00655122
-0.00613372
-0.00577204
-0.00547308
-0.00524192
-0.00508162
-0.00499309
-0.00497516
-0.0050246
-0.00513638
-0.00530391
-0.00551938
-0.00577419
-0.00605926
-0.00636542
-0.00668374
-0.00700576
-0.00732363
-0.00763033
-0.00791958
-0.00818511
-0.00842113
-0.00863326
-0.00883065
0.000819895
0.000343258
-8.45017e-06
-0.000281724
-0.00052187
-0.000737105
-0.000935222
-0.00112569
-0.00131685
-0.00151575
-0.00172836
-0.0019597
-0.00221385
-0.00249411
-0.00280304
-0.00314252
-0.00351378
-0.00391745
-0.00435353
-0.00482142
-0.0053199
-0.00584712
-0.00640058
-0.00697714
-0.00757306
-0.00818393
-0.00880481
-0.00943016
-0.010054
-0.0106699
-0.011271
-0.0118504
-0.0124009
-0.0129152
-0.0133864
-0.0138075
-0.0141721
-0.0144741
-0.0147081
-0.0148697
-0.0149551
-0.0149619
-0.0148886
-0.0147351
-0.0145026
-0.0141938
-0.013813
-0.0133657
-0.0128593
-0.0123022
-0.0117043
-0.0110767
-0.0104315
-0.00978127
-0.00913918
-0.00851836
-0.00793161
-0.00739097
-0.00690732
-0.00648997
-0.00614632
-0.00588158
-0.00569856
-0.00559761
-0.00557662
-0.0056312
-0.00575494
-0.00593974
-0.00617626
-0.00645435
-0.0067635
-0.00709323
-0.00743346
-0.00777472
-0.00810844
-0.00842692
-0.00872251
-0.00898821
-0.00923069
-0.00946076
0.000485693
-7.89539e-06
-0.000371567
-0.000654056
-0.000902922
-0.00112721
-0.00133546
-0.00153786
-0.00174336
-0.00195948
-0.00219261
-0.00244806
-0.00273019
-0.00304248
-0.00338767
-0.00376775
-0.00418405
-0.00463725
-0.00512738
-0.00565383
-0.0062153
-0.00680984
-0.00743478
-0.0080868
-0.00876183
-0.00945517
-0.0101614
-0.0108746
-0.0115882
-0.0122952
-0.012988
-0.0136591
-0.0143002
-0.0149036
-0.015461
-0.0159647
-0.0164073
-0.0167817
-0.0170814
-0.017301
-0.0174358
-0.0174822
-0.0174378
-0.0173017
-0.0170743
-0.0167576
-0.0163552
-0.0158724
-0.0153163
-0.0146954
-0.01402
-0.0133016
-0.0125533
-0.0117891
-0.0110235
-0.0102718
-0.0095488
-0.00886916
-0.00824638
-0.0076925
-0.00721765
-0.00682965
-0.00653366
-0.006332
-0.00622411
-0.00620659
-0.00627349
-0.00641657
-0.00662586
-0.00689011
-0.00719732
-0.00753531
-0.00789211
-0.00825637
-0.00861767
-0.00896667
-0.00929406
-0.00959141
-0.00986648
-0.0101318
8.09415e-05
-0.000426993
-0.00080097
-0.00109172
-0.00134881
-0.00158211
-0.00180088
-0.00201599
-0.00223698
-0.00247186
-0.00272736
-0.00300913
-0.00332175
-0.00366895
-0.00405358
-0.0044778
-0.00494303
-0.00545
-0.00599879
-0.00658876
-0.00721856
-0.00788614
-0.00858867
-0.00932259
-0.0100836
-0.0108665
-0.0116657
-0.0124746
-0.0132861
-0.0140924
-0.0148856
-0.015657
-0.0163977
-0.017099
-0.0177517
-0.0183471
-0.0188766
-0.0193322
-0.0197064
-0.0199925
-0.0201847
-0.0202784
-0.0202702
-0.0201582
-0.0199419
-0.0196224
-0.0192027
-0.0186876
-0.0180837
-0.0173994
-0.0166452
-0.0158331
-0.0149768
-0.0140915
-0.0131933
-0.0122992
-0.0114266
-0.0105926
-0.00981359
-0.00910467
-0.00847913
-0.00794784
-0.00751882
-0.00719691
-0.00698359
-0.00687692
-0.00687175
-0.00696003
-0.00713125
-0.0073731
-0.00767205
-0.00801398
-0.00838483
-0.00877105
-0.0091601
-0.00954066
-0.00990149
-0.0102325
-0.0105426
-0.010846
-0.000397157
-0.000916634
-0.00129914
-0.00159714
-0.00186194
-0.0021042
-0.00233387
-0.00256248
-0.00280013
-0.00305526
-0.00333499
-0.00364524
-0.00399087
-0.00437577
-0.00480301
-0.00527484
-0.0057928
-0.0063577
-0.00696965
-0.007628
-0.00833136
-0.00907757
-0.00986363
-0.0106858
-0.0115393
-0.0124189
-0.0133183
-0.0142304
-0.0151476
-0.0160616
-0.0169633
-0.0178435
-0.0186925
-0.0195004
-0.0202571
-0.020953
-0.0215782
-0.0221237
-0.0225809
-0.0229418
-0.0231998
-0.0233489
-0.0233846
-0.023304
-0.0231056
-0.0227896
-0.0223581
-0.0218153
-0.0211671
-0.0204218
-0.0195895
-0.0186827
-0.0177157
-0.0167043
-0.0156664
-0.0146205
-0.0135864
-0.0125838
-0.0116321
-0.0107499
-0.00995395
-0.00925859
-0.0086753
-0.00821202
-0.00787284
-0.00765786
-0.00756323
-0.00758141
-0.00770168
-0.00791074
-0.00819347
-0.00853373
-0.00891508
-0.00932147
-0.00973791
-0.0101508
-0.0105466
-0.0109133
-0.0112608
-0.0116054
-0.000950739
-0.00147878
-0.00186795
-0.00217213
-0.0024441
-0.00269524
-0.00293617
-0.00317907
-0.00343451
-0.00371138
-0.00401713
-0.00435799
-0.00473904
-0.00516438
-0.00563724
-0.00616003
-0.00673439
-0.00736121
-0.00804064
-0.00877204
-0.00955396
-0.0103841
-0.0112594
-0.0121757
-0.0131282
-0.0141111
-0.0151175
-0.0161401
-0.0171705
-0.0181995
-0.0192177
-0.0202147
-0.0211799
-0.0221025
-0.0229715
-0.023776
-0.0245052
-0.0251488
-0.0256972
-0.0261412
-0.026473
-0.0266854
-0.026773
-0.0267316
-0.0265585
-0.0262531
-0.0258165
-0.0252519
-0.0245647
-0.0237625
-0.0228553
-0.0218553
-0.0207772
-0.0196375
-0.0184552
-0.0172505
-0.0160452
-0.0148617
-0.0137226
-0.0126499
-0.0116643
-0.010784
-0.0100246
-0.00939758
-0.00891051
-0.00856613
-0.00836249
-0.0082931
-0.00834736
-0.00851122
-0.00876804
-0.00909951
-0.00948662
-0.00991051
-0.0103534
-0.0107989
-0.011231
-0.0116354
-0.012023
-0.0124122
-0.00158122
-0.00211469
-0.00250856
-0.00281781
-0.00309636
-0.00335629
-0.00360884
-0.00386675
-0.00414108
-0.0044411
-0.00477461
-0.00514809
-0.00556686
-0.00603523
-0.00655659
-0.00713349
-0.00776769
-0.00846019
-0.00921115
-0.0100199
-0.0108851
-0.0118042
-0.0127739
-0.01379
-0.0148473
-0.0159394
-0.0170593
-0.0181989
-0.0193491
-0.0205002
-0.0216417
-0.0227626
-0.0238512
-0.0248959
-0.0258844
-0.0268049
-0.0276455
-0.0283947
-0.0290417
-0.0295764
-0.0299895
-0.0302731
-0.0304202
-0.0304257
-0.0302858
-0.0299988
-0.0295646
-0.0289856
-0.0282663
-0.0274134
-0.0264365
-0.0253474
-0.0241606
-0.0228934
-0.0215652
-0.0201978
-0.0188147
-0.0174408
-0.0161018
-0.0148233
-0.0136301
-0.0125447
-0.0115873
-0.0107737
-0.0101156
-0.00961909
-0.00928495
-0.00910835
-0.00907935
-0.0091835
-0.00940277
-0.0097167
-0.0101035
-0.0105412
-0.0110088
-0.0114869
-0.0119564
-0.0124003
-0.0128308
-0.0132682
-0.00228923
-0.00282489
-0.00322143
-0.00353459
-0.0038191
-0.00408767
-0.00435214
-0.00462574
-0.00491998
-0.00524449
-0.00560736
-0.00601534
-0.00647397
-0.00698775
-0.00756024
-0.00819416
-0.00889137
-0.00965294
-0.0104791
-0.0113693
-0.0123218
-0.0133343
-0.0144032
-0.015524
-0.0166912
-0.017898
-0.0191369
-0.020399
-0.0216749
-0.0229539
-0.0242248
-0.0254756
-0.0266938
-0.0278665
-0.0289808
-0.0300234
-0.0309816
-0.0318428
-0.0325949
-0.0332268
-0.0337281
-0.0340898
-0.0343037
-0.0343637
-0.0342648
-0.0340042
-0.0335807
-0.0329956
-0.0322524
-0.0313568
-0.0303177
-0.0291461
-0.0278564
-0.0264656
-0.0249936
-0.0234631
-0.0218992
-0.0203289
-0.0187809
-0.0172842
-0.0158677
-0.0145588
-0.0133824
-0.0123596
-0.0115067
-0.0108342
-0.0103464
-0.010041
-0.00990936
-0.00993712
-0.0101052
-0.010391
-0.01077
-0.0112166
-0.0117064
-0.0122164
-0.012724
-0.0132093
-0.0136854
-0.0141748
-0.0030746
-0.00360912
-0.00400623
-0.0043221
-0.0046119
-0.00488893
-0.00516554
-0.00545544
-0.00577051
-0.0061207
-0.00651438
-0.00695855
-0.00745895
-0.00802028
-0.00864627
-0.00933976
-0.0101028
-0.0109364
-0.011841
-0.0128159
-0.0138595
-0.0149692
-0.0161413
-0.017371
-0.0186524
-0.0199784
-0.0213407
-0.0227302
-0.0241364
-0.0255481
-0.026953
-0.0283385
-0.0296909
-0.0309964
-0.0322411
-0.0334106
-0.0344912
-0.0354692
-0.0363315
-0.0370659
-0.0376611
-0.0381068
-0.038394
-0.0385154
-0.038465
-0.0382387
-0.0378345
-0.0372524
-0.0364946
-0.035566
-0.0344741
-0.0332293
-0.0318451
-0.0303381
-0.0287281
-0.0270383
-0.0252948
-0.0235264
-0.0217641
-0.0200405
-0.0183884
-0.0168401
-0.0154258
-0.0141722
-0.0131011
-0.0122283
-0.0115626
-0.0111051
-0.0108495
-0.0107821
-0.0108832
-0.0111285
-0.0114904
-0.0119398
-0.0124483
-0.0129889
-0.0135351
-0.0140633
-0.0145878
-0.0151331
-0.00393632
-0.0044663
-0.00486186
-0.00517919
-0.00547357
-0.00575879
-0.00604771
-0.00635439
-0.00669106
-0.00706796
-0.00749372
-0.00797553
-0.00851936
-0.00913007
-0.00981155
-0.0105668
-0.0113979
-0.0123061
-0.0132918
-0.0143543
-0.0154919
-0.0167019
-0.0179803
-0.0193222
-0.0207212
-0.0221696
-0.0236589
-0.0251791
-0.026719
-0.0282666
-0.0298089
-0.0313322
-0.0328219
-0.0342633
-0.0356414
-0.0369409
-0.038147
-0.0392451
-0.0402211
-0.0410618
-0.041755
-0.0422894
-0.0426552
-0.042844
-0.0428488
-0.0426646
-0.0422881
-0.0417182
-0.040956
-0.040005
-0.0388716
-0.037565
-0.0360976
-0.034485
-0.0327467
-0.0309055
-0.0289881
-0.0270245
-0.0250477
-0.0230931
-0.0211973
-0.0193975
-0.0177292
-0.0162253
-0.0149139
-0.0138168
-0.0129484
-0.0123145
-0.0119118
-0.0117285
-0.0117451
-0.0119354
-0.0122693
-0.012714
-0.0132365
-0.0138056
-0.0143903
-0.0149628
-0.0155383
-0.0161437
-0.00487253
-0.00539456
-0.0057864
-0.00610392
-0.0064021
-0.00669519
-0.00699644
-0.00732026
-0.00767915
-0.0080836
-0.00854244
-0.00906308
-0.00965166
-0.0103132
-0.0110518
-0.0118704
-0.0127715
-0.0137562
-0.014825
-0.0159771
-0.0172108
-0.0185233
-0.0199104
-0.0213666
-0.0228854
-0.0244586
-0.0260769
-0.0277297
-0.0294053
-0.0310906
-0.032772
-0.0344345
-0.036063
-0.0376416
-0.0391543
-0.040585
-0.0419179
-0.0431374
-0.0442288
-0.0451778
-0.0459715
-0.0465978
-0.0470461
-0.047307
-0.0473728
-0.0472374
-0.0468965
-0.046348
-0.0455917
-0.0446299
-0.0434675
-0.0421123
-0.0405752
-0.0388707
-0.0370172
-0.0350368
-0.0329559
-0.0308051
-0.0286186
-0.026434
-0.0242917
-0.0222328
-0.0202987
-0.0185283
-0.0169567
-0.0156127
-0.0145173
-0.013682
-0.013108
-0.0127865
-0.0126987
-0.0128178
-0.0131111
-0.0135418
-0.0140727
-0.0146674
-0.0152898
-0.0159077
-0.0165367
-0.0172064
-0.00588051
-0.0063912
-0.00677717
-0.00709356
-0.00739471