/*--------------------------------*- C++ -*----------------------------------*\
  =========                 |
  \\      /  F ield         | OpenFOAM: The Open Source CFD Toolbox
   \\    /   O peration     | Website:  https://openfoam.org
    \\  /    A nd           | Version:  7
     \\/     M anipulation  |
\*---------------------------------------------------------------------------*/
FoamFile
{
    version     2.0;
    format      ascii;
    class       surfaceScalarField;
    location    "2.2";
    object      phi;
}
// * * * * * * * * * * * * * * * * * * * * * * * * * * * * * * * * * * * * * //

dimensions      [0 3 -1 0 0 0 0];

internalField   nonuniform List<scalar> 
12640
(
2.23414e-10
-2.27656e-10
6.21716e-10
-3.98277e-10
9.44136e-10
-3.22381e-10
1.05676e-09
-1.12634e-10
8.99819e-10
1.5692e-10
4.53672e-10
4.4616e-10
-2.78752e-10
7.32444e-10
-1.28241e-09
1.00366e-09
-2.53579e-09
1.25336e-09
-4.01428e-09
1.4785e-09
-5.69233e-09
1.67806e-09
-7.54458e-09
1.85225e-09
-9.54657e-09
2.002e-09
-1.16752e-08
2.12861e-09
-1.39088e-08
2.23358e-09
-1.62272e-08
2.31845e-09
-1.86119e-08
2.38468e-09
-2.10455e-08
2.43366e-09
-2.35121e-08
2.46659e-09
-2.59966e-08
2.4845e-09
-2.84849e-08
2.48823e-09
-3.09633e-08
2.47843e-09
-3.34189e-08
2.45557e-09
-3.58388e-08
2.41996e-09
-3.82106e-08
2.37179e-09
-4.05217e-08
2.31111e-09
-4.27596e-08
2.23788e-09
-4.49116e-08
2.15203e-09
-4.69651e-08
2.05343e-09
-4.8907e-08
1.94196e-09
-5.07246e-08
1.81756e-09
-5.24048e-08
1.6802e-09
-5.39347e-08
1.52993e-09
-5.53016e-08
1.36695e-09
-5.64932e-08
1.19155e-09
-5.74974e-08
1.00422e-09
-5.8303e-08
8.05604e-10
-5.88995e-08
5.96525e-10
-5.92776e-08
3.78019e-10
-5.94289e-08
1.51324e-10
-5.93468e-08
-8.21199e-11
-5.90261e-08
-3.20669e-10
-5.84636e-08
-5.62482e-10
-5.76581e-08
-8.05529e-10
-5.66105e-08
-1.04762e-09
-5.53241e-08
-1.28642e-09
-5.38046e-08
-1.51948e-09
-5.20603e-08
-1.74427e-09
-5.01021e-08
-1.9582e-09
-4.79434e-08
-2.15868e-09
-4.56003e-08
-2.34317e-09
-4.30911e-08
-2.50919e-09
-4.04367e-08
-2.65439e-09
-3.76601e-08
-2.77661e-09
-3.47862e-08
-2.87388e-09
-3.18417e-08
-2.94452e-09
-2.88545e-08
-2.98713e-09
-2.58539e-08
-3.00066e-09
-2.28695e-08
-2.98442e-09
-1.99314e-08
-2.9381e-09
-1.70696e-08
-2.8618e-09
-1.43135e-08
-2.75607e-09
-1.16916e-08
-2.62184e-09
-9.23116e-09
-2.46048e-09
-6.95738e-09
-2.27378e-09
-4.89343e-09
-2.06394e-09
-3.05984e-09
-1.83358e-09
-1.47408e-09
-1.58576e-09
-1.50103e-10
-1.32398e-09
9.02186e-10
-1.05229e-09
1.67752e-09
-7.75333e-10
2.1762e-09
-4.98661e-10
2.40526e-09
-2.29054e-10
2.38035e-09
2.49109e-11
2.12872e-09
2.51626e-10
1.69363e-09
4.35099e-10
1.14119e-09
5.52445e-10
5.71316e-10
5.69879e-10
1.33603e-10
4.37712e-10
1.33598e-10
3.98315e-10
-6.25937e-10
9.13473e-10
-9.1343e-10
1.15278e-09
-5.61736e-10
8.77806e-10
1.62321e-10
-4.57407e-11
1.08048e-09
-1.67689e-09
2.07733e-09
-4.02507e-09
3.08064e-09
-7.06709e-09
4.04568e-09
-1.076e-08
4.94628e-09
-1.50495e-08
5.76802e-09
-1.98755e-08
6.50404e-09
-2.51756e-08
7.15237e-09
-3.08878e-08
7.71416e-09
-3.69516e-08
8.19244e-09
-4.33093e-08
8.5913e-09
-4.99062e-08
8.91531e-09
-5.66906e-08
9.1691e-09
-6.3614e-08
9.35707e-09
-7.06306e-08
9.48323e-09
-7.76972e-08
9.55105e-09
-8.47724e-08
9.56347e-09
-9.18168e-08
9.5228e-09
-9.8792e-08
9.43078e-09
-1.05661e-07
9.28863e-09
-1.12386e-07
9.09711e-09
-1.18931e-07
8.8566e-09
-1.25261e-07
8.56719e-09
-1.31338e-07
8.22881e-09
-1.37125e-07
7.84127e-09
-1.42588e-07
7.40444e-09
-1.47689e-07
6.9183e-09
-1.52392e-07
6.38307e-09
-1.56661e-07
5.7993e-09
-1.60462e-07
5.16794e-09
-1.63761e-07
4.49048e-09
-1.66526e-07
3.76895e-09
-1.68726e-07
3.00602e-09
-1.70334e-07
2.20504e-09
-1.71326e-07
1.37007e-09
-1.71681e-07
5.05896e-10
-1.71381e-07
-3.81939e-10
-1.70415e-07
-1.28719e-09
-1.68774e-07
-2.20292e-09
-1.66458e-07
-3.12154e-09
-1.63471e-07
-4.03488e-09
-1.59823e-07
-4.93431e-09
-1.55532e-07
-5.81078e-09
-1.50621e-07
-6.65497e-09
-1.45122e-07
-7.45743e-09
-1.39072e-07
-8.20871e-09
-1.32516e-07
-8.89951e-09
-1.25504e-07
-9.52084e-09
-1.18094e-07
-1.00642e-08
-1.10349e-07
-1.05218e-08
-1.02336e-07
-1.08865e-08
-9.41286e-08
-1.11522e-08
-8.58017e-08
-1.13141e-08
-7.74341e-08
-1.13682e-08
-6.91063e-08
-1.13123e-08
-6.08991e-08
-1.11452e-08
-5.28933e-08
-1.08676e-08
-4.51679e-08
-1.04815e-08
-3.77993e-08
-9.99042e-09
-3.08602e-08
-9.39966e-09
-2.4418e-08
-8.71598e-09
-1.85341e-08
-7.94778e-09
-1.32627e-08
-7.10505e-09
-8.64894e-09
-6.19948e-09
-4.7283e-09
-5.24461e-09
-1.52458e-09
-4.256e-09
9.51752e-10
-3.25166e-09
2.70591e-09
-2.25281e-09
3.7617e-09
-1.28483e-09
4.16572e-09
-3.79076e-10
3.99259e-09
4.2477e-10
3.35227e-09
1.0754e-09
2.39889e-09
1.5058e-09
1.33943e-09
1.62933e-09
4.35782e-10
1.3414e-09
5.69375e-10
3.27822e-10
-9.53723e-10
5.69936e-10
-1.15559e-09
2.89925e-10
-2.81744e-10
-7.85292e-10
1.23755e-09
-2.81938e-09
3.11458e-09
-5.89161e-09
5.14956e-09
-1.00189e-08
7.20791e-09
-1.51751e-08
9.20192e-09
-2.13053e-08
1.10765e-08
-2.8336e-08
1.27987e-08
-3.61831e-08
1.43511e-08
-4.47572e-08
1.57264e-08
-5.39671e-08
1.69241e-08
-6.37228e-08
1.79481e-08
-7.39367e-08
1.88052e-08
-8.45246e-08
1.95033e-08
-9.54064e-08
2.00508e-08
-1.06506e-07
2.04562e-08
-1.17749e-07
2.07271e-08
-1.29069e-07
2.08703e-08
-1.40397e-07
2.08917e-08
-1.5167e-07
2.0796e-08
-1.62826e-07
2.05868e-08
-1.73804e-07
2.02668e-08
-1.84545e-07
1.98376e-08
-1.94989e-07
1.93004e-08
-2.05077e-07
1.86556e-08
-2.14751e-07
1.79033e-08
-2.23954e-07
1.70437e-08
-2.32626e-07
1.60767e-08
-2.40711e-07
1.50029e-08
-2.48151e-07
1.38232e-08
-2.54891e-07
1.25391e-08
-2.60876e-07
1.11533e-08
-2.66055e-07
9.66929e-09
-2.70378e-07
8.09189e-09
-2.73799e-07
6.4272e-09
-2.76277e-07
4.68275e-09
-2.77774e-07
2.86754e-09
-2.7826e-07
9.92079e-10
-2.77711e-07
-9.31601e-10
-2.76108e-07
-2.88999e-09
-2.73443e-07
-4.86817e-09
-2.69714e-07
-6.84991e-09
-2.64931e-07
-8.81784e-09
-2.59112e-07
-1.07536e-08
-2.52285e-07
-1.2638e-08
-2.44488e-07
-1.44514e-08
-2.35772e-07
-1.61739e-08
-2.26195e-07
-1.77857e-08
-2.15827e-07
-1.92672e-08
-2.04748e-07
-2.05996e-08
-1.93047e-07
-2.17653e-08
-1.80821e-07
-2.27477e-08
-1.68176e-07
-2.35322e-08
-1.55222e-07
-2.41062e-08
-1.42076e-07
-2.44594e-08
-1.2886e-07
-2.45839e-08
-1.15698e-07
-2.44749e-08
-1.02712e-07
-2.41305e-08
-9.00283e-08
-2.35518e-08
-7.77664e-08
-2.27434e-08
-6.60438e-08
-2.1713e-08
-5.49714e-08
-2.0472e-08
-4.46524e-08
-1.90349e-08
-3.51803e-08
-1.74199e-08
-2.66367e-08
-1.56486e-08
-1.90901e-08
-1.37461e-08
-1.25928e-08
-1.17419e-08
-7.17943e-09
-9.66936e-09
-2.86371e-09
-7.56737e-09
3.64475e-10
-5.481e-09
2.54304e-09
-3.46342e-09
3.74234e-09
-1.57841e-09
4.07103e-09
9.60621e-11
3.68258e-09
1.46387e-09
2.78281e-09
2.40559e-09
1.63604e-09
2.77615e-09
5.69051e-10
2.40838e-09
1.13844e-09
1.20561e-10
-1.0743e-09
-1.57044e-10
-8.78007e-10
-1.24513e-09
8.06355e-10
-3.41008e-09
3.40251e-09
-6.81392e-09
6.51844e-09
-1.15361e-08
9.87178e-09
-1.75923e-08
1.3264e-08
-2.49507e-08
1.65603e-08
-3.35463e-08
1.96721e-08
-4.32913e-08
2.25437e-08
-5.40834e-08
2.51433e-08
-6.58126e-08
2.74555e-08
-7.8365e-08
2.94765e-08
-9.16266e-08
3.12098e-08
-1.05485e-07
3.26639e-08
-1.19832e-07
3.38502e-08
-1.34562e-07
3.47809e-08
-1.49575e-07
3.54686e-08
-1.64773e-07
3.59251e-08
-1.80064e-07
3.61612e-08
-1.95358e-07
3.61859e-08
-2.10569e-07
3.60069e-08
-2.25612e-07
3.56301e-08
-2.40405e-07
3.506e-08
-2.54867e-07
3.42996e-08
-2.68918e-07
3.3351e-08
-2.82478e-07
3.22154e-08
-2.95468e-07
3.08935e-08
-3.0781e-07
2.93858e-08
-3.19427e-07
2.76933e-08
-3.30241e-07
2.58172e-08
-3.40177e-07
2.37597e-08
-3.49163e-07
2.15243e-08
-3.57125e-07
1.9116e-08
-3.63998e-07
1.65416e-08
-3.69715e-07
1.38097e-08
-3.7422e-07
1.09313e-08
-3.77456e-07
7.91969e-09
-3.7938e-07
4.79064e-09
-3.7995e-07
1.56236e-09
-3.79137e-07
-1.74444e-09
-3.7692e-07
-5.10662e-09
-3.7329e-07
-8.49874e-09
-3.68246e-07
-1.18933e-08
-3.61804e-07
-1.52608e-08
-3.53987e-07
-1.85702e-08
-3.44835e-07
-2.17895e-08
-3.34401e-07
-2.48855e-08
-3.2275e-07
-2.7825e-08
-3.09961e-07
-3.05746e-08
-2.96127e-07
-3.31018e-08
-2.81351e-07
-3.53752e-08
-2.65751e-07
-3.73653e-08
-2.49454e-07
-3.90448e-08
-2.32597e-07
-4.03893e-08
-2.15325e-07
-4.13779e-08
-1.97791e-07
-4.19933e-08
-1.80152e-07
-4.22228e-08
-1.62569e-07
-4.20583e-08
-1.45203e-07
-4.14968e-08
-1.28214e-07
-4.05406e-08
-1.1176e-07
-3.91973e-08
-9.59925e-08
-3.74804e-08
-8.10555e-08
-3.5409e-08
-6.70824e-08
-3.3008e-08
-5.41941e-08
-3.03083e-08
-4.24959e-08
-2.73467e-08
-3.20759e-08
-2.41662e-08
-2.30012e-08
-2.08166e-08
-1.53157e-08
-1.73549e-08
-9.03665e-09
-1.38464e-08
-4.15127e-09
-1.03664e-08
-6.12437e-10
-7.00224e-09
1.66579e-09
-3.8566e-09
2.81322e-09
-1.05133e-09
3.00941e-09
1.2677e-09
2.48955e-09
2.92548e-09
1.55076e-09
3.71496e-09
5.61343e-10
3.39776e-09
1.6998e-09
-1.53628e-10
-9.20686e-10
-1.10447e-09
7.28397e-11
-3.19534e-09
2.89725e-09
-6.65454e-09
6.86172e-09
-1.16203e-08
1.14842e-08
-1.81566e-08
1.64081e-08
-2.62674e-08
2.13749e-08
-3.59106e-08
2.62035e-08
-4.70094e-08
3.07709e-08
-5.94629e-08
3.49972e-08
-7.31538e-08
3.88342e-08
-8.79548e-08
4.22566e-08
-1.03734e-07
4.52554e-08
-1.20357e-07
4.7833e-08
-1.37692e-07
4.99988e-08
-1.55608e-07
5.17667e-08
-1.7398e-07
5.31529e-08
-1.92686e-07
5.41739e-08
-2.11606e-07
5.48458e-08
-2.30628e-07
5.51833e-08
-2.49642e-07
5.51992e-08
-2.68539e-07
5.49041e-08
-2.87215e-07
5.43067e-08
-3.05569e-07
5.34133e-08
-3.23498e-07
5.22289e-08
-3.40904e-07
5.07567e-08
-3.57687e-07
4.89988e-08
-3.73751e-07
4.69571e-08
-3.88998e-07
4.46331e-08
-4.03333e-07
4.20286e-08
-4.16663e-07
3.91466e-08
-4.28894e-07
3.59912e-08
-4.39939e-07
3.25686e-08
-4.49709e-07
2.88869e-08
-4.58125e-07
2.49572e-08
-4.65109e-07
2.07933e-08
-4.7059e-07
1.64124e-08
-4.74505e-07
1.1835e-08
-4.768e-07
7.08527e-09
-4.77428e-07
2.19097e-09
-4.76356e-07
-2.81655e-09
-4.7356e-07
-7.90241e-09
-4.69031e-07
-1.30284e-08
-4.6277e-07
-1.81535e-08
-4.54798e-07
-2.32336e-08
-4.45145e-07
-2.82227e-08
-4.33862e-07
-3.3073e-08
-4.21012e-07
-3.77356e-08
-4.06676e-07
-4.21611e-08
-3.9095e-07
-4.63005e-08
-3.73946e-07
-5.01057e-08
-3.5579e-07
-5.35306e-08
-3.36624e-07
-5.65314e-08
-3.16601e-07
-5.90682e-08
-2.95885e-07
-6.11051e-08
-2.74652e-07
-6.26113e-08
-2.53083e-07
-6.35615e-08
-2.31369e-07
-6.39371e-08
-2.09701e-07
-6.37264e-08
-1.88273e-07
-6.29248e-08
-1.67278e-07
-6.15361e-08
-1.46903e-07
-5.95717e-08
-1.27332e-07
-5.70518e-08
-1.08736e-07
-5.4005e-08
-9.12753e-08
-5.04685e-08
-7.50952e-08
-4.64884e-08
-6.0322e-08
-4.21199e-08
-4.7061e-08
-3.74272e-08
-3.53931e-08
-3.24844e-08
-2.53717e-08
-2.73763e-08
-1.70189e-08
-2.21992e-08
-1.03222e-08
-1.70631e-08
-5.23036e-09
-1.20941e-08
-1.6494e-09
-7.43756e-09
5.61827e-10
-3.26256e-09
1.59633e-09
2.33194e-10
1.70409e-09
2.81774e-09
1.19828e-09
4.22077e-09
4.65798e-10
4.13022e-09
2.16561e-09
-4.58433e-10
-4.62242e-10
-2.17049e-09
1.78491e-09
-5.38767e-09
6.11442e-09
-1.02793e-08
1.17534e-08
-1.69437e-08
1.81485e-08
-2.54163e-08
2.48807e-08
-3.56807e-08
3.16393e-08
-4.76781e-08
3.82009e-08
-6.13172e-08
4.44101e-08
-7.6483e-08
5.0163e-08
-9.30437e-08
5.53949e-08
-1.10857e-07
6.00698e-08
-1.29775e-07
6.4173e-08
-1.49646e-07
6.77045e-08
-1.70321e-07
7.06741e-08
-1.91653e-07
7.30981e-08
-2.13496e-07
7.49956e-08
-2.35709e-07
7.63874e-08
-2.58157e-07
7.72934e-08
-2.80706e-07
7.77324e-08
-3.03227e-07
7.77207e-08
-3.25595e-07
7.72722e-08
-3.47687e-07
7.63984e-08
-3.69382e-07
7.51079e-08
-3.9056e-07
7.34074e-08
-4.11105e-07
7.13018e-08
-4.30901e-07
6.87946e-08
-4.49833e-07
6.58888e-08
-4.67787e-07
6.25874e-08
-4.84652e-07
5.8894e-08
-5.00319e-07
5.48135e-08
-5.14681e-07
5.03528e-08
-5.27633e-07
4.55212e-08
-5.39078e-07
4.03314e-08
-5.4892e-07
3.47995e-08
-5.57072e-07
2.89456e-08
-5.63454e-07
2.27943e-08
-5.67994e-07
1.63749e-08
-5.7063e-07
9.7214e-09
-5.71312e-07
2.8727e-09
-5.70001e-07
-4.12743e-09
-5.66673e-07
-1.12306e-08
-5.61318e-07
-1.83838e-08
-5.53941e-07
-2.55304e-08
-5.44565e-07
-3.26098e-08
-5.33228e-07
-3.95588e-08
-5.1999e-07
-4.63117e-08
-5.04924e-07
-5.28016e-08
-4.88124e-07
-5.89611e-08
-4.69701e-07
-6.4723e-08
-4.49785e-07
-7.00219e-08
-4.28521e-07
-7.47946e-08
-4.06071e-07
-7.89818e-08
-3.8261e-07
-8.25289e-08
-3.58328e-07
-8.53869e-08
-3.33426e-07
-8.7514e-08
-3.08111e-07
-8.88758e-08
-2.82602e-07
-8.94468e-08
-2.57117e-07
-8.92109e-08
-2.31879e-07
-8.81624e-08
-2.07109e-07
-8.63061e-08
-1.83023e-07
-8.3658e-08
-1.59829e-07
-8.02457e-08
-1.37726e-07
-7.61085e-08
-1.16896e-07
-7.12977e-08
-9.75083e-08
-6.58766e-08
-7.97071e-08
-5.99211e-08
-6.36148e-08
-5.35195e-08
-4.93259e-08
-4.67733e-08
-3.69039e-08
-3.97983e-08
-2.6378e-08
-3.27251e-08
-1.77392e-08
-2.57019e-08
-1.09369e-08
-1.88963e-08
-5.8755e-09
-1.2499e-08
-2.41027e-09
-6.7278e-09
-3.44038e-10
-1.83304e-09
5.77137e-10
1.89658e-09
6.68992e-10
4.12891e-09
3.17547e-10
4.48167e-09
2.48315e-09
-7.74499e-10
3.12273e-10
-3.29324e-09
4.30365e-09
-7.70855e-09
1.05297e-08
-1.41198e-08
1.81647e-08
-2.25738e-08
2.66025e-08
-3.30684e-08
3.53753e-08
-4.55584e-08
4.41293e-08
-5.9963e-08
5.26054e-08
-7.61725e-08
6.06196e-08
-9.40558e-08
6.80463e-08
-1.13466e-07
7.48051e-08
-1.34246e-07
8.08501e-08
-1.56234e-07
8.61605e-08
-1.79263e-07
9.07339e-08
-2.03169e-07
9.458e-08
-2.27788e-07
9.77169e-08
-2.52959e-07
1.00167e-07
-2.78526e-07
1.01954e-07
-3.04335e-07
1.03103e-07
-3.30238e-07
1.03635e-07
-3.56088e-07
1.03571e-07
-3.81743e-07
1.02928e-07
-4.07064e-07
1.01719e-07
-4.31914e-07
9.99572e-08
-4.56156e-07
9.76499e-08
-4.79658e-07
9.4804e-08
-5.02288e-07
9.14248e-08
-5.23917e-07
8.75168e-08
-5.44414e-07
8.30849e-08
-5.63655e-07
7.81348e-08
-5.81515e-07
7.2674e-08
-5.97875e-07
6.67128e-08
-6.12619e-07
6.02646e-08
-6.25635e-07
5.33472e-08
-6.36818e-07
4.59827e-08
-6.46071e-07
3.81988e-08
-6.53305e-07
3.00285e-08
-6.58441e-07
2.1511e-08
-6.61412e-07
1.26916e-08
-6.62161e-07
3.62187e-09
-6.60648e-07
-5.64063e-09
-6.56846e-07
-1.50322e-08
-6.50746e-07
-2.44838e-08
-6.42355e-07
-3.39209e-08
-6.317e-07
-4.3265e-08
-6.18826e-07
-5.24335e-08
-6.03796e-07
-6.13414e-08
-5.86696e-07
-6.99017e-08
-5.6763e-07
-7.8027e-08
-5.46722e-07
-8.56304e-08
-5.24117e-07
-9.2627e-08
-4.99977e-07
-9.89353e-08
-4.7448e-07
-1.04478e-07
-4.47823e-07
-1.09186e-07
-4.20217e-07
-1.12994e-07
-3.91883e-07
-1.15848e-07
-3.63054e-07
-1.17704e-07
-3.33971e-07
-1.1853e-07
-3.0488e-07
-1.18303e-07
-2.76026e-07
-1.17016e-07
-2.47656e-07
-1.14676e-07
-2.20012e-07
-1.11302e-07
-1.93326e-07
-1.06932e-07
-1.67819e-07
-1.01615e-07
-1.43698e-07
-9.54185e-08
-1.21151e-07
-8.84243e-08
-1.00341e-07
-8.07311e-08
-8.14069e-08
-7.24532e-08
-6.44582e-08
-6.37221e-08
-4.95696e-08
-5.46869e-08
-3.67795e-08
-4.55152e-08
-2.60859e-08
-3.63955e-08
-1.74433e-08
-2.75389e-08
-1.07594e-08
-1.91829e-08
-5.89236e-09
-1.15948e-08
-2.64814e-09
-5.07725e-09
-7.77277e-10
2.57337e-11
2.80067e-11
3.3236e-09
1.3906e-10
4.37064e-09
2.62219e-09
-1.09171e-09
1.40397e-09
-4.43546e-09
7.64739e-09
-1.00853e-08
1.61795e-08
-1.80653e-08
2.61446e-08
-2.83641e-08
3.69013e-08
-4.09349e-08
4.79461e-08
-5.56979e-08
5.88923e-08
-7.25449e-08
6.94525e-08
-9.13445e-08
7.94191e-08
-1.11947e-07
8.86485e-08
-1.34189e-07
9.70472e-08
-1.57899e-07
1.0456e-07
-1.829e-07
1.11161e-07
-2.09012e-07
1.16846e-07
-2.36057e-07
1.21625e-07
-2.63857e-07
1.25517e-07
-2.92237e-07
1.28547e-07
-3.21027e-07
1.30744e-07
-3.50058e-07
1.32134e-07
-3.79167e-07
1.32744e-07
-4.08194e-07
1.32597e-07
-4.3698e-07
1.31714e-07
-4.65373e-07
1.30112e-07
-4.9322e-07
1.27804e-07
-5.2037e-07
1.24801e-07
-5.46677e-07
1.21111e-07
-5.71995e-07
1.16742e-07
-5.96178e-07
1.117e-07
-6.19086e-07
1.05992e-07
-6.40578e-07
9.96272e-08
-6.60519e-07
9.26152e-08
-6.78777e-07
8.49705e-08
-6.95224e-07
7.67114e-08
-7.09738e-07
6.78614e-08
-7.22205e-07
5.84498e-08
-7.32519e-07
4.85124e-08
-7.40582e-07
3.80919e-08
-7.4631e-07
2.72385e-08
-7.49628e-07
1.60098e-08
-7.50477e-07
4.47127e-09
-7.48814e-07
-7.30426e-09
-7.44609e-07
-1.92366e-08
-7.37854e-07
-3.12388e-08
-7.28557e-07
-4.32177e-08
-7.16748e-07
-5.50746e-08
-7.02475e-07
-6.67066e-08
-6.85809e-07
-7.80072e-08
-6.66842e-07
-8.8868e-08
-6.4569e-07
-9.91799e-08
-6.22485e-07
-1.08835e-07
-5.97386e-07
-1.17726e-07
-5.70568e-07
-1.25753e-07
-5.42226e-07
-1.3282e-07
-5.12574e-07
-1.38838e-07
-4.8184e-07
-1.43728e-07
-4.50267e-07
-1.47421e-07
-4.18107e-07
-1.49864e-07
-3.85624e-07
-1.51013e-07
-3.53084e-07
-1.50842e-07
-3.20759e-07
-1.49342e-07
-2.88916e-07
-1.46519e-07
-2.5782e-07
-1.42398e-07
-2.27728e-07
-1.37024e-07
-1.98882e-07
-1.30461e-07
-1.71511e-07
-1.2279e-07
-1.45822e-07
-1.14114e-07
-1.21998e-07
-1.04555e-07
-1.00195e-07
-9.4256e-08
-8.05374e-08
-8.33798e-08
-6.31136e-08
-7.21107e-08
-4.79738e-08
-6.06551e-08
-3.5126e-08
-4.92433e-08
-2.45335e-08
-3.81314e-08
-1.61122e-08
-2.76043e-08
-9.72804e-09
-1.79789e-08
-5.19582e-09
-9.60947e-09
-2.27721e-09
-2.89287e-09
-6.79616e-10
1.72596e-09
-5.5308e-11
3.74637e-09
2.56687e-09
-1.40476e-09
2.80872e-09
-5.57532e-09
1.18179e-08
-1.24718e-08
2.30761e-08
-2.2042e-08
3.57148e-08
-3.42129e-08
4.90722e-08
-4.88884e-08
6.26216e-08
-6.59498e-08
7.59537e-08
-8.52576e-08
8.87603e-08
-1.06655e-07
1.00816e-07
-1.29971e-07
1.11965e-07
-1.55026e-07
1.22102e-07
-1.81631e-07
1.31165e-07
-2.09595e-07
1.39126e-07
-2.38727e-07
1.45978e-07
-2.68833e-07
1.51731e-07
-2.99723e-07
1.56407e-07
-3.31211e-07
1.60035e-07
-3.63112e-07
1.62645e-07
-3.95246e-07
1.64268e-07
-4.27437e-07
1.64935e-07
-4.59511e-07
1.64671e-07
-4.91298e-07
1.63501e-07
-5.2263e-07
1.61444e-07
-5.53342e-07
1.58516e-07
-5.83271e-07
1.5473e-07
-6.12258e-07
1.50097e-07
-6.40142e-07
1.44626e-07
-6.66767e-07
1.38325e-07
-6.91979e-07
1.31205e-07
-7.15628e-07
1.23276e-07
-7.37565e-07
1.14552e-07
-7.57647e-07
1.05053e-07
-7.75738e-07
9.48017e-08
-7.91705e-07
8.38283e-08
-8.05424e-07
7.21698e-08
-8.16783e-07
5.9871e-08
-8.25676e-07
4.69852e-08
-8.32012e-07
3.35744e-08
-8.35712e-07
1.97097e-08
-8.36712e-07
5.47131e-09
-8.34965e-07
-9.05151e-09
-8.30441e-07
-2.37609e-08
-8.23129e-07
-3.85509e-08
-8.13038e-07
-5.33082e-08
-8.002e-07
-6.79129e-08
-7.84666e-07
-8.22401e-08
-7.66513e-07
-9.61607e-08
-7.45838e-07
-1.09543e-07
-7.22762e-07
-1.22256e-07
-6.9743e-07
-1.34167e-07
-6.70008e-07
-1.45148e-07
-6.40685e-07
-1.55076e-07
-6.0967e-07
-1.63835e-07
-5.7719e-07
-1.71318e-07
-5.4349e-07
-1.77428e-07
-5.0883e-07
-1.82081e-07
-4.73482e-07
-1.85211e-07
-4.37728e-07
-1.86766e-07
-4.01858e-07
-1.86713e-07
-3.66161e-07
-1.85038e-07
-3.30929e-07
-1.8175e-07
-2.96449e-07
-1.76878e-07
-2.62999e-07
-1.70475e-07
-2.30843e-07
-1.62616e-07
-2.00232e-07
-1.53401e-07
-1.71392e-07
-1.42953e-07
-1.44527e-07
-1.3142e-07
-1.19812e-07
-1.18972e-07
-9.7386e-08
-1.05806e-07
-7.73546e-08
-9.2142e-08
-5.9782e-08
-7.82277e-08
-4.46893e-08
-6.43359e-08
-3.20521e-08
-5.07686e-08
-2.17982e-08
-3.78582e-08
-1.38057e-08
-2.59714e-08
-7.90257e-09
-1.55126e-08
-3.86627e-09
-6.92917e-09
-1.42437e-09
-7.1595e-10
-2.56795e-10
2.5788e-09
2.31008e-09
-1.71098e-09
4.51969e-09
-6.70009e-09
1.6807e-08
-1.48393e-08
3.12153e-08
-2.60011e-08
4.68766e-08
-4.005e-08
6.3121e-08
-5.68381e-08
7.94097e-08
-7.62045e-08
9.53201e-08
-9.79755e-08
1.10531e-07
-1.21966e-07
1.24807e-07
-1.47984e-07
1.37982e-07
-1.75827e-07
1.49945e-07
-2.05292e-07
1.60631e-07
-2.36174e-07
1.70008e-07
-2.68266e-07
1.7807e-07
-3.01364e-07
1.84829e-07
-3.35266e-07
1.9031e-07
-3.69774e-07
1.94542e-07
-4.04691e-07
1.97562e-07
-4.39827e-07
1.99404e-07
-4.74993e-07
2.00101e-07
-5.10005e-07
1.99683e-07
-5.4468e-07
1.98176e-07
-5.78841e-07
1.95604e-07
-6.12309e-07
1.91984e-07
-6.44911e-07
1.87332e-07
-6.76475e-07
1.81661e-07
-7.0683e-07
1.74981e-07
-7.35809e-07
1.67304e-07
-7.63246e-07
1.58642e-07
-7.8898e-07
1.4901e-07
-8.12854e-07
1.38426e-07
-8.34714e-07
1.26913e-07
-8.54413e-07
1.14501e-07
-8.71811e-07
1.01227e-07
-8.86777e-07
8.71355e-08
-8.99188e-07
7.22822e-08
-9.08934e-07
5.67308e-08
-9.15916e-07
4.05562e-08
-9.2005e-07
2.38437e-08
-9.21268e-07
6.68911e-09
-9.19518e-07
-1.08011e-08
-9.14769e-07
-2.85103e-08
-9.07007e-07
-4.63126e-08
-8.96242e-07
-6.40735e-08
-8.82504e-07
-8.16508e-08
-8.65847e-07
-9.88963e-08
-8.46351e-07
-1.15657e-07
-8.24117e-07
-1.31778e-07
-7.99271e-07
-1.47101e-07
-7.71966e-07
-1.61472e-07
-7.42376e-07
-1.74738e-07
-7.10699e-07
-1.86753e-07
-6.77157e-07
-1.97378e-07
-6.41988e-07
-2.06486e-07
-6.05453e-07
-2.13963e-07
-5.67827e-07
-2.19707e-07
-5.294e-07
-2.23639e-07
-4.90472e-07
-2.25694e-07
-4.51351e-07
-2.25834e-07
-4.12348e-07
-2.24041e-07
-3.73777e-07
-2.20322e-07
-3.35944e-07
-2.14711e-07
-2.99151e-07
-2.07269e-07
-2.63684e-07
-1.98083e-07
-2.29814e-07
-1.87271e-07
-1.97792e-07
-1.74976e-07
-1.6784e-07
-1.61372e-07
-1.40152e-07
-1.46659e-07
-1.14889e-07
-1.31069e-07
-9.21725e-08
-1.14859e-07
-7.20838e-08
-9.83164e-08
-5.46604e-08
-8.17594e-08
-3.98932e-08
-6.55358e-08
-2.7725e-08
-5.00264e-08
-1.80498e-08
-3.56467e-08
-1.07119e-08
-2.28504e-08
-5.50783e-09
-1.21333e-08
-2.18775e-09
-4.03603e-09
-4.60321e-10
8.51371e-10
1.84977e-09
-2.0091e-09
6.5288e-09
-7.80239e-09
2.26003e-08
-1.71695e-08
4.05823e-08
-2.99103e-08
5.96175e-08
-4.58269e-08
7.90376e-08
-6.47187e-08
9.83016e-08
-8.63811e-08
1.16982e-07
-1.10604e-07
1.34754e-07
-1.37173e-07
1.51376e-07
-1.65869e-07
1.66678e-07
-1.96472e-07
1.80548e-07
-2.2876e-07
1.92919e-07
-2.62513e-07
2.0376e-07
-2.97511e-07
2.13068e-07
-3.33538e-07
2.20856e-07
-3.70381e-07
2.27152e-07
-4.0783e-07
2.31992e-07
-4.45681e-07
2.35413e-07
-4.8373e-07
2.37453e-07
-5.2178e-07
2.38151e-07
-5.59637e-07
2.37539e-07
-5.97108e-07
2.35647e-07
-6.34004e-07
2.325e-07
-6.70139e-07
2.28119e-07
-7.05327e-07
2.22521e-07
-7.39388e-07
2.15721e-07
-7.72139e-07
2.07733e-07
-8.03405e-07
1.9857e-07
-8.3301e-07
1.88247e-07
-8.60783e-07
1.76783e-07
-8.86557e-07
1.642e-07
-9.10169e-07
1.50526e-07
-9.31465e-07
1.35797e-07
-9.50296e-07
1.20058e-07
-9.66523e-07
1.03362e-07
-9.80015e-07
8.57746e-08
-9.90656e-07
6.73715e-08
-9.9834e-07
4.82406e-08
-1.00298e-06
2.8482e-08
-1.0045e-06
8.2078e-09
-1.00284e-06
-1.24575e-08
-9.97973e-07
-3.3378e-08
-9.89879e-07
-5.4407e-08
-9.78564e-07
-7.53877e-08
-9.6406e-07
-9.61548e-08
-9.46421e-07
-1.16536e-07
-9.25725e-07
-1.36353e-07
-9.02077e-07
-1.55426e-07
-8.75608e-07
-1.7357e-07
-8.46473e-07
-1.90606e-07
-8.14856e-07
-2.06356e-07
-7.8096e-07
-2.20648e-07
-7.45017e-07
-2.33321e-07
-7.07278e-07
-2.44225e-07
-6.68015e-07
-2.53226e-07
-6.27518e-07
-2.60204e-07
-5.86093e-07
-2.65064e-07
-5.44056e-07
-2.67731e-07
-5.01736e-07
-2.68155e-07
-4.59462e-07
-2.66314e-07
-4.17569e-07
-2.62215e-07
-3.76387e-07
-2.55893e-07
-3.36238e-07
-2.47418e-07
-2.97432e-07
-2.36889e-07
-2.60263e-07
-2.24439e-07
-2.25004e-07
-2.10235e-07
-1.91899e-07
-1.94476e-07
-1.61166e-07
-1.77392e-07
-1.32985e-07
-1.5925e-07
-1.07499e-07
-1.40345e-07
-8.48078e-08
-1.21007e-07
-6.49689e-08
-1.01598e-07
-4.79911e-08
-8.25136e-08
-3.38353e-08
-6.41822e-08
-2.24135e-08
-4.70685e-08
-1.35894e-08
-3.16745e-08
-7.18007e-09
-1.85427e-08
-2.95922e-09
-8.25687e-09
-6.63236e-10
-1.44462e-09
1.18652e-09
-2.29856e-09
8.82736e-09
-8.87798e-09
2.91798e-08
-1.94509e-08
5.11553e-08
-3.37479e-08
7.39145e-08
-5.15097e-08
9.67994e-08
-7.24834e-08
1.19275e-07
-9.64195e-08
1.40919e-07
-1.23071e-07
1.61405e-07
-1.52191e-07
1.80496e-07
-1.83535e-07
1.98023e-07
-2.16862e-07
2.13875e-07
-2.51932e-07
2.27989e-07
-2.88509e-07
2.40337e-07
-3.26359e-07
2.50918e-07
-3.65255e-07
2.59752e-07
-4.04973e-07
2.66871e-07
-4.45294e-07
2.72313e-07
-4.86003e-07
2.76121e-07
-5.26888e-07
2.78339e-07
-5.67744e-07
2.79007e-07
-6.08366e-07
2.78161e-07
-6.48553e-07
2.75835e-07
-6.88109e-07
2.72056e-07
-7.26836e-07
2.66847e-07
-7.64543e-07
2.60228e-07
-8.01037e-07
2.52215e-07
-8.3613e-07
2.42826e-07
-8.69636e-07
2.32075e-07
-9.0137e-07
2.19982e-07
-9.31154e-07
2.06567e-07
-9.58812e-07
1.91857e-07
-9.84173e-07
1.75887e-07
-1.00707e-06
1.58698e-07
-1.02736e-06
1.40343e-07
-1.04488e-06
1.20884e-07
-1.0595e-06
1.00396e-07
-1.0711e-06
7.89686e-08
-1.07956e-06
5.67017e-08
-1.08479e-06
3.37111e-08
-1.08671e-06
1.01257e-08
-1.08525e-06
-1.39117e-08
-1.08039e-06
-3.82452e-08
-1.07209e-06
-6.27067e-08
-1.06036e-06
-8.71166e-08
-1.04523e-06
-1.11286e-07
-1.02675e-06
-1.35016e-07
-1.005e-06
-1.58104e-07
-9.80079e-07
-1.80343e-07
-9.52128e-07
-2.01521e-07
-9.21302e-07
-2.21432e-07
-8.87788e-07
-2.3987e-07
-8.51797e-07
-2.56639e-07
-8.13567e-07
-2.71551e-07
-7.73359e-07
-2.84433e-07
-7.31457e-07
-2.95128e-07
-6.88163e-07
-3.03498e-07
-6.43798e-07
-3.09429e-07
-5.98696e-07
-3.12833e-07
-5.53201e-07
-3.13649e-07
-5.07667e-07
-3.11849e-07
-4.62446e-07
-3.07435e-07
-4.17892e-07
-3.00447e-07
-3.7435e-07
-2.9096e-07
-3.32154e-07
-2.79085e-07
-2.91623e-07
-2.64971e-07
-2.53052e-07
-2.48806e-07
-2.16714e-07
-2.30814e-07
-1.82846e-07
-2.1126e-07
-1.51656e-07
-1.90441e-07
-1.23307e-07
-1.68694e-07
-9.79227e-08
-1.46391e-07
-7.55816e-08
-1.23939e-07
-5.63134e-08
-1.01782e-07
-4.00997e-08
-8.03959e-08
-2.68729e-08
-6.02952e-08
-1.65175e-08
-4.20299e-08
-8.87219e-09
-2.6188e-08
-3.73393e-09
-1.33951e-08
-8.64514e-10
-4.31402e-09
3.21995e-10
-2.57914e-09
1.14065e-08
-9.92439e-09
3.6525e-08
-2.16763e-08
6.29072e-08
-3.74991e-08
8.97373e-08
-5.70746e-08
1.16375e-07
-8.00977e-08
1.42298e-07
-1.06274e-07
1.67095e-07
-1.35319e-07
1.9045e-07
-1.66955e-07
2.12131e-07
-2.00909e-07
2.31977e-07
-2.36918e-07
2.49884e-07
-2.74724e-07
2.65794e-07
-3.14073e-07
2.79686e-07
-3.54721e-07
2.91566e-07
-3.96428e-07
3.01459e-07
-4.38959e-07
3.09402e-07
-4.82086e-07
3.15439e-07
-5.25585e-07
3.1962e-07
-5.69237e-07
3.21991e-07
-6.12828e-07
3.22598e-07
-6.56146e-07
3.21479e-07
-6.98983e-07
3.18672e-07
-7.41134e-07
3.14206e-07
-7.82395e-07
3.08108e-07
-8.22566e-07
3.00398e-07
-8.61447e-07
2.91096e-07
-8.98842e-07
2.80221e-07
-9.34557e-07
2.6779e-07
-9.68401e-07
2.53826e-07
-1.00019e-06
2.38352e-07
-1.02973e-06
2.21401e-07
-1.05685e-06
2.03011e-07
-1.08139e-06
1.83231e-07
-1.10316e-06
1.62121e-07
-1.12203e-06
1.39753e-07
-1.13785e-06
1.16213e-07
-1.15048e-06
9.16e-08
-1.15981e-06
6.60299e-08
-1.16573e-06
3.9633e-08
-1.16816e-06
1.25555e-08
-1.16703e-06
-1.50413e-08
-1.1623e-06
-4.29812e-08
-1.15393e-06
-7.10742e-08
-1.14193e-06
-9.91173e-08
-1.12632e-06
-1.26897e-07
-1.10714e-06
-1.54189e-07
-1.08449e-06
-1.80763e-07
-1.05845e-06
-2.06383e-07
-1.02915e-06
-2.30813e-07
-9.96771e-07
-2.53814e-07
-9.61487e-07
-2.75155e-07
-9.23516e-07
-2.9461e-07
-8.83102e-07
-3.11965e-07
-8.40516e-07
-3.2702e-07
-7.96049e-07
-3.39595e-07
-7.50016e-07
-3.4953e-07
-7.02753e-07
-3.56692e-07
-6.5461e-07
-3.60976e-07
-6.0595e-07
-3.6231e-07
-5.57144e-07
-3.60655e-07
-5.08568e-07
-3.56011e-07
-4.60598e-07
-3.48417e-07
-4.13605e-07
-3.37953e-07
-3.67948e-07
-3.24742e-07
-3.23972e-07
-3.08947e-07
-2.81999e-07
-2.90778e-07
-2.42328e-07
-2.70486e-07
-2.05225e-07
-2.48363e-07
-1.7092e-07
-2.24745e-07
-1.39606e-07
-2.00008e-07
-1.1143e-07
-1.74567e-07
-8.64948e-08
-1.48875e-07
-6.48537e-08
-1.23423e-07
-4.6511e-08
-9.87386e-08
-3.14215e-08
-7.53847e-08
-1.94915e-08
-5.39599e-08
-1.05816e-08
-3.50979e-08
-4.51104e-09
-1.94657e-08
-1.06423e-09
-7.76083e-09
-7.42243e-10
-2.85078e-09
1.42573e-08
-1.09401e-08
4.46143e-08
-2.38406e-08
7.58077e-08
-4.11535e-08
1.0705e-07
-6.25036e-08
1.37725e-07
-8.75353e-08
1.6733e-07
-1.15911e-07
1.95471e-07
-1.47306e-07
2.21846e-07
-1.81412e-07
2.46237e-07
-2.17929e-07
2.68495e-07
-2.56571e-07
2.88526e-07
-2.97061e-07
3.06284e-07
-3.3913e-07
3.21755e-07
-3.82519e-07
3.34955e-07
-4.26976e-07
3.45917e-07
-4.72259e-07
3.54684e-07
-5.18129e-07
3.61309e-07
-5.64355e-07
3.65846e-07
-6.10711e-07
3.68347e-07
-6.56974e-07
3.68861e-07
-7.02928e-07
3.67433e-07
-7.48357e-07
3.64101e-07
-7.9305e-07
3.58899e-07
-8.36796e-07
3.51854e-07
-8.79388e-07
3.42991e-07
-9.20622e-07
3.3233e-07
-9.60293e-07
3.19892e-07
-9.98201e-07
3.05699e-07
-1.03415e-06
2.89773e-07
-1.06794e-06
2.72144e-07
-1.09939e-06
2.52847e-07
-1.1283e-06
2.31927e-07
-1.15451e-06
2.09438e-07
-1.17784e-06
1.85448e-07
-1.19812e-06
1.60039e-07
-1.21521e-06
1.33305e-07
-1.22897e-06
1.05359e-07
-1.23927e-06
7.63302e-08
-1.246e-06
4.63639e-08
-1.24907e-06
1.56234e-08
-1.2484e-06
-1.57112e-08
-1.24394e-06
-4.74434e-08
-1.23565e-06
-7.93608e-08
-1.22353e-06
-1.11237e-07
-1.2076e-06
-1.42833e-07
-1.18789e-06
-1.73899e-07
-1.16448e-06
-2.04175e-07
-1.13746e-06
-2.33399e-07
-1.10697e-06
-2.61302e-07
-1.07317e-06
-2.87618e-07
-1.03624e-06
-3.12085e-07
-9.96398e-07
-3.34448e-07
-9.53899e-07
-3.54463e-07
-9.09017e-07
-3.71903e-07
-8.62051e-07
-3.86561e-07
-8.13329e-07
-3.98252e-07
-7.63198e-07
-4.06823e-07
-7.12025e-07
-4.1215e-07
-6.6019e-07
-4.14144e-07
-6.08086e-07
-4.12759e-07
-5.56111e-07
-4.07985e-07
-5.04666e-07
-3.99862e-07
-4.54146e-07
-3.88473e-07
-4.04939e-07
-3.73948e-07
-3.57418e-07
-3.56468e-07
-3.11936e-07
-3.36261e-07
-2.68818e-07
-3.13603e-07
-2.28362e-07
-2.88819e-07
-1.90827e-07
-2.6228e-07
-1.56434e-07
-2.34401e-07
-1.25359e-07
-2.05642e-07
-9.77296e-08
-1.76504e-07
-7.3627e-08
-1.47526e-07
-5.30798e-08
-1.19286e-07
-3.60666e-08
-9.2398e-08
-2.25164e-08
-6.751e-08
-1.23117e-08
-4.53026e-08
-5.29265e-09
-2.64848e-08
-1.2632e-09
-1.17903e-08
-2.00544e-09
-3.11341e-09
1.73707e-08
-1.19239e-08
5.34248e-08
-2.594e-08
8.98238e-08
-4.47031e-08
1.25813e-07
-6.7783e-08
1.60805e-07
-9.47755e-08
1.94323e-07
-1.25299e-07
2.25994e-07
-1.58994e-07
2.5554e-07
-1.95516e-07
2.8276e-07
-2.34543e-07
3.07521e-07
-2.75762e-07
3.29746e-07
-3.18879e-07
3.494e-07
-3.63609e-07
3.66485e-07
-4.09679e-07
3.81026e-07
-4.56827e-07
3.93065e-07
-5.048e-07
4.02657e-07
-5.53351e-07
4.09861e-07
-6.02243e-07
4.14738e-07
-6.51242e-07
4.17346e-07
-7.00121e-07
4.1774e-07
-7.48656e-07
4.15968e-07
-7.96626e-07
4.12072e-07
-8.43815e-07
4.06088e-07
-8.90007e-07
3.98046e-07
-9.34989e-07
3.87973e-07
-9.78551e-07
3.75892e-07
-1.02048e-06
3.61825e-07
-1.06058e-06
3.45795e-07
-1.09864e-06
3.27829e-07
-1.13445e-06
3.0796e-07
-1.16783e-06
2.86226e-07
-1.19858e-06
2.62677e-07
-1.22652e-06
2.37374e-07
-1.25146e-06
2.10393e-07
-1.27324e-06
1.81821e-07
-1.29171e-06
1.51767e-07
-1.3067e-06
1.20353e-07
-1.31809e-06
8.77211e-08
-1.32576e-06
5.40331e-08
-1.32961e-06
1.94684e-08
-1.32954e-06
-1.57741e-08
-1.32551e-06
-5.14775e-08
-1.31746e-06
-8.74074e-08
-1.30539e-06
-1.23313e-07
-1.28929e-06
-1.58931e-07
-1.2692e-06
-1.93982e-07
-1.2452e-06
-2.28181e-07
-1.21736e-06
-2.61233e-07
-1.18583e-06
-2.92841e-07
-1.15074e-06
-3.22706e-07