/*--------------------------------*- C++ -*----------------------------------*\
  =========                 |
  \\      /  F ield         | OpenFOAM: The Open Source CFD Toolbox
   \\    /   O peration     | Website:  https://openfoam.org
    \\  /    A nd           | Version:  7
     \\/     M anipulation  |
\*---------------------------------------------------------------------------*/
FoamFile
{
    version     2.0;
    format      ascii;
    class       volVectorField;
    location    "0.875";
    object      U;
}
// * * * * * * * * * * * * * * * * * * * * * * * * * * * * * * * * * * * * * //

dimensions      [0 1 -1 0 0 0 0];

internalField   nonuniform List<vector> 
6400
(
(9.95392e-06 -1.01142e-05 0)
(3.70548e-05 -1.68511e-05 0)
(6.60803e-05 -1.39511e-05 0)
(7.94435e-05 -6.81247e-06 0)
(6.93669e-05 1.64854e-06 0)
(3.43979e-05 1.00222e-05 0)
(-2.46249e-05 1.76729e-05 0)
(-0.000105717 2.43875e-05 0)
(-0.000206366 3.01149e-05 0)
(-0.000323987 3.49126e-05 0)
(-0.000456102 3.88834e-05 0)
(-0.000600452 4.21471e-05 0)
(-0.000755059 4.48218e-05 0)
(-0.000918232 4.70184e-05 0)
(-0.00108856 4.88372e-05 0)
(-0.00126485 5.03595e-05 0)
(-0.00144616 5.16489e-05 0)
(-0.00163166 5.27522e-05 0)
(-0.00182065 5.37002e-05 0)
(-0.00201249 5.45073e-05 0)
(-0.00220655 5.51737e-05 0)
(-0.00240221 5.56872e-05 0)
(-0.00259877 5.60248e-05 0)
(-0.00279546 5.61552e-05 0)
(-0.00299141 5.60402e-05 0)
(-0.0031856 5.5637e-05 0)
(-0.00337693 5.48993e-05 0)
(-0.00356412 5.37802e-05 0)
(-0.00374576 5.22339e-05 0)
(-0.00392034 5.02166e-05 0)
(-0.00408619 4.76885e-05 0)
(-0.00424157 4.46149e-05 0)
(-0.00438464 4.09683e-05 0)
(-0.00451352 3.67305e-05 0)
(-0.0046263 3.18934e-05 0)
(-0.00472108 2.64598e-05 0)
(-0.00479601 2.04454e-05 0)
(-0.00484934 1.38797e-05 0)
(-0.00487944 6.80651e-06 0)
(-0.00488489 -7.14767e-07 0)
(-0.00486445 -8.61085e-06 0)
(-0.0048172 -1.67934e-05 0)
(-0.00474249 -2.51597e-05 0)
(-0.00464004 -3.35938e-05 0)
(-0.00450997 -4.19696e-05 0)
(-0.00435277 -5.01523e-05 0)
(-0.00416941 -5.80009e-05 0)
(-0.00396125 -6.53719e-05 0)
(-0.00373014 -7.21226e-05 0)
(-0.00347833 -7.81157e-05 0)
(-0.00320847 -8.32225e-05 0)
(-0.00292362 -8.73266e-05 0)
(-0.00262713 -9.03289e-05 0)
(-0.00232263 -9.215e-05 0)
(-0.00201398 -9.27334e-05 0)
(-0.00170514 -9.20481e-05 0)
(-0.00140015 -9.00894e-05 0)
(-0.00110301 -8.68803e-05 0)
(-0.000817623 -8.24699e-05 0)
(-0.000547698 -7.69336e-05 0)
(-0.00029668 -7.03703e-05 0)
(-6.76787e-05 -6.29003e-05 0)
(0.000136587 -5.4662e-05 0)
(0.000313851 -4.58019e-05 0)
(0.000462343 -3.64858e-05 0)
(0.000580814 -2.6882e-05 0)
(0.00066857 -1.71643e-05 0)
(0.000725494 -7.51089e-06 0)
(0.000752062 1.89491e-06 0)
(0.000749378 1.08607e-05 0)
(0.000719203 1.9178e-05 0)
(0.000664024 2.66077e-05 0)
(0.000587148 3.28582e-05 0)
(0.000492856 3.75495e-05 0)
(0.000386641 4.01587e-05 0)
(0.00027555 3.99568e-05 0)
(0.000168544 3.59599e-05 0)
(7.67616e-05 2.68963e-05 0)
(1.39635e-05 1.18604e-05 0)
(-4.1417e-06 -4.10879e-06 0)
(1.68561e-05 -3.71561e-05 0)
(5.39005e-05 -5.37386e-05 0)
(7.88863e-05 -3.37487e-05 0)
(6.29472e-05 4.45121e-06 0)
(-8.24233e-06 4.99652e-05 0)
(-0.000139221 9.6556e-05 0)
(-0.000329546 0.000140803 0)
(-0.000575837 0.00018105 0)
(-0.000873075 0.000216612 0)
(-0.00121558 0.000247408 0)
(-0.00159758 0.000273702 0)
(-0.00201358 0.00029593 0)
(-0.00245859 0.000314602 0)
(-0.00292817 0.000330238 0)
(-0.00341844 0.000343321 0)
(-0.00392608 0.000354271 0)
(-0.00444822 0.000363428 0)
(-0.00498235 0.000371045 0)
(-0.00552623 0.00037729 0)
(-0.00607775 0.000382243 0)
(-0.00663487 0.000385908 0)
(-0.0071955 0.000388218 0)
(-0.00775741 0.000389044 0)
(-0.00831818 0.000388208 0)
(-0.00887512 0.000385497 0)
(-0.00942527 0.000380666 0)
(-0.00996533 0.00037346 0)
(-0.0104917 0.000363615 0)
(-0.0110003 0.00035088 0)
(-0.011487 0.000335017 0)
(-0.0119472 0.000315817 0)
(-0.0123761 0.00029311 0)
(-0.0127688 0.00026677 0)
(-0.0131203 0.000236731 0)
(-0.0134255 0.000202989 0)
(-0.0136795 0.000165611 0)
(-0.0138774 0.000124742 0)
(-0.0140148 8.061e-05 0)
(-0.0140876 3.35282e-05 0)
(-0.0140922 -1.6103e-05 0)
(-0.0140257 -6.77972e-05 0)
(-0.0138858 -0.000120985 0)
(-0.0136712 -0.00017502 0)
(-0.0133813 -0.000229185 0)
(-0.0130169 -0.000282707 0)
(-0.0125794 -0.000334768 0)
(-0.0120716 -0.000384526 0)
(-0.0114975 -0.000431126 0)
(-0.0108619 -0.000473728 0)
(-0.010171 -0.000511525 0)
(-0.00943182 -0.000543763 0)
(-0.00865243 -0.000569769 0)
(-0.00784169 -0.000588965 0)
(-0.00700912 -0.000600891 0)
(-0.00616479 -0.000605218 0)
(-0.00531909 -0.000601764 0)
(-0.00448256 -0.000590499 0)
(-0.00366568 -0.000571552 0)
(-0.00287866 -0.000545206 0)
(-0.00213127 -0.000511898 0)
(-0.00143258 -0.000472204 0)
(-0.000790852 -0.000426832 0)
(-0.000213316 -0.000376602 0)
(0.000293933 -0.000322422 0)
(0.000726082 -0.000265283 0)
(0.00107971 -0.000206242 0)
(0.00135284 -0.000146401 0)
(0.00154508 -8.691e-05 0)
(0.00165762 -2.89681e-05 0)
(0.00169338 2.61601e-05 0)
(0.00165708 7.71129e-05 0)
(0.00155537 0.000122381 0)
(0.00139707 0.00016023 0)
(0.00119336 0.000188599 0)
(0.00095815 0.000204972 0)
(0.000708414 0.000206291 0)
(0.000464167 0.000189043 0)
(0.000247917 0.000149655 0)
(8.6525e-05 8.67814e-05 0)
(1.16571e-05 1.38423e-05 0)
(1.44749e-05 -6.68783e-05 0)
(3.45739e-05 -7.8894e-05 0)
(1.83861e-05 -1.83554e-05 0)
(-6.34744e-05 8.09617e-05 0)
(-0.000226643 0.000197786 0)
(-0.000476834 0.000318569 0)
(-0.000813783 0.000435082 0)
(-0.00123335 0.000542771 0)
(-0.00172904 0.000639444 0)
(-0.00229322 0.000724437 0)
(-0.00291791 0.000798021 0)
(-0.00359532 0.000861013 0)
(-0.00431816 0.0009145 0)
(-0.0050798 0.000959662 0)
(-0.00587436 0.000997635 0)
(-0.00669662 0.00102943 0)
(-0.00754195 0.00105588 0)
(-0.00840624 0.00107761 0)
(-0.00928569 0.00109505 0)
(-0.0101767 0.00110838 0)
(-0.0110757 0.00111762 0)
(-0.0119792 0.00112258 0)
(-0.0128832 0.00112294 0)
(-0.0137838 0.00111822 0)
(-0.0146763 0.00110787 0)
(-0.015556 0.00109126 0)
(-0.0164174 0.00106773 0)
(-0.0172547 0.00103661 0)
(-0.0180616 0.000997245 0)
(-0.0188314 0.000949055 0)
(-0.0195569 0.000891525 0)
(-0.0202309 0.000824251 0)
(-0.0208456 0.000746963 0)
(-0.0213934 0.000659544 0)
(-0.0218667 0.000562056 0)
(-0.022258 0.000454753 0)
(-0.0225601 0.000338102 0)
(-0.0227665 0.000212787 0)
(-0.0228711 7.97212e-05 0)
(-0.0228688 -5.99552e-05 0)
(-0.0227553 -0.000204876 0)
(-0.0225277 -0.000353463 0)
(-0.0221841 -0.000503941 0)
(-0.0217241 -0.00065436 0)
(-0.021149 -0.000802631 0)
(-0.0204614 -0.000946559 0)
(-0.0196658 -0.00108389 0)
(-0.0187681 -0.00121235 0)
(-0.0177761 -0.00132972 0)
(-0.0166991 -0.00143386 0)
(-0.0155479 -0.0015228 0)
(-0.0143345 -0.00159474 0)
(-0.0130725 -0.00164818 0)
(-0.011776 -0.0016819 0)
(-0.0104603 -0.00169504 0)
(-0.00914096 -0.0016871 0)
(-0.00783381 -0.00165801 0)
(-0.00655463 -0.00160809 0)
(-0.00531883 -0.00153807 0)
(-0.00414115 -0.00144909 0)
(-0.00303537 -0.00134268 0)
(-0.00201406 -0.00122069 0)
(-0.00108832 -0.00108531 0)
(-0.000267544 -0.000938973 0)
(0.000440779 -0.000784365 0)
(0.00103122 -0.000624348 0)
(0.00150058 -0.000461955 0)
(0.00184799 -0.000300364 0)
(0.00207508 -0.000142904 0)
(0.00218606 6.91173e-06 0)
(0.00218789 0.000145329 0)
(0.00209042 0.000268263 0)
(0.00190661 0.000371175 0)
(0.00165271 0.000448927 0)
(0.00134858 0.000495666 0)
(0.00101778 0.000504866 0)
(0.000687149 0.000469774 0)
(0.00038579 0.000384609 0)
(0.000149675 0.0002481 0)
(2.65852e-05 7.62234e-05 0)
(7.44167e-06 -8.09393e-05 0)
(-4.88038e-06 -6.21602e-05 0)
(-8.5975e-05 6.43812e-05 0)
(-0.000259069 0.000250164 0)
(-0.000537449 0.000463811 0)
(-0.000926228 0.000684232 0)
(-0.00142442 0.000897921 0)
(-0.0020269 0.00109692 0)
(-0.00272599 0.00127708 0)
(-0.00351259 0.00143686 0)
(-0.00437714 0.00157636 0)
(-0.00531014 0.00169671 0)
(-0.00630257 0.00179961 0)
(-0.0073461 0.00188696 0)
(-0.00843318 0.00196064 0)
(-0.00955699 0.00202236 0)
(-0.0107114 0.00207355 0)
(-0.0118907 0.00211527 0)
(-0.0130898 0.00214825 0)
(-0.0143035 0.0021728 0)
(-0.0155268 0.0021889 0)
(-0.0167547 0.00219623 0)
(-0.0179817 0.00219416 0)
(-0.0192021 0.00218184 0)
(-0.0204097 0.00215826 0)
(-0.0215976 0.00212229 0)
(-0.0227586 0.00207273 0)
(-0.0238848 0.00200838 0)
(-0.0249676 0.00192812 0)
(-0.0259983 0.00183089 0)
(-0.0269673 0.00171584 0)
(-0.0278651 0.00158229 0)
(-0.0286816 0.00142983 0)
(-0.0294071 0.00125834 0)
(-0.0300316 0.00106804 0)
(-0.0305457 0.000859504 0)
(-0.0309402 0.000633692 0)
(-0.0312069 0.000391978 0)
(-0.0313382 0.000136149 0)
(-0.0313278 -0.000131598 0)
(-0.0311706 -0.000408657 0)
(-0.0308631 -0.000692044 0)
(-0.0304032 -0.000978425 0)
(-0.0297907 -0.00126416 0)
(-0.0290275 -0.00154538 0)
(-0.0281173 -0.00181802 0)
(-0.0270659 -0.00207792 0)
(-0.0258814 -0.00232093 0)
(-0.0245736 -0.00254295 0)
(-0.0231545 -0.00274008 0)
(-0.0216381 -0.00290871 0)
(-0.0200398 -0.00304558 0)
(-0.0183767 -0.00314793 0)
(-0.0166672 -0.00321353 0)
(-0.0149304 -0.00324079 0)
(-0.0131864 -0.0032288 0)
(-0.0114552 -0.00317738 0)
(-0.00975719 -0.00308708 0)
(-0.00811201 -0.00295923 0)
(-0.00653862 -0.00279588 0)
(-0.00505483 -0.00259979 0)
(-0.00367692 -0.00237434 0)
(-0.00241937 -0.00212354 0)
(-0.00129453 -0.0018519 0)
(-0.000312351 -0.00156438 0)
(0.000519825 -0.00126632 0)
(0.00119749 -0.000963394 0)
(0.00171912 -0.000661578 0)
(0.0020864 -0.000367143 0)
(0.00230431 -8.66864e-05 0)
(0.00238129 0.000172795 0)
(0.00232943 0.000403799 0)
(0.00216459 0.000598175 0)
(0.00190657 0.000747 0)
(0.00157922 0.000840518 0)
(0.00121056 0.000868332 0)
(0.00083202 0.000820118 0)
(0.000477622 0.000687203 0)
(0.000191292 0.000466088 0)
(3.58653e-05 0.000168016 0)
(-1.49239e-06 -7.05354e-05 0)
(-5.48492e-05 1.4217e-05 0)
(-0.000216325 0.000235377 0)
(-0.000498405 0.000532567 0)
(-0.00090939 0.000865643 0)
(-0.00145229 0.00120675 0)
(-0.00212442 0.00153745 0)
(-0.00291918 0.00184645 0)
(-0.00382758 0.00212761 0)
(-0.00483924 0.00237837 0)
(-0.00594327 0.00259859 0)
(-0.00712884 0.00278967 0)
(-0.00838558 0.00295386 0)
(-0.00970382 0.00309381 0)
(-0.0110746 0.00321218 0)
(-0.0124899 0.00331138 0)
(-0.0139421 0.00339345 0)
(-0.0154244 0.00345991 0)
(-0.01693 0.00351178 0)
(-0.0184527 0.00354948 0)
(-0.019986 0.00357294 0)
(-0.0215234 0.0035816 0)
(-0.0230579 0.00357449 0)
(-0.0245822 0.0035503 0)
(-0.0260884 0.00350748 0)
(-0.027568 0.00344429 0)
(-0.0290118 0.00335893 0)
(-0.03041 0.0032496 0)
(-0.0317522 0.00311461 0)
(-0.0330275 0.00295244 0)
(-0.0342244 0.00276184 0)
(-0.0353312 0.00254187 0)
(-0.036336 0.00229203 0)
(-0.037227 0.00201225 0)
(-0.0379925 0.00170302 0)
(-0.0386211 0.00136536 0)
(-0.0391024 0.00100092 0)
(-0.0394265 0.00061195 0)
(-0.0395847 0.000201352 0)
(-0.0395698 -0.000227346 0)
(-0.039376 -0.000670008 0)
(-0.0389993 -0.00112192 0)
(-0.0384376 -0.00157787 0)
(-0.0376909 -0.00203216 0)
(-0.0367617 -0.00247877 0)
(-0.0356545 -0.0029114 0)
(-0.0343765 -0.00332365 0)
(-0.0329372 -0.00370908 0)
(-0.0313483 -0.0040614 0)
(-0.0296242 -0.00437463 0)
(-0.0277812 -0.00464318 0)
(-0.0258376 -0.00486206 0)
(-0.0238136 -0.005027 0)
(-0.0217307 -0.00513457 0)
(-0.0196117 -0.00518227 0)
(-0.01748 -0.00516867 0)
(-0.0153596 -0.00509344 0)
(-0.0132745 -0.00495737 0)
(-0.011248 -0.00476243 0)
(-0.00930275 -0.0045117 0)
(-0.00746015 -0.00420937 0)
(-0.00573979 -0.00386065 0)
(-0.00415919 -0.00347165 0)
(-0.00273347 -0.00304936 0)
(-0.00147493 -0.00260146 0)
(-0.000392858 -0.00213628 0)
(0.000506816 -0.00166269 0)
(0.00122168 -0.00119007 0)
(0.00175307 -0.000728241 0)
(0.0021062 -0.00028752 0)
(0.00229038 0.000121231 0)
(0.00231906 0.000486498 0)
(0.00221001 0.000796003 0)
(0.00198539 0.0010366 0)
(0.00167181 0.00119428 0)
(0.00130038 0.00125447 0)
(0.000906025 0.00120276 0)
(0.000526899 0.00102642 0)
(0.000213654 0.000717137 0)
(4.05965e-05 0.000276748 0)
(-1.10977e-05 -3.21194e-05 0)
(-0.000110089 0.000159713 0)
(-0.000361575 0.000507692 0)
(-0.000764662 0.000942777 0)
(-0.00132085 0.00141785 0)
(-0.00202981 0.00189948 0)
(-0.00288628 0.00236503 0)
(-0.00388161 0.0028003 0)
(-0.00500517 0.00319735 0)
(-0.00624525 0.00355274 0)
(-0.00758973 0.00386613 0)
(-0.00902663 0.00413918 0)
(-0.0105445 0.00437472 0)
(-0.0121325 0.00457612 0)
(-0.0137806 0.00474681 0)
(-0.0154796 0.00488992 0)
(-0.017221 0.00500807 0)
(-0.0189965 0.00510323 0)
(-0.0207985 0.00517666 0)
(-0.0226193 0.00522887 0)
(-0.0244512 0.00525966 0)
(-0.0262863 0.00526819 0)
(-0.0281163 0.00525308 0)
(-0.0299322 0.00521246 0)
(-0.0317247 0.00514417 0)
(-0.0334836 0.00504581 0)
(-0.035198 0.0049149 0)
(-0.0368564 0.00474898 0)
(-0.0384465 0.00454578 0)
(-0.0399556 0.00430325 0)
(-0.0413704 0.00401977 0)
(-0.0426774 0.00369419 0)
(-0.0438629 0.00332592 0)
(-0.0449134 0.00291507 0)
(-0.0458156 0.00246247 0)
(-0.0465567 0.00196974 0)
(-0.0471248 0.00143935 0)
(-0.0475088 0.000874647 0)
(-0.0476991 0.000279843 0)
(-0.0476876 -0.000339976 0)
(-0.0474679 -0.000978889 0)
(-0.0470356 -0.00163019 0)
(-0.0463887 -0.00228648 0)
(-0.0455272 -0.00293976 0)
(-0.044454 -0.00358153 0)
(-0.0431744 -0.00420299 0)
(-0.0416964 -0.00479514 0)
(-0.0400308 -0.005349 0)
(-0.0381909 -0.00585581 0)
(-0.0361929 -0.00630716 0)
(-0.034055 -0.00669529 0)
(-0.0317979 -0.00701321 0)
(-0.0294443 -0.00725491 0)
(-0.0270185 -0.00741555 0)
(-0.0245461 -0.0074916 0)
(-0.0220538 -0.00748096 0)
(-0.0195685 -0.00738304 0)
(-0.0171177 -0.00719887 0)
(-0.014728 -0.00693106 0)
(-0.0124253 -0.0065838 0)
(-0.0102343 -0.00616285 0)
(-0.00817754 -0.00567538 0)
(-0.00627562 -0.00512991 0)
(-0.00454627 -0.00453618 0)
(-0.00300419 -0.00390498 0)
(-0.00166065 -0.00324803 0)
(-0.000523227 -0.00257787 0)
(0.0004045 -0.00190774 0)
(0.00112315 -0.00125155 0)
(0.00163773 -0.000623858 0)
(0.00195776 -3.98914e-05 0)
(0.00209745 0.000484353 0)
(0.00207568 0.000932035 0)
(0.00191614 0.00128541 0)
(0.00164735 0.00152586 0)
(0.0013027 0.0016342 0)
(0.000919923 0.00159128 0)
(0.000540707 0.00137915 0)
(0.000220897 0.000982866 0)
(4.21657e-05 0.000392985 0)
(-2.07954e-05 3.59243e-05 0)
(-0.000167717 0.000379791 0)
(-0.000514972 0.000889696 0)
(-0.0010469 0.00149079 0)
(-0.00175707 0.00213088 0)
(-0.00264091 0.00277235 0)
(-0.00368981 0.00338933 0)
(-0.00489252 0.0039654 0)
(-0.00623643 0.00449129 0)
(-0.0077083 0.00496292 0)
(-0.00929476 0.00537993 0)
(-0.0109827 0.00574433 0)
(-0.0127598 0.00605959 0)
(-0.0146142 0.00632983 0)
(-0.016535 0.00655922 0)
(-0.0185121 0.0067516 0)
(-0.020536 0.00691015 0)
(-0.0225975 0.00703726 0)
(-0.0246879 0.00713436 0)
(-0.0267984 0.00720198 0)
(-0.0289203 0.00723974 0)
(-0.0310442 0.00724646 0)
(-0.0331607 0.00722023 0)
(-0.0352595 0.00715861 0)
(-0.0373296 0.00705873 0)
(-0.0393594 0.00691747 0)
(-0.0413365 0.0067316 0)
(-0.0432476 0.006498 0)
(-0.0450789 0.00621374 0)
(-0.046816 0.00587629 0)
(-0.0484441 0.00548365 0)
(-0.0499478 0.00503447 0)
(-0.051312 0.00452818 0)
(-0.0525217 0.00396508 0)
(-0.0535619 0.00334648 0)
(-0.0544187 0.0026747 0)
(-0.0550789 0.00195321 0)
(-0.0555304 0.00118656 0)
(-0.0557625 0.000380476 0)
(-0.0557664 -0.000458209 0)
(-0.0555352 -0.00132159 0)
(-0.0550639 -0.00220074 0)
(-0.0543503 -0.00308587 0)
(-0.0533946 -0.00396641 0)
(-0.0521997 -0.00483117 0)
(-0.0507715 -0.00566857 0)
(-0.0491185 -0.0064668 0)
(-0.0472525 -0.00721407 0)
(-0.0451881 -0.00789886 0)
(-0.0429425 -0.00851015 0)
(-0.0405358 -0.00903772 0)
(-0.0379906 -0.00947233 0)
(-0.0353316 -0.00980606 0)
(-0.0325854 -0.0100324 0)
(-0.0297802 -0.0101467 0)
(-0.0269453 -0.0101459 0)
(-0.0241108 -0.0100292 0)
(-0.0213068 -0.00979766 0)
(-0.0185632 -0.00945454 0)
(-0.0159091 -0.00900517 0)
(-0.013372 -0.00845691 0)
(-0.0109777 -0.00781906 0)
(-0.00874968 -0.00710271 0)
(-0.00670834 -0.00632059 0)
(-0.00487089 -0.00548689 0)
(-0.00325079 -0.00461706 0)
(-0.00185748 -0.00372768 0)
(-0.000696 -0.00283631 0)
(0.000233178 -0.00196135 0)
(0.000934405 -0.00112204 0)
(0.00141698 -0.000338412 0)
(0.00169524 0.000368635 0)
(0.00178868 0.000977317 0)
(0.00172189 0.00146491 0)
(0.00152471 0.00180781 0)
(0.00123229 0.00198173 0)
(0.000884598 0.00196214 0)
(0.000526268 0.00172502 0)
(0.000216776 0.00124781 0)
(4.1611e-05 0.000509682 0)
(-3.04762e-05 0.000134203 0)
(-0.000226387 0.000677441 0)
(-0.000672568 0.00138654 0)
(-0.00133817 0.00218319 0)
(-0.00220816 0.00301196 0)
(-0.00327307 0.00383247 0)
(-0.00452036 0.00461678 0)
(-0.00593568 0.00534706 0)
(-0.00750412 0.00601329 0)
(-0.0092107 0.00661122 0)
(-0.0110407 0.0071407 0)
(-0.0129799 0.00760432 0)
(-0.0150151 0.00800627 0)
(-0.0171336 0.00835146 0)
(-0.0193238 0.00864485 0)
(-0.0215747 0.00889096 0)
(-0.0238762 0.00909352 0)
(-0.0262182 0.00925522 0)
(-0.0285912 0.00937768 0)
(-0.0309853 0.00946133 0)
(-0.0333909 0.00950557 0)
(-0.0357975 0.00950876 0)
(-0.0381945 0.00946844 0)
(-0.0405703 0.00938147 0)
(-0.0429127 0.00924424 0)
(-0.0452087 0.00905283 0)
(-0.0474443 0.00880325 0)
(-0.0496049 0.00849164 0)
(-0.0516751 0.00811444 0)
(-0.0536391 0.0076686 0)
(-0.0554803 0.00715177 0)
(-0.0571823 0.00656243 0)
(-0.0587282 0.00590007 0)
(-0.0601016 0.00516527 0)
(-0.0612864 0.00435989 0)
(-0.0622672 0.00348706 0)
(-0.0630297 0.00255132 0)
(-0.0635607 0.0015586 0)
(-0.0638487 0.00051626 0)
(-0.063884 -0.000566977 0)
(-0.0636588 -0.00168105 0)
(-0.0631679 -0.00281467 0)
(-0.0624085 -0.00395544 0)
(-0.0613806 -0.00509005 0)
(-0.0600871 -0.00620442 0)
(-0.0585338 -0.00728397 0)
(-0.0567299 -0.00831387 0)
(-0.0546875 -0.00927929 0)
(-0.0524219 -0.0101657 0)
(-0.0499516 -0.0109593 0)
(-0.0472978 -0.0116471 0)
(-0.0444846 -0.0122175 0)
(-0.0415384 -0.0126602 0)
(-0.0384879 -0.012967 0)
(-0.0353635 -0.0131317 0)
(-0.032197 -0.0131504 0)
(-0.0290212 -0.0130217 0)
(-0.025869 -0.0127466 0)
(-0.0227733 -0.0123289 0)
(-0.0197661 -0.0117752 0)
(-0.0168784 -0.0110943 0)
(-0.0141388 -0.0102977 0)
(-0.0115738 -0.00939934 0)
(-0.00920682 -0.00841499 0)
(-0.00705766 -0.00736252 0)
(-0.00514226 -0.0062614 0)
(-0.00347217 -0.0051326 0)
(-0.00205426 -0.00399831 0)
(-0.000890438 -0.00288186 0)
(2.2598e-05 -0.00180754 0)
(0.00069348 -0.000800604 0)
(0.00113629 0.000112777 0)
(0.00137061 0.000905488 0)
(0.00142156 0.00154945 0)
(0.00131987 0.00201566 0)
(0.00110197 0.00227427 0)
(0.000809649 0.00229486 0)
(0.000489841 0.00204679 0)
(0.000204306 0.00149959 0)
(3.96682e-05 0.000621758 0)
(-4.00239e-05 0.00026275 0)
(-0.00028527 0.00105408 0)
(-0.000831987 0.00200114 0)
(-0.00163404 0.00302407 0)
(-0.00266746 0.00406587 0)
(-0.0039175 0.00508481 0)
(-0.00536723 0.00605205 0)
(-0.00699885 0.00694928 0)
(-0.00879487 0.00776644 0)
(-0.0107383 0.00849961 0)
(-0.0128131 0.00914928 0)
(-0.0150038 0.00971882 0)
(-0.0172963 0.0102133 0)
(-0.0196773 0.0106386 0)
(-0.0221344 0.0110005 0)
(-0.0246562 0.0113041 0)
(-0.0272317 0.0115537 0)
(-0.0298503 0.0117523 0)
(-0.0325017 0.0119016 0)
(-0.0351754 0.0120018 0)
(-0.0378605 0.0120521 0)
(-0.0405461 0.0120502 0)
(-0.0432201 0.0119932 0)
(-0.04587 0.011877 0)
(-0.0484823 0.0116972 0)
(-0.0510428 0.0114492 0)
(-0.0535363 0.011128 0)
(-0.0559468 0.0107291 0)
(-0.0582576 0.0102482 0)
(-0.0604513 0.00968177 0)
(-0.0625102 0.00902714 0)
(-0.0644162 0.00828262 0)
(-0.0661514 0.00744779 0)
(-0.0676978 0.00652358 0)
(-0.0690381 0.00551243 0)
(-0.0701557 0.00441837 0)
(-0.0710351 0.0032471 0)
(-0.071662 0.002006 0)
(-0.0720239 0.00070415 0)
(-0.07211 -0.000647699 0)
(-0.0719119 -0.00203723 0)
(-0.0714235 -0.00345064 0)
(-0.0706412 -0.00487282 0)
(-0.0695647 -0.00628754 0)
(-0.0681964 -0.00767767 0)
(-0.0665421 -0.00902548 0)
(-0.0646107 -0.0103129 0)
(-0.0624146 -0.0115218 0)
(-0.0599696 -0.0126346 0)
(-0.0572947 -0.0136342 0)
(-0.054412 -0.0145047 0)
(-0.0513468 -0.0152318 0)
(-0.0481271 -0.0158028 0)
(-0.0447831 -0.0162074 0)
(-0.0413475 -0.0164376 0)
(-0.0378543 -0.0164883 0)
(-0.0343388 -0.0163574 0)
(-0.0308368 -0.0160457 0)
(-0.0273842 -0.0155575 0)
(-0.0240163 -0.0149002 0)
(-0.0207669 -0.0140843 0)
(-0.0176683 -0.0131237 0)
(-0.0147501 -0.0120347 0)
(-0.0120388 -0.0108368 0)
(-0.00955719 -0.00955142 0)
(-0.007324 -0.0082025 0)
(-0.00535326 -0.0068156 0)
(-0.00365401 -0.00541794 0)
(-0.00222996 -0.0040381 0)
(-0.00107925 -0.00270583 0)
(-0.000194292 -0.00145198 0)
(0.000438357 -0.000308376 0)
(0.00083804 0.000692134 0)
(0.00103003 0.00151573 0)
(0.00104561 0.00212759 0)
(0.000922163 0.00249193 0)
(0.000702843 0.00257201 0)
(0.00043637 0.00233032 0)
(0.000185728 0.00172856 0)
(3.68292e-05 0.000725603 0)
(-4.94239e-05 0.000421513 0)
(-0.000343964 0.00151027 0)
(-0.0009918 0.00273496 0)
(-0.00193161 0.00401574 0)
(-0.0031304 0.00529548 0)
(-0.00456787 0.00653252 0)
(-0.00622247 0.00769821 0)
(-0.00807266 0.00877477 0)
(-0.0100981 0.00975286 0)
(-0.0122798 0.0106295 0)
(-0.0146 0.0114063 0)
(-0.0170422 0.0120876 0)
(-0.0195914 0.0126798 0)
(-0.0222336 0.0131897 0)
(-0.0249559 0.0136239 0)
(-0.0277463 0.0139883 0)
(-0.0305933 0.0142877 0)
(-0.0334858 0.0145253 0)
(-0.036413 0.0147028 0)
(-0.0393636 0.0148202 0)
(-0.0423262 0.0148764 0)
(-0.0452887 0.0148684 0)
(-0.0482385 0.0147924 0)
(-0.051162 0.0146438 0)
(-0.0540447 0.0144172 0)
(-0.0568711 0.014107 0)
(-0.059625 0.0137074 0)
(-0.0622891 0.0132131 0)
(-0.0648455 0.0126191 0)
(-0.0672755 0.0119214 0)
(-0.0695602 0.011117 0)
(-0.0716801 0.0102039 0)
(-0.073616 0.0091819 0)
(-0.0753487 0.00805231 0)
(-0.0768597 0.00681819 0)
(-0.078131 0.00548447 0)
(-0.0791458 0.00405806 0)
(-0.0798888 0.00254785 0)
(-0.0803461 0.000964727 0)
(-0.080506 -0.000678505 0)
(-0.0803588 -0.00236718 0)
(-0.0798974 -0.00408491 0)
(-0.0791175 -0.00581375 0)
(-0.0780177 -0.00753444 0)
(-0.0765998 -0.00922666 0)
(-0.0748689 -0.0108693 0)
(-0.0728336 -0.012441 0)
(-0.0705061 -0.0139201 0)
(-0.0679021 -0.0152854 0)
(-0.0650409 -0.0165167 0)
(-0.0619453 -0.0175948 0)
(-0.0586413 -0.0185023 0)
(-0.0551581 -0.0192238 0)
(-0.0515276 -0.0197465 0)
(-0.0477843 -0.0200605 0)
(-0.0439644 -0.0201591 0)
(-0.0401059 -0.0200392 0)
(-0.0362473 -0.0197012 0)
(-0.0324276 -0.0191495 0)
(-0.0286854 -0.0183925 0)
(-0.0250582 -0.0174422 0)
(-0.0215815 -0.0163146 0)
(-0.0182887 -0.0150289 0)
(-0.0152097 -0.0136079 0)
(-0.0123706 -0.0120772 0)
(-0.00979342 -0.0104652 0)
(-0.00749498 -0.00880248 0)
(-0.0054869 -0.00712149 0)
(-0.0037751 -0.00545649 0)
(-0.00235956 -0.00384308 0)
(-0.00123406 -0.00231809 0)
(-0.000386174 -0.000919445 0)
(0.000202903 0.000313894 0)
(0.000558305 0.00134195 0)
(0.000711583 0.0021237 0)
(0.000700781 0.00261702 0)
(0.000570068 0.00277861 0)
(0.00036952 0.00256396 0)
(0.000162623 0.00192721 0)
(3.34108e-05 0.000818632 0)
(-5.86875e-05 0.000610281 0)
(-0.000402253 0.00204597 0)
(-0.0011511 0.00358845 0)
(-0.00222893 0.00515914 0)
(-0.00359373 0.00670219 0)
(-0.00521954 0.00817719 0)
(-0.00708002 0.00955689 0)
(-0.00914973 0.010825 0)
(-0.0114054 0.0119737 0)
(-0.0138257 0.0130015 0)
(-0.0163914 0.0139117 0)
(-0.0190847 0.0147103 0)
(-0.0218897 0.0154047 0)
(-0.0247919 0.0160032 0)
(-0.0277779 0.0165132 0)
(-0.0308352 0.0169416 0)
(-0.033952 0.0172933 0)
(-0.0371168 0.0175721 0)
(-0.0403182 0.0177794 0)
(-0.0435446 0.0179151 0)
(-0.0467839 0.0179773 0)
(-0.0500234 0.0179627 0)
(-0.0532497 0.0178665 0)
(-0.0564484 0.0176832 0)
(-0.059604 0.0174064 0)
(-0.0627001 0.0170296 0)
(-0.0657195 0.0165462 0)
(-0.0686438 0.0159498 0)
(-0.0714539 0.0152348 0)
(-0.07413 0.0143967 0)
(-0.0766519 0.013432 0)
(-0.078999 0.0123388 0)
(-0.0811507 0.0111167 0)
(-0.0830866 0.00976759 0)
(-0.0847868 0.00829503 0)
(-0.086232 0.00670491 0)
(-0.0874043 0.00500535 0)
(-0.0882868 0.00320677 0)
(-0.0888643 0.00132184 0)
(-0.0891237 -0.000634509 0)
(-0.0890541 -0.00264528 0)
(-0.0886469 -0.00469139 0)
(-0.0878966 -0.00675201 0)
(-0.0868006 -0.00880477 0)
(-0.0853596 -0.010826 0)
(-0.0835776 -0.0127912 0)
(-0.0814625 -0.0146752 0)
(-0.0790258 -0.0164529 0)
(-0.0762829 -0.0180994 0)
(-0.0732529 -0.0195907 0)
(-0.0699588 -0.0209041 0)
(-0.0664273 -0.0220187 0)
(-0.0626885 -0.0229163 0)
(-0.0587757 -0.023581 0)
(-0.054725 -0.0240007 0)
(-0.0505749 -0.0241667 0)
(-0.0463659 -0.0240745 0)
(-0.0421396 -0.023724 0)
(-0.0379383 -0.0231193 0)
(-0.0338039 -0.0222696 0)
(-0.0297778 -0.0211882 0)
(-0.0258995 -0.0198931 0)
(-0.0222062 -0.0184065 0)
(-0.0187318 -0.0167548 0)
(-0.0155063 -0.0149676 0)
(-0.0125551 -0.013078 0)
(-0.00989861 -0.011122 0)
(-0.00755139 -0.00913768 0)
(-0.00552203 -0.0071653 0)
(-0.00381269 -0.00524673 0)
(-0.00241897 -0.00342523 0)
(-0.00132973 -0.00174523 0)
(-0.000527031 -0.000252262 0)
(1.38697e-05 0.00100712 0)
(0.000324548 0.00198528 0)
(0.000443447 0.00263344 0)
(0.000415502 0.00290149 0)
(0.000291855 0.00273791 0)
(0.000136058 0.00208954 0)
(2.96123e-05 0.000898938 0)
(-6.7824e-05 0.000828773 0)
(-0.000459992 0.00266078 0)
(-0.00130925 0.0045613 0)
(-0.00252456 0.00645423 0)
(-0.00405496 0.00828614 0)
(-0.00586885 0.0100191 0)
(-0.00793499 0.0116284 0)
(-0.010224 0.0131002 0)
(-0.0127095 0.0144289 0)
(-0.015368 0.0156155 0)
(-0.0181784 0.0166653 0)
(-0.0211219 0.017586 0)
(-0.0241817 0.0183871 0)
(-0.0273426 0.0190779 0)
(-0.0305908 0.0196672 0)
(-0.0339137 0.0201624 0)
(-0.037299 0.0205693 0)
(-0.040735 0.0208915 0)
(-0.0442101 0.0211306 0)
(-0.0477121 0.021286 0)
(-0.0512287 0.0213553 0)
(-0.0547465 0.0213343 0)
(-0.0582515 0.0212175 0)
(-0.0617287 0.0209982 0)
(-0.0651617 0.0206692 0)
(-0.0685335 0.0202227 0)
(-0.0718258 0.0196513 0)
(-0.0750191 0.0189477 0)
(-0.0780935 0.0181056 0)
(-0.0810281 0.0171197 0)
(-0.0838013 0.0159862 0)
(-0.0863916 0.014703 0)
(-0.088777 0.0132699 0)
(-0.0909358 0.0116888 0)
(-0.0928468 0.00996406 0)
(-0.0944894 0.00810246 0)
(-0.0958439 0.00611326 0)
(-0.0968921 0.00400835 0)
(-0.0976173 0.00180221 0)
(-0.0980047 -0.000488166 0)
(-0.0980416 -0.00284342 0)
(-0.097718 -0.00524178 0)
(-0.0970266 -0.00765947 0)
(-0.0959633 -0.0100709 0)
(-0.0945271 -0.0124491 0)
(-0.0927208 -0.0147659 0)
(-0.0905509 -0.0169923 0)
(-0.0880279 -0.0190992 0)
(-0.0851664 -0.0210579 0)
(-0.081985 -0.0228404 0)
(-0.0785066 -0.0244201 0)
(-0.0747581 -0.0257723 0)
(-0.0707703 -0.0268752 0)
(-0.0665776 -0.0277098 0)
(-0.062218 -0.0282611 0)
(-0.0577319 -0.028518 0)
(-0.0531625 -0.0284743 0)
(-0.0485544 -0.0281288 0)
(-0.0439533 -0.0274852 0)
(-0.0394052 -0.0265529 0)
(-0.0349556 -0.0253465 0)
(-0.0306481 -0.0238861 0)
(-0.0265245 -0.0221965 0)
(-0.0226231 -0.0203077 0)
(-0.0189783 -0.0182538 0)
(-0.0156197 -0.0160728 0)
(-0.0125714 -0.0138061 0)
(-0.0098518 -0.0114979 0)
(-0.00747244 -0.00919504 0)
(-0.00543822 -0.00694598 0)
(-0.0037469 -0.00480091 0)
(-0.00238898 -0.00281126 0)
(-0.0013477 -0.00102961 0)
(-0.000598953 0.000490449 0)
(-0.000111353 0.00169428 0)
(0.000153742 0.00252609 0)
(0.000241851 0.00292873 0)
(0.000205036 0.00284362 0)
(0.00010671 0.00221059 0)
(2.55541e-05 0.000965062 0)
(-7.68362e-05 0.00107666 0)
(-0.000517057 0.00335398 0)
(-0.00146573 0.00565267 0)
(-0.00281733 0.00790012 0)
(-0.00451207 0.0100465 0)
(-0.00651274 0.0120576 0)
(-0.00878327 0.0139121 0)
(-0.0112903 0.0155995 0)
(-0.0140043 0.0171177 0)
(-0.0168995 0.0184704 0)
(-0.0199532 0.0196656 0)
(-0.0231453 0.0207136 0)
(-0.0264582 0.0216254 0)
(-0.0298762 0.0224124 0)
(-0.0333853 0.0230843 0)
(-0.0369724 0.0236497 0)
(-0.0406252 0.0241147 0)
(-0.0443319 0.0244832 0)
(-0.0480806 0.0247565 0)
(-0.0518589 0.0249337 0)
(-0.0556541 0.0250118 0)
(-0.0594525 0.0249856 0)
(-0.0632397 0.0248488 0)
(-0.067 0.0245935 0)
(-0.0707165 0.0242115 0)
(-0.0743714 0.0236938 0)
(-0.0779455 0.0230319 0)
(-0.0814187 0.0222177 0)
(-0.0847699 0.021244 0)
(-0.0879772 0.0201048 0)
(-0.0910181 0.0187958 0)
(-0.0938698 0.0173148 0)
(-0.096509 0.0156614 0)
(-0.0989128 0.0138378 0)
(-0.101058 0.011849 0)
(-0.102924 0.00970248 0)
(-0.104488 0.00740861 0)
(-0.10573 0.00498068 0)
(-0.106633 0.00243488 0)
(-0.107178 -0.000209781 0)
(-0.107353 -0.00293139 0)
(-0.107144 -0.00570575 0)
(-0.106543 -0.00850612 0)
(-0.105543 -0.0113037 0)
(-0.104141 -0.0140679 0)
(-0.102339 -0.0167668 0)
(-0.10014 -0.0193675 0)
(-0.097555 -0.0218369 0)
(-0.0945962 -0.0241418 0)
(-0.0912815 -0.02625 0)
(-0.0876334 -0.0281305 0)
(-0.0836786 -0.0297547 0)
(-0.0794484 -0.0310963 0)
(-0.0749782 -0.032133 0)
(-0.0703072 -0.0328461 0)
(-0.0654782 -0.033222 0)
(-0.0605368 -0.0332519 0)
(-0.055531 -0.032933 0)
(-0.0505101 -0.0322683 0)
(-0.0455243 -0.0312672 0)
(-0.0406235 -0.0299452 0)
(-0.0358563 -0.028324 0)
(-0.0312693 -0.0264314 0)
(-0.0269059 -0.0243009 0)
(-0.0228056 -0.0219709 0)
(-0.0190026 -0.0194847 0)
(-0.0155258 -0.0168897 0)
(-0.0123974 -0.0142365 0)
(-0.00963286 -0.0115787 0)
(-0.00724023 -0.00897212 0)
(-0.00521987 -0.00647431 0)
(-0.00356434 -0.00414429 0)
(-0.00225832 -0.00204219 0)
(-0.00127863 -0.000229139 0)
(-0.000594255 0.00123274 0)
(-0.00016652 0.00228028 0)
(5.05781e-05 0.00284905 0)
(0.000109985 0.00287333 0)
(7.49574e-05 0.00228601 0)
(2.13011e-05 0.0010158 0)
(-8.57177e-05 0.00135356 0)
(-0.000573311 0.00412464 0)
(-0.00162004 0.00686122 0)
(-0.00310614 0.00949524 0)
(-0.0049632 0.0119816 0)
(-0.00714847 0.0142907 0)
(-0.00962109 0.0164059 0)
(-0.0123437 0.0183212 0)
(-0.0152839 0.0200381 0)
(-0.0184135 0.0215644 0)
(-0.0217081 0.022911 0)
(-0.0251465 0.024091 0)
(-0.0287104 0.025118 0)
(-0.0323836 0.026005 0)
(-0.0361517 0.0267633 0)
(-0.0400017 0.0274024 0)
(-0.0439211 0.0279289 0)
(-0.047898 0.0283469 0)
(-0.0519205 0.0286576 0)
(-0.0559761 0.0288595 0)
(-0.0600519 0.028949 0)
(-0.064134 0.02892 0)
(-0.0682075 0.028765 0)
(-0.0722564 0.0284751 0)
(-0.0762634 0.0280407 0)
(-0.0802098 0.0274518 0)
(-0.0840759 0.0266987 0)
(-0.0878409 0.0257723 0)
(-0.0914827 0.0246643 0)
(-0.0949785 0.0233682 0)
(-0.0983048 0.0218791 0)
(-0.101437 0.0201942 0)
(-0.104352 0.0183133 0)
(-0.107024 0.0162387 0)
(-0.10943 0.0139756 0)
(-0.111545 0.0115323 0)
(-0.113347 0.00892014 0)
(-0.114814 0.00615378 0)
(-0.115925 0.00325095 0)
(-0.116661 0.000232634 0)
(-0.117006 -0.00287702 0)
(-0.116945 -0.0060512 0)
(-0.116466 -0.00926025 0)
(-0.115561 -0.0124721 0)
(-0.114225 -0.0156526 0)
(-0.112457 -0.0187659 0)
(-0.110258 -0.0217751 0)
(-0.107636 -0.0246426 0)
(-0.104603 -0.0273308 0)
(-0.101175 -0.0298025 0)
(-0.0973728 -0.0320224 0)
(-0.0932238 -0.0339568 0)
(-0.0887589 -0.0355752 0)
(-0.0840141 -0.0368506 0)
(-0.0790301 -0.0377607 0)
(-0.0738515 -0.0382881 0)
(-0.0685266 -0.0384213 0)
(-0.0631066 -0.0381552 0)
(-0.0576448 -0.0374917 0)
(-0.0521959 -0.0364393 0)
(-0.0468145 -0.0350144 0)
(-0.0415549 -0.0332401 0)