/*--------------------------------*- C++ -*----------------------------------*\
  =========                 |
  \\      /  F ield         | OpenFOAM: The Open Source CFD Toolbox
   \\    /   O peration     | Website:  https://openfoam.org
    \\  /    A nd           | Version:  7
     \\/     M anipulation  |
\*---------------------------------------------------------------------------*/
FoamFile
{
    version     2.0;
    format      ascii;
    class       volScalarField;
    location    "3";
    object      p;
}
// * * * * * * * * * * * * * * * * * * * * * * * * * * * * * * * * * * * * * //

dimensions      [0 2 -2 0 0 0 0];

internalField   nonuniform List<scalar> 
6400
(
-1.55302e-08
1.44438e-05
3.75968e-06
-3.56234e-05
-0.000101525
-0.000190639
-0.000299306
-0.000424188
-0.000562565
-0.000712375
-0.000872117
-0.00104073
-0.00121745
-0.00140168
-0.00159289
-0.00179046
-0.00199366
-0.00220157
-0.00241298
-0.00262645
-0.0028402
-0.00305216
-0.00325991
-0.00346077
-0.00365177
-0.00382969
-0.00399114
-0.00413261
-0.00425056
-0.00434149
-0.0044021
-0.00442935
-0.00442065
-0.00437397
-0.00428796
-0.00416213
-0.00399691
-0.00379383
-0.00355552
-0.0032858
-0.00298967
-0.00267308
-0.00234341
-0.00200865
-0.00167755
-0.00135933
-0.00106339
-0.000798964
-0.000574845
-0.000398989
-0.000278217
-0.000217916
-0.000221797
-0.000291711
-0.000427557
-0.000627258
-0.000886841
-0.0012006
-0.00156148
-0.00196095
-0.00238993
-0.00283881
-0.0032979
-0.00375779
-0.00420965
-0.00464548
-0.00505828
-0.00544211
-0.00579215
-0.00610457
-0.00637648
-0.00660574
-0.00679084
-0.0069308
-0.00702526
-0.00707485
-0.00708222
-0.00705401
-0.00700314
-0.00694861
-1.5483e-05
-9.32689e-07
-1.32502e-05
-5.09842e-05
-0.000110994
-0.000191127
-0.000288917
-0.000401883
-0.000527891
-0.000665225
-0.000812557
-0.000968885
-0.00113344
-0.0013056
-0.00148477
-0.00167034
-0.00186158
-0.00205758
-0.00225726
-0.00245926
-0.00266198
-0.00286351
-0.00306169
-0.00325406
-0.00343792
-0.00361032
-0.00376815
-0.00390818
-0.00402713
-0.00412174
-0.0041889
-0.00422576
-0.00422984
-0.00419915
-0.00413234
-0.00402884
-0.00388894
-0.00371391
-0.00350608
-0.00326888
-0.00300686
-0.00272551
-0.0024315
-0.00213226
-0.00183589
-0.00155094
-0.00128615
-0.00105011
-0.000851005
-0.000696234
-0.000592142
-0.000543731
-0.000554432
-0.000625936
-0.000758105
-0.000948963
-0.00119478
-0.00149021
-0.00182857
-0.00220212
-0.00260229
-0.00302024
-0.00344703
-0.00387402
-0.00429313
-0.00469707
-0.00507948
-0.00543499
-0.0057593
-0.00604905
-0.00630179
-0.00651584
-0.00669018
-0.00682445
-0.0069189
-0.00697475
-0.00699481
-0.0069843
-0.00694855
-0.00689396
-5.17438e-06
1.03991e-05
-2.55231e-06
-3.96558e-05
-9.6662e-05
-0.000171683
-0.000262725
-0.000367787
-0.000485118
-0.000613295
-0.000751207
-0.000897994
-0.00105299
-0.00121562
-0.00138537
-0.00156167
-0.00174388
-0.00193118
-0.00212258
-0.00231686
-0.00251258
-0.00270799
-0.0029011
-0.00308964
-0.00327108
-0.00344269
-0.00360149
-0.00374442
-0.00386829
-0.00396995
-0.00404633
-0.00409458
-0.00411217
-0.00409703
-0.00404768
-0.00396334
-0.00384409
-0.00369094
-0.0035059
-0.00329208
-0.00305361
-0.00279588
-0.00252501
-0.00224811
-0.00197296
-0.00170781
-0.00146109
-0.00124116
-0.00105596
-0.000912704
-0.000817591
-0.000775504
-0.000789794
-0.000862111
-0.000992314
-0.00117846
-0.0014169
-0.00170241
-0.00202846
-0.00238749
-0.00277128
-0.00317118
-0.00357864
-0.0039854
-0.00438378
-0.00476691
-0.00512889
-0.00546479
-0.00577076
-0.00604391
-0.00628221
-0.00648442
-0.00664995
-0.00677878
-0.00687141
-0.00692891
-0.00695352
-0.00694864
-0.00691297
-0.00684327
3.56714e-05
4.78624e-05
3.22391e-05
-6.0361e-06
-6.24043e-05
-0.000134954
-0.000221934
-0.00032162
-0.000432578
-0.000553676
-0.000684048
-0.000823037
-0.000970142
-0.00112495
-0.00128707
-0.00145606
-0.0016314
-0.00181241
-0.00199826
-0.00218786
-0.00237993
-0.00257288
-0.00276488
-0.00295379
-0.00313724
-0.00331256
-0.0034769
-0.00362719
-0.00376029
-0.00387297
-0.00396209
-0.00402466
-0.00405797
-0.00405974
-0.00402824
-0.00396241
-0.00386204
-0.00372784
-0.00356153
-0.00336595
-0.00314493
-0.00290361
-0.00264796
-0.00238491
-0.00212211
-0.00186774
-0.00163021
-0.00141785
-0.00123865
-0.00109988
-0.00100782
-0.000967413
-0.000982098
-0.00105359
-0.00118178
-0.00136477
-0.00159889
-0.00187892
-0.00219831
-0.00254947
-0.00292416
-0.0033138
-0.00370986
-0.0041042
-0.00448931
-0.00485856
-0.00520632
-0.00552803
-0.00582021
-0.0060804
-0.00630701
-0.00649922
-0.00665683
-0.00678005
-0.00686942
-0.00692569
-0.00695032
-0.00694507
-0.00690369
-0.00681641
0.000106027
0.000109012
8.74621e-05
4.58728e-05
-1.17661e-05
-8.3621e-05
-0.000168132
-0.000263897
-0.000369818
-0.00048507
-0.000609069
-0.000741411
-0.000881822
-0.00103009
-0.00118601
-0.00134932
-0.00151969
-0.0016966
-0.00187941
-0.0020672
-0.00225884
-0.00245293
-0.00264775
-0.00284131
-0.00303128
-0.00321508
-0.00338982
-0.00355242
-0.0036996
-0.003828
-0.00393427
-0.00401517
-0.0040677
-0.00408925
-0.00407777
-0.00403184
-0.00395091
-0.00383535
-0.00368659
-0.00350721
-0.00330079
-0.00307229
-0.00282757
-0.0025735
-0.00231774
-0.00206851
-0.00183432
-0.00162367
-0.00144472
-0.00130498
-0.00121093
-0.00116774
-0.00117905
-0.00124673
-0.00137082
-0.00154946
-0.00177902
-0.00205423
-0.00236845
-0.00271398
-0.00308243
-0.00346511
-0.00385339
-0.00423906
-0.00461463
-0.00497356
-0.00531037
-0.00562078
-0.00590161
-0.00615079
-0.00636714
-0.00655026
-0.0067003
-0.00681774
-0.00690315
-0.00695702
-0.00698022
-0.00697333
-0.00692688
-0.00682717
0.00020322
0.000191953
0.000161324
0.000114301
5.3605e-05
-1.91756e-05
-0.000102709
-0.000195967
-0.00029822
-0.000408994
-0.000528027
-0.000655214
-0.000790547
-0.000934067
-0.00108581
-0.00124574
-0.00141373
-0.00158951
-0.00177261
-0.00196233
-0.0021577
-0.00235747
-0.00256004
-0.00276348
-0.00296551
-0.00316349
-0.00335448
-0.0035352
-0.0037022
-0.00385183
-0.00398042
-0.00408437
-0.00416029
-0.00420515
-0.00421649
-0.00419248
-0.00413218
-0.00403559
-0.00390386
-0.00373933
-0.00354533
-0.00332671
-0.00308926
-0.00283985
-0.00258623
-0.00233677
-0.00210019
-0.00188526
-0.00170046
-0.00155363
-0.00145162
-0.00139997
-0.00140264
-0.0014618
-0.00157773
-0.00174873
-0.00197125
-0.00224002
-0.0025483
-0.00288826
-0.00325129
-0.00362848
-0.00401098
-0.00439039
-0.00475908
-0.00511045
-0.00543906
-0.00574075
-0.00601257
-0.00625276
-0.00646049
-0.00663573
-0.00677898
-0.00689098
-0.00697242
-0.00702368
-0.00704527
-0.00703706
-0.00698793
-0.00688232
0.000323427
0.000293682
0.000251402
0.000197108
0.000131645
5.64797e-05
-2.74507e-05
-0.000119574
-0.00021959
-0.000327417
-0.00044316
-0.00056705
-0.00069939
-0.000840516
-0.000990741
-0.0011503
-0.00131934
-0.00149781
-0.00168548
-0.00188185
-0.00208612
-0.00229717
-0.00251348
-0.00273315
-0.00295384
-0.0031728
-0.00338688
-0.00359257
-0.00378606
-0.00396334
-0.00412029
-0.00425285
-0.00435713
-0.00442963
-0.00446738
-0.00446812
-0.00443044
-0.00435396
-0.00423957
-0.00408954
-0.00390638
-0.00369534
-0.00346207
-0.00321347
-0.0029574
-0.00270245
-0.00245761
-0.00223202
-0.00203458
-0.00187359
-0.00175641
-0.00168907
-0.00167605
-0.00171996
-0.00182147
-0.00197919
-0.00218976
-0.00244802
-0.0027472
-0.00307933
-0.00343561
-0.00380684
-0.00418386
-0.00455796
-0.00492126
-0.00526696
-0.0055895
-0.00588471
-0.00614976
-0.00638302
-0.00658398
-0.0067529
-0.0068906
-0.00699809
-0.00707625
-0.00712549
-0.00714618
-0.00713786
-0.00708898
-0.00698366
0.000462043
0.000410487
0.000354258
0.000291037
0.000219567
0.000140808
5.52622e-05
-3.70325e-05
-0.000136272
-0.000242826
-0.000357205
-0.000480014
-0.000611907
-0.000753553
-0.000905579
-0.00106853
-0.00124282
-0.0014287
-0.00162616
-0.00183491
-0.00205432
-0.00228333
-0.00252049
-0.00276382
-0.00301087
-0.00325866
-0.00350376
-0.00374227
-0.00396995
-0.00418228
-0.00437461
-0.00454231
-0.00468094
-0.00478641
-0.00485521
-0.00488456
-0.00487259
-0.00481851
-0.00472299
-0.00458854
-0.00441511
-0.00421015
-0.00397873
-0.00372767
-0.00346495
-0.00319938
-0.00294028
-0.00269721
-0.00247957
-0.00229626
-0.00215526
-0.0020633
-0.00202552
-0.00204518
-0.00212354
-0.00225973
-0.00245076
-0.00269171
-0.00297593
-0.00329541
-0.00364117
-0.00400373
-0.00437359
-0.00474166
-0.00509967
-0.00544046
-0.00575824
-0.00604867
-0.00630884
-0.0065372
-0.00673338
-0.00689784
-0.00703167
-0.00713614
-0.00721233
-0.00726082
-0.007282
-0.00727535
-0.00722972
-0.00713001
0.000614005
0.000537873
0.000465892
0.000392544
0.000313992
0.000230616
0.000142358
4.86083e-05
-5.14011e-05
-0.000158543
-0.000273779
-0.000398128
-0.000532632
-0.000678317
-0.000836162
-0.00100705
-0.0011917
-0.00139065
-0.00160414
-0.00183206
-0.00207391
-0.0023287
-0.00259493
-0.00287049
-0.00315271
-0.00343831
-0.00372343
-0.0040037
-0.00427431
-0.00453016
-0.00476596
-0.00497644
-0.00515648
-0.0053014
-0.00540704
-0.00547008
-0.00548814
-0.00545999
-0.00538551
-0.00526556
-0.00510492
-0.00490611
-0.00467508
-0.0044189
-0.00414567
-0.00386442
-0.00358482
-0.0033169
-0.00307064
-0.00285563
-0.00268063
-0.00255322
-0.00247943
-0.00246342
-0.00250727
-0.00261087
-0.00277187
-0.00298581
-0.00324635
-0.00354558
-0.00387446
-0.00422328
-0.00458219
-0.00494165
-0.00529292
-0.00562838
-0.0059418
-0.00622851
-0.00648538
-0.00671075
-0.0069042
-0.00706633
-0.00719836
-0.00730176
-0.00737785
-0.0074274
-0.00745091
-0.00744798
-0.00740844
-0.0073186
0.000773699
0.000670736
0.00058163
0.000497249
0.000410806
0.000321963
0.000229965
0.000133448
3.09932e-05
-7.88351e-05
-0.000197495
-0.000326451
-0.000467164
-0.000621056
-0.00078948
-0.000973671
-0.00117469
-0.00139334
-0.00163011
-0.00188507
-0.00215779
-0.00244729
-0.00275193
-0.00306943
-0.00339676
-0.00373023
-0.00406547
-0.00439752
-0.00472092
-0.00502988
-0.00531838
-0.00558043
-0.00581021
-0.0060023
-0.00615191
-0.00625505
-0.00630878
-0.00631133
-0.00626208
-0.00616151
-0.00601355
-0.00582107
-0.00558969
-0.00532632
-0.00503912
-0.00473727
-0.00443079
-0.00413016
-0.00384602
-0.00358874
-0.00336802
-0.00319246
-0.00306922
-0.0030036
-0.00299883
-0.00305585
-0.00317327
-0.00334739
-0.00357244
-0.00384085
-0.00414367
-0.00447108
-0.00481291
-0.00515918
-0.00550057
-0.00582888
-0.00613729
-0.00642062
-0.00667529
-0.00689933
-0.00709214
-0.00725424
-0.00738685
-0.00749156
-0.00756984
-0.00762265
-0.00765065
-0.00765359
-0.0076226
-0.00754585
0.000934957
0.000803348
0.000696103
0.000600059
0.000505133
0.00041009
0.000313347
0.000212676
0.000105922
-8.96459e-06
-0.000133986
-0.00027109
-0.00042218
-0.000589103
-0.00077361
-0.000977307
-0.00120159
-0.00144754
-0.00171586
-0.00200676
-0.00231984
-0.00265405
-0.00300755
-0.00337775
-0.0037612
-0.00415369
-0.00455023
-0.00494517
-0.00533233
-0.00570512
-0.00605675
-0.00638041
-0.00666951
-0.00691786
-0.0071199
-0.00727095
-0.00736737
-0.00740675
-0.00738791
-0.00731098
-0.00717879
-0.00699432
-0.00676283
-0.00649101
-0.00618693
-0.0058599
-0.00552019
-0.00517876
-0.0048469
-0.00453584
-0.00425634
-0.00401823
-0.00383002
-0.00369845
-0.00362823
-0.00362173
-0.00367886
-0.00379709
-0.00397155
-0.00419532
-0.0044598
-0.00475523
-0.00507124
-0.0053974
-0.00572381
-0.00604153
-0.00634302
-0.00662235
-0.0068753
-0.00709934
-0.00729346
-0.00745787
-0.00759364
-0.00770232
-0.0077854
-0.00784397
-0.00787879
-0.00788974
-0.00786943
-0.00780802
0.0010909
0.000929324
0.000803253
0.000695157
0.000591309
0.000489402
0.00038688
0.000280544
0.000167424
4.47956e-05
-8.99199e-05
-0.000239192
-0.000405397
-0.000590828
-0.00079765
-0.00102785
-0.00128315
-0.0015649
-0.001874
-0.00221072
-0.00257464
-0.00296455
-0.00337835
-0.00381301
-0.00426459
-0.00472825
-0.00519828
-0.00566828
-0.00613123
-0.0065797
-0.00700604
-0.00740258
-0.00776184
-0.00807681
-0.00834111
-0.00854923
-0.00869675
-0.00878049
-0.00879862
-0.00875079
-0.00863866
-0.00846511
-0.00823488
-0.00795431
-0.0076313
-0.00727514
-0.00689628
-0.00650608
-0.00611649
-0.00573965
-0.00538744
-0.0050711
-0.00480071
-0.00458475
-0.00442976
-0.00433993
-0.00431695
-0.00435988
-0.00446521
-0.00462706
-0.00483754
-0.00508722
-0.0053657
-0.0056622
-0.0059662
-0.00626798
-0.00655907
-0.0068326
-0.00708344
-0.00730825
-0.00750531
-0.00767429
-0.00781587
-0.00793132
-0.00802201
-0.00808901
-0.00813308
-0.00815416
-0.0081463
-0.00810173
0.00123411
0.00104164
0.000896361
0.000776013
0.000662909
0.000553488
0.000444076
0.000330396
0.000208595
7.52172e-05
-7.29323e-05
-0.000238872
-0.000425483
-0.00063552
-0.000871575
-0.00113601
-0.00143088
-0.00175777
-0.00211771
-0.002511
-0.00293712
-0.00339461
-0.003881
-0.00439277
-0.00492536
-0.00547321
-0.00602984
-0.00658797
-0.00713971
-0.00767671
-0.00819037
-0.0086721
-0.00911348
-0.00950657
-0.00984407
-0.0101196
-0.0103278
-0.0104647
-0.0105276
-0.0105154
-0.0104289
-0.0102704
-0.010044
-0.00975558
-0.00941268
-0.00902445
-0.00860139
-0.00815517
-0.00769831
-0.00724382
-0.00680479
-0.00639393
-0.00602309
-0.00570277
-0.00544168
-0.00524628
-0.0051205
-0.00506552
-0.00507972
-0.00515878
-0.005296
-0.00548263
-0.00570855
-0.0059628
-0.0062343
-0.00651247
-0.00678779
-0.00705222
-0.00729944
-0.00752498
-0.00772611
-0.00790164
-0.00805155
-0.00817659
-0.00827778
-0.00835597
-0.00841175
-0.00844499
-0.0084511
-0.00842424
0.00135651
0.00113268
0.000968087
0.000835442
0.000712809
0.000595186
0.00047765
0.000354749
0.000221677
7.42105e-05
-9.15096e-05
-0.000279079
-0.000491902
-0.000733211
-0.00100603
-0.00131311
-0.00165678
-0.00203885
-0.00246043
-0.00292176
-0.00342215
-0.00395981
-0.0045318
-0.00513401
-0.00576119
-0.00640696
-0.00706398
-0.00772405
-0.00837831
-0.00901741
-0.00963177
-0.0102118
-0.010748
-0.0112315
-0.0116539
-0.012008
-0.0122874
-0.012487
-0.0126034
-0.0126346
-0.0125803
-0.0124421
-0.0122233
-0.0119292
-0.0115668
-0.011145
-0.0106741
-0.010166
-0.00963351
-0.00909053
-0.00855125
-0.00802991
-0.00754024
-0.00709496
-0.00670526
-0.00638027
-0.00612668
-0.00594836
-0.00584621
-0.00581811
-0.00585907
-0.00596163
-0.00611632
-0.00631231
-0.00653811
-0.00678231
-0.0070342
-0.00728437
-0.00752501
-0.00775017
-0.00795575
-0.00813931
-0.0082998
-0.00843711
-0.00855162
-0.00864374
-0.00871367
-0.00876106
-0.00878244
-0.00877376
0.00144953
0.00119432
0.00101057
0.000865693
0.000733269
0.000606679
0.00047963
0.000345412
0.000198208
3.29791e-05
-0.000154823
-0.000369399
-0.000614696
-0.000894439
-0.00121209
-0.00157075
-0.00197302
-0.00242087
-0.00291543
-0.00345682
-0.00404408
-0.00467499
-0.00534608
-0.00605254
-0.00678831
-0.00754616
-0.00831778
-0.00909398
-0.00986484
-0.01062
-0.0113487
-0.0120403
-0.0126844
-0.0132708
-0.0137902
-0.0142343
-0.0145956
-0.0148681
-0.0150472
-0.01513
-0.0151152
-0.0150035
-0.0147973
-0.0145012
-0.0141214
-0.0136663
-0.0131459
-0.0125719
-0.0119575
-0.0113172
-0.010666
-0.0100198
-0.00939398
-0.00880371
-0.00826285
-0.00778358
-0.00737579
-0.00704665
-0.00680024
-0.00663736
-0.00655552
-0.00654918
-0.00661012
-0.00672809
-0.0068915
-0.00708821
-0.00730632
-0.0075348
-0.00776408
-0.00798636
-0.00819572
-0.00838808
-0.00856092
-0.0087129
-0.0088434
-0.00895208
-0.00903854
-0.00910194
-0.00913981
-0.00914955
0.00150416
0.00121804
0.00101553
0.000858575
0.000716074
0.000579646
0.000441521
0.000293661
0.000129194
-5.7773e-05
-0.000272501
-0.000519817
-0.00080423
-0.00112996
-0.0015009
-0.00192049
-0.00239156
-0.00291617
-0.0034954
-0.00412919
-0.0048162
-0.00555372
-0.00633759
-0.00716224
-0.00802074
-0.00890488
-0.00980532
-0.0107118
-0.0116132
-0.0124981
-0.0133546
-0.0141709
-0.0149354
-0.0156369
-0.0162649
-0.0168099
-0.0172635
-0.0176186
-0.0178696
-0.0180125
-0.0180449
-0.0179666
-0.0177791
-0.0174858
-0.0170924
-0.0166063
-0.016037
-0.015396
-0.0146963
-0.0139527
-0.013181
-0.0123982
-0.0116215
-0.0108683
-0.0101552
-0.00949769
-0.00890926
-0.00840091
-0.00798061
-0.00765287
-0.00741854
-0.00727486
-0.00721566
-0.00723192
-0.00731241
-0.00744457
-0.00761533
-0.00781199
-0.00802292
-0.00823806
-0.00844923
-0.00865019
-0.00883647
-0.00900504
-0.00915392
-0.00928163
-0.00938689
-0.00946816
-0.0095236
-0.00955198
0.00151121
0.0011951
0.000974456
0.000805624
0.000652713
0.00050545
0.000354503
0.000190457
5.34869e-06
-0.000207589
-0.000454357
-0.000740425
-0.00107087
-0.00145042
-0.00188337
-0.00237347
-0.00292374
-0.00353626
-0.00421199
-0.00495058
-0.00575023
-0.00660761
-0.00751782
-0.00847441
-0.00946946
-0.0104937
-0.0115367
-0.0125869
-0.0136321
-0.0146596
-0.0156564
-0.0166093
-0.0175057
-0.0183331
-0.0190801
-0.0197359
-0.0202912
-0.0207378
-0.021069
-0.0212799
-0.0213671
-0.0213293
-0.0211671
-0.0208828
-0.020481
-0.0199684
-0.0193536
-0.0186474
-0.0178625
-0.0170135
-0.0161167
-0.0151898
-0.0142515
-0.0133211
-0.012418
-0.0115608
-0.0107669
-0.0100517
-0.00942756
-0.00890353
-0.00848477
-0.00817228
-0.00796294
-0.00784984
-0.00782286
-0.00786948
-0.00797577
-0.00812733
-0.00831024
-0.00851184
-0.00872117
-0.00892929
-0.00912921
-0.00931571
-0.00948492
-0.00963389
-0.00976008
-0.00986098
-0.00993516
-0.00998261
0.00146138
0.00111672
0.000878773
0.000698297
0.000534574
0.000375347
0.00020966
2.66883e-05
-0.00018264
-0.000425983
-0.000710097
-0.00104111
-0.00142467
-0.001866
-0.00236978
-0.00294003
-0.00357988
-0.00429138
-0.00507528
-0.00593083
-0.00685568
-0.00784577
-0.00889534
-0.00999695
-0.0111416
-0.0123188
-0.0135169
-0.0147231
-0.015924
-0.0171054
-0.0182531
-0.0193528
-0.0203905
-0.0213528
-0.022227
-0.0230015
-0.0236659
-0.0242111
-0.0246295
-0.0249152
-0.025064
-0.0250736
-0.0249433
-0.0246748
-0.0242714
-0.0237387
-0.0230843
-0.0223182
-0.0214521
-0.0205002
-0.0194787
-0.0184055
-0.0173002
-0.0161837
-0.0150777
-0.0140039
-0.0129836
-0.0120365
-0.0111801
-0.0104287
-0.00979268
-0.0092779
-0.00888548
-0.00861178
-0.00844877
-0.00838479
-0.00840552
-0.00849509
-0.00863723
-0.00881631
-0.00901813
-0.00923042
-0.00944307
-0.00964803
-0.00983902
-0.0100111
-0.0101602
-0.0102825
-0.0103767
-0.0104438
0.00134561
0.000974283
0.000720057
0.000528186
0.000353183
0.000180738
-1.76068e-06
-0.000206551
-0.000443822
-0.000722132
-0.001049
-0.00143121
-0.00187499
-0.00238603
-0.00296936
-0.00362922
-0.0043688
-0.00519003
-0.00609332
-0.00707745
-0.00813938
-0.00927421
-0.0104752
-0.0117338
-0.0130397
-0.0143812
-0.0157454
-0.0171179
-0.0184841
-0.0198283
-0.0211352
-0.0223891
-0.0235749
-0.0246782
-0.0256853
-0.0265836
-0.027362
-0.0280105
-0.0285209
-0.0288865
-0.0291023
-0.029165
-0.0290732
-0.0288274
-0.02843
-0.0278852
-0.0271996
-0.0263818
-0.0254426
-0.024395
-0.0232545
-0.0220387
-0.0207676
-0.0194629
-0.018148
-0.0168471
-0.0155851
-0.0143861
-0.0132728
-0.0122654
-0.0113802
-0.0106292
-0.010019
-0.00955065
-0.00921945
-0.00901577
-0.00892573
-0.00893248
-0.00901754
-0.00916212
-0.0093483
-0.0095599
-0.00978299
-0.010006
-0.0102196
-0.0104164
-0.0105902
-0.0107355
-0.0108512
-0.010939
0.00115522
0.000759576
0.000490279
0.000287271
0.000100448
-8.65752e-05
-0.000288067
-0.000517672
-0.000786684
-0.00110456
-0.00147958
-0.00191918
-0.00243015
-0.00301862
-0.00368994
-0.0044485
-0.00529746
-0.00623852
-0.00727169
-0.00839511
-0.00960493
-0.0108953
-0.0122583
-0.0136841
-0.0151612
-0.0166764
-0.0182151
-0.0197617
-0.0213
-0.0228132
-0.0242842
-0.0256966
-0.0270339
-0.0282809
-0.029423
-0.0304471
-0.0313412
-0.032095
-0.0326996
-0.0331477
-0.0334339
-0.0335541
-0.0335063
-0.0332898
-0.0329062
-0.0323584
-0.0316517
-0.0307932
-0.0297922
-0.0286606
-0.0274123
-0.0260641
-0.0246354
-0.0231479
-0.0216259
-0.0200955
-0.0185844
-0.0171207
-0.0157321
-0.0144448
-0.0132819
-0.0122624
-0.0113997
-0.010701
-0.0101667
-0.00979058
-0.00956049
-0.00945946
-0.00946723
-0.0095619
-0.0097215
-0.00992534
-0.0101549
-0.0103944
-0.0106307
-0.0108532
-0.0110532
-0.0112234
-0.0113621
-0.011472
0.000882214
0.000465034
0.000182036
-3.18444e-05
-0.000231079
-0.000434112
-0.000656846
-0.0009143
-0.00121885
-0.00158083
-0.00200926
-0.00251225
-0.00309709
-0.00377033
-0.00453758
-0.0054033
-0.00637053
-0.00744064
-0.00861309
-0.00988526
-0.0112523
-0.0127074
-0.0142411
-0.0158424
-0.0174981
-0.0191935
-0.0209125
-0.0226379
-0.024352
-0.0260365
-0.0276732
-0.0292444
-0.030733
-0.0321226
-0.0333984
-0.0345465
-0.0355547
-0.0364124
-0.0371104
-0.0376411
-0.0379988
-0.038179
-0.038179
-0.0379976
-0.0376351
-0.0370936
-0.0363769
-0.0354905
-0.0344421
-0.0332417
-0.0319016
-0.0304369
-0.0288656
-0.0272086
-0.02549
-0.0237368
-0.0219785
-0.0202462
-0.0185723
-0.0169887
-0.0155255
-0.0142092
-0.0130615
-0.0120971
-0.0113234
-0.0107394
-0.0103363
-0.0100985
-0.0100047
-0.0100302
-0.0101491
-0.0103355
-0.0105656
-0.0108186
-0.0110767
-0.0113255
-0.0115531
-0.0117498
-0.0119133
-0.0120472
0.000519535
8.39801e-05
-0.000211205
-0.000435677
-0.000647944
-0.000868452
-0.00111469
-0.00140299
-0.00174677
-0.00215723
-0.00264411
-0.00321611
-0.00388106
-0.00464584
-0.00551625
-0.00649674
-0.00759012
-0.0087973
-0.010117
-0.0115458
-0.0130778
-0.0147045
-0.0164155
-0.0181979
-0.0200369
-0.0219161
-0.0238178
-0.0257232
-0.027613
-0.0294675
-0.0312675
-0.0329943
-0.0346298
-0.0361574
-0.0375615
-0.0388284
-0.0399457
-0.0409027
-0.0416903
-0.042301
-0.0427288
-0.0429692
-0.0430191
-0.0428768
-0.0425419
-0.0420154
-0.0412998
-0.040399
-0.0393191
-0.0380679
-0.0366555
-0.035095
-0.0334021
-0.0315962
-0.0296999
-0.0277399
-0.0257461
-0.0237519
-0.0217928
-0.019906
-0.0181281
-0.0164938
-0.0150332
-0.0137706
-0.0127216
-0.011893
-0.0112813
-0.010874
-0.0106503
-0.0105836
-0.0106439
-0.0108002
-0.0110228
-0.0112847
-0.0115627
-0.0118377
-0.012094
-0.0123187
-0.012509
-0.0126692
6.12656e-05
-0.000389151
-0.000694871
-0.000929632
-0.00115555
-0.00139499
-0.00166694
-0.00198898
-0.00237551
-0.00283853
-0.00338849
-0.00403467
-0.00478533
-0.00564766
-0.00662755
-0.00772935
-0.00895549
-0.0103063
-0.0117797
-0.0133711
-0.0150733
-0.0168766
-0.0187686
-0.0207348
-0.0227588
-0.0248222
-0.0269055
-0.0289884
-0.0310501
-0.0330696
-0.0350267
-0.0369018
-0.0386763
-0.0403334
-0.0418574
-0.0432345
-0.0444527
-0.0455015
-0.0463721
-0.0470574
-0.0475516
-0.04785
-0.04795
-0.0478491
-0.0475466
-0.0470426
-0.0463384
-0.0454366
-0.0443414
-0.0430584
-0.0415955
-0.0399629
-0.038174
-0.0362454
-0.0341975
-0.0320551
-0.0298476
-0.0276087
-0.0253759
-0.0231902
-0.0210939
-0.0191292
-0.0173356
-0.0157473
-0.0143904
-0.0132811
-0.0124239
-0.0118117
-0.0114261
-0.01124
-0.0112203
-0.0113307
-0.0115348
-0.0117991
-0.0120938
-0.0123942
-0.0126798
-0.0129341
-0.0131534
-0.0133428
-0.000497131
-0.000958599
-0.00127308
-0.00151779
-0.00175795
-0.00201771
-0.00231747
-0.00267593
-0.00310843
-0.00362772
-0.0042449
-0.00496978
-0.005811
-0.00677597
-0.00787057
-0.00909891
-0.010463
-0.0119623
-0.0135938
-0.0153517
-0.0172273
-0.0192091
-0.0212832
-0.0234331
-0.0256403
-0.0278848
-0.0301452
-0.0323996
-0.0346258
-0.0368016
-0.0389061
-0.0409189
-0.0428214
-0.0445964
-0.0462287
-0.0477048
-0.0490131
-0.0501437
-0.0510886
-0.0518409
-0.0523954
-0.0527476
-0.0528959
-0.0528369
-0.0525697
-0.0520939
-0.05141
-0.0505192
-0.0494239
-0.0481279
-0.0466365
-0.0449572
-0.0431002
-0.041079
-0.0389108
-0.0366177
-0.0342266
-0.0317701
-0.029286
-0.0268174
-0.0244108
-0.022115
-0.0199781
-0.0180449
-0.016353
-0.0149301
-0.0137912
-0.0129372
-0.0123549
-0.0120189
-0.0118938
-0.0119388
-0.0121109
-0.012369
-0.0126757
-0.0129997
-0.0133148
-0.0136001
-0.0138507
-0.0140722
-0.00115863
-0.0016271
-0.00194847
-0.00220273
-0.00245766
-0.00273901
-0.00306847
-0.00346577
-0.00394708
-0.00452587
-0.00521379
-0.00602113
-0.00695684
-0.00802843
-0.00924171
-0.0106004
-0.0121059
-0.0137567
-0.0155488
-0.0174747
-0.0195242
-0.0216841
-0.0239383
-0.0262685
-0.0286542
-0.0310734
-0.0335031
-0.0359196
-0.0382996
-0.0406201
-0.0428592
-0.0449964
-0.047013
-0.0488922
-0.0506191
-0.0521809
-0.0535667
-0.0547675
-0.0557759
-0.0565861
-0.0571936
-0.0575953
-0.0577869
-0.0577681
-0.0575371
-0.0570933
-0.0564362
-0.0555663
-0.0544844
-0.0531925
-0.0516934
-0.0499921
-0.0480954
-0.0460132
-0.043759
-0.0413511
-0.038813
-0.0361743
-0.0334714
-0.0307472
-0.0280507
-0.0254353
-0.0229568
-0.0206698
-0.0186241
-0.0168605
-0.0154068
-0.0142748
-0.0134597
-0.0129401
-0.0126809
-0.0126376
-0.012761
-0.0130017
-0.0133141
-0.0136589
-0.0140031
-0.0143207
-0.0146048
-0.0148618
-0.00192452
-0.00239577
-0.00272205
-0.00298539
-0.00325548
-0.00355952
-0.00392032
-0.00435853
-0.00489105
-0.00553195
-0.00629342
-0.00718611
-0.0082192
-0.00940023
-0.0107347
-0.012226
-0.0138746
-0.015678
-0.0176307
-0.0197239
-0.0219454
-0.02428
-0.0267096
-0.0292139
-0.0317702
-0.0343548
-0.0369429
-0.0395095
-0.04203
-0.0444808
-0.0468396
-0.0490859
-0.0512012
-0.0531691
-0.0549755
-0.0566085
-0.0580582
-0.0593166
-0.0603772
-0.0612352
-0.0618869
-0.0623296
-0.0625609
-0.0625793
-0.0623839
-0.0619737
-0.061348
-0.0605063
-0.0594486
-0.0581751
-0.0566868
-0.0549858
-0.053076
-0.0509637
-0.0486582
-0.0461734
-0.0435283
-0.0407484
-0.0378667
-0.034924
-0.0319692
-0.0290583
-0.0262524
-0.0236151
-0.0212078
-0.019085
-0.017289
-0.0158458
-0.0147619
-0.0140235
-0.0135986
-0.0134409
-0.0134956
-0.0137052
-0.0140149
-0.0143764
-0.0147487
-0.0150993
-0.0154192
-0.0157154
-0.00279427
-0.00326397
-0.0035931
-0.00386494
-0.00415045
-0.00447804
-0.00487152
-0.00535229
-0.00593786
-0.00664284
-0.00747985
-0.00845982
-0.00959206
-0.010884
-0.0123409
-0.0139652
-0.0157568
-0.0177118
-0.0198232
-0.0220804
-0.0244694
-0.0269728
-0.0295705
-0.0322398
-0.0349564
-0.0376945
-0.0404278
-0.04313
-0.0457759
-0.0483411
-0.0508033
-0.0531421
-0.0553396
-0.0573802
-0.0592506
-0.0609401
-0.0624398
-0.0637429
-0.0648442
-0.0657397
-0.0664266
-0.0669031
-0.0671676
-0.0672191
-0.0670569
-0.06668
-0.0660878
-0.0652793
-0.0642535
-0.0630096
-0.0615468
-0.0598652
-0.0579657
-0.0558512
-0.053527
-0.0510023
-0.048291
-0.0454136
-0.0423979
-0.0392808
-0.0361088
-0.0329375
-0.0298313
-0.0268601
-0.0240955
-0.0216055
-0.0194484
-0.0176662
-0.0162801
-0.0152878
-0.0146636
-0.0143625
-0.0143256
-0.0144876
-0.0147842
-0.0151568
-0.0155553
-0.0159394
-0.0162972
-0.0166361
-0.00376552
-0.00422928
-0.00455914
-0.0048388
-0.00513978
-0.00549153
-0.00591864
-0.00644312
-0.007083
-0.0078533
-0.00876695
-0.00983511
-0.0110671
-0.0124701
-0.0140489
-0.0158052
-0.0177377
-0.0198413
-0.0221073
-0.0245231
-0.0270727
-0.0297367
-0.0324926
-0.0353159
-0.0381801
-0.0410578
-0.0439213
-0.0467434
-0.0494981
-0.0521608
-0.0547094
-0.0571239
-0.0593871
-0.0614845
-0.0634038
-0.0651355
-0.0666719
-0.0680075
-0.0691382
-0.0700611
-0.0707745
-0.0712773
-0.0715687
-0.0716483
-0.0715158
-0.0711706
-0.070612
-0.0698388
-0.0688497
-0.067643
-0.0662167
-0.0645692
-0.062699
-0.060606
-0.0582918
-0.055761
-0.0530223
-0.0500904
-0.0469871
-0.0437437
-0.0404018
-0.0370145
-0.033646
-0.0303697
-0.0272653
-0.0244128
-0.021886
-0.0197449
-0.0180282
-0.0167488
-0.0158916
-0.0154161
-0.0152619
-0.0153573
-0.015628
-0.0160046
-0.0164263
-0.0168437
-0.0172413
-0.0176265
-0.00483405
-0.00528752
-0.00561593
-0.00590257
-0.00621887
-0.00659506
-0.00705633
-0.00762517
-0.00831995
-0.00915601
-0.0101465
-0.0113027
-0.0126338
-0.0141466
-0.0158453
-0.0177309
-0.0198005
-0.0220478
-0.0244621
-0.0270291
-0.0297305
-0.0325447
-0.0354473
-0.0384115
-0.0414091
-0.0444111
-0.0473888
-0.0503141
-0.0531605
-0.0559038
-0.0585219
-0.0609957
-0.0633089
-0.0654479
-0.067402
-0.0691626
-0.0707236
-0.0720805
-0.0732304
-0.0741716
-0.0749032
-0.0754251
-0.0757372
-0.0758397
-0.0757328
-0.0754164
-0.0748898
-0.0741521
-0.0732017
-0.0720365
-0.0706538
-0.0690506
-0.0672239
-0.0651709
-0.0628902
-0.0603821
-0.0576504
-0.0547038
-0.0515578
-0.0482367
-0.0447757
-0.0412224
-0.0376382
-0.0340968
-0.0306824
-0.0274848
-0.0245921
-0.0220823
-0.020014
-0.0184187
-0.017296
-0.0166144
-0.0163153
-0.0163224
-0.0165523
-0.0169239
-0.0173645
-0.0178145
-0.0182534
-0.0186885
-0.00599388
-0.00643277
-0.0067575
-0.00705016
-0.00738137
-0.00778192
-0.00827745
-0.00889071
-0.00964032
-0.0105418
-0.0116084
-0.0128514
-0.0142797
-0.0158998
-0.0177151
-0.0197253
-0.0219267
-0.0243109
-0.0268657
-0.0295745
-0.0324171
-0.0353697
-0.0384057
-0.0414964
-0.0446122
-0.0477226
-0.0507979
-0.0538096
-0.0567312
-0.0595384
-0.0622101
-0.0647278
-0.0670764
-0.0692435
-0.0712195
-0.0729975
-0.0745723
-0.0759407
-0.0771011
-0.0780526
-0.0787953
-0.0793297
-0.0796567
-0.0797771
-0.0796915
-0.0794001
-0.0789029
-0.078199
-0.077287
-0.0761647
-0.074829
-0.0732762
-0.0715022
-0.0695024
-0.0672727
-0.0648101
-0.062114
-0.0591875
-0.0560394
-0.0526867
-0.0491569
-0.0454905
-0.0417426
-0.0379843
-0.0343008
-0.0307878
-0.0275456
-0.0246692
-0.0222376
-0.0203038
-0.0188867
-0.017968
-0.0174952
-0.0173905
-0.0175624
-0.0179184
-0.0183725
-0.0188534
-0.0193347
-0.0198229
-0.00723732
-0.0076575
-0.00797631
-0.00827384
-0.00861929
-0.00904377
-0.00957317
-0.0102303
-0.011034
-0.0119998
-0.0131409
-0.0144683
-0.0159909
-0.0177144
-0.0196413
-0.0217705
-0.0240965
-0.0266094
-0.0292952
-0.0321351
-0.0351069
-0.0381847
-0.0413399
-0.0445422
-0.0477604
-0.050963
-0.0541196
-0.0572015
-0.0601822
-0.0630381
-0.0657485
-0.0682963
-0.0706674
-0.0728507
-0.0748379
-0.0766232
-0.0782029
-0.0795749
-0.0807384
-0.0816935
-0.0824413
-0.0829828
-0.0833197
-0.0834531
-0.0833844
-0.0831143
-0.0826429
-0.08197
-0.0810944
-0.080014
-0.0787257
-0.0772258
-0.0755092
-0.0735705
-0.0714037
-0.0690031
-0.0663645
-0.0634861
-0.0603706
-0.0570275
-0.0534761
-0.0497482
-0.045891
-0.0419693
-0.0380655
-0.0342779
-0.0307147
-0.0274857
-0.0246902
-0.0224042
-0.020669
-0.0194846
-0.0188096
-0.0185681
-0.0186631
-0.0189909
-0.0194518
-0.0199609
-0.0204854
-0.0210296
-0.00855516
-0.00895271
-0.00926336
-0.00956447
-0.00992319
-0.0103708
-0.0109332
-0.0116332
-0.0124894
-0.0135175
-0.0147305
-0.0161392
-0.0177519
-0.0195737
-0.0216063
-0.0238472
-0.0262895
-0.0289217
-0.0317276
-0.0346869
-0.0377749
-0.0409639
-0.0442237
-0.0475222
-0.0508271
-0.0541061
-0.0573284
-0.0604652
-0.0634903
-0.0663808
-0.0691171
-0.0716829
-0.0740654
-0.076255
-0.0782445
-0.0800293
-0.0816068
-0.0829759
-0.0841368
-0.0850905
-0.0858385
-0.0863827
-0.0867251
-0.0868675
-0.0868117
-0.0865588
-0.0861096
-0.0854641
-0.0846215
-0.0835803
-0.0823376
-0.0808898
-0.0792317
-0.0773575
-0.07526
-0.0729319
-0.0703661
-0.0675567