/*--------------------------------*- C++ -*----------------------------------*\
  =========                 |
  \\      /  F ield         | OpenFOAM: The Open Source CFD Toolbox
   \\    /   O peration     | Website:  https://openfoam.org
    \\  /    A nd           | Version:  7
     \\/     M anipulation  |
\*---------------------------------------------------------------------------*/
FoamFile
{
    version     2.0;
    format      ascii;
    class       surfaceScalarField;
    location    "3";
    object      phi;
}
// * * * * * * * * * * * * * * * * * * * * * * * * * * * * * * * * * * * * * //

dimensions      [0 3 -1 0 0 0 0];

internalField   nonuniform List<scalar> 
12640
(
4.05871e-10
-4.05717e-10
1.59166e-09
-1.18581e-09
3.07293e-09
-1.48129e-09
4.46956e-09
-1.39658e-09
5.56171e-09
-1.0921e-09
6.2351e-09
-6.73458e-10
6.44077e-09
-2.05678e-10
6.16768e-09
2.73081e-10
5.42464e-09
7.43062e-10
4.22838e-09
1.19626e-09
2.59654e-09
1.63182e-09
5.437e-10
2.05284e-09
-1.92047e-09
2.4642e-09
-4.7916e-09
2.87113e-09
-8.06995e-09
3.27833e-09
-1.17592e-08
3.68929e-09
-1.58652e-08
4.10597e-09
-2.03939e-08
4.52868e-09
-2.53499e-08
4.95601e-09
-3.07348e-08
5.38484e-09
-3.65452e-08
5.81045e-09
-4.27719e-08
6.22666e-09
-4.93978e-08
6.62593e-09
-5.63973e-08
6.9995e-09
-6.37349e-08
7.33761e-09
-7.13646e-08
7.62965e-09
-7.9229e-08
7.86444e-09
-8.72594e-08
8.03041e-09
-9.53754e-08
8.11593e-09
-1.03485e-07
8.10965e-09
-1.11486e-07
8.00083e-09
-1.19266e-07
7.77975e-09
-1.26704e-07
7.43813e-09
-1.33673e-07
6.96951e-09
-1.40043e-07
6.36974e-09
-1.4568e-07
5.63734e-09
-1.50454e-07
4.77389e-09
-1.54238e-07
3.7843e-09
-1.56916e-07
2.6771e-09
-1.5838e-07
1.46457e-09
-1.58546e-07
1.65869e-10
-1.57338e-07
-1.20834e-09
-1.54713e-07
-2.62436e-09
-1.50653e-07
-4.06045e-09
-1.45166e-07
-5.48703e-09
-1.38293e-07
-6.8731e-09
-1.30106e-07
-8.1867e-09
-1.2071e-07
-9.39582e-09
-1.10241e-07
-1.04696e-08
-9.88613e-08
-1.13793e-08
-8.67617e-08
-1.20996e-08
-7.41516e-08
-1.261e-08
-6.12563e-08
-1.28953e-08
-4.83095e-08
-1.29468e-08
-3.55467e-08
-1.27628e-08
-2.31978e-08
-1.23489e-08
-1.148e-08
-1.17178e-08
-5.90587e-10
-1.08894e-08
9.29997e-09
-9.89054e-09
1.80488e-08
-8.74884e-09
2.5549e-08
-7.50019e-09
3.17293e-08
-6.18033e-09
3.65547e-08
-4.82534e-09
4.00248e-08
-3.4701e-09
4.21716e-08
-2.14684e-09
4.30556e-08
-8.83935e-10
4.27607e-08
2.94846e-10
4.13902e-08
1.37049e-09
3.90617e-08
2.32858e-09
3.59035e-08
3.15819e-09
3.20533e-08
3.8502e-09
2.76585e-08
4.39478e-09
2.28806e-08
4.77795e-09
1.79034e-08
4.97716e-09
1.29472e-08
4.95618e-09
8.28633e-09
4.6609e-09
4.26654e-09
4.0198e-09
1.31488e-09
2.95168e-09
-1.08667e-10
1.42355e-09
-1.08664e-10
1.20002e-09
-1.60574e-09
3.57913e-09
-3.5649e-09
6.26586e-09
-4.16807e-09
8.61821e-09
-3.74889e-09
1.01972e-08
-2.67114e-09
1.07351e-08
-1.21126e-09
1.00889e-08
4.40539e-10
8.19793e-09
2.16401e-09
5.05083e-09
3.89018e-09
6.61359e-10
5.5857e-09
-4.94751e-09
7.24068e-09
-1.17537e-08
8.85901e-09
-1.97409e-08
1.04514e-08
-2.89005e-08
1.20307e-08
-3.92305e-08
1.36083e-08
-5.07332e-08
1.51921e-08
-6.34123e-08
1.67851e-08
-7.72683e-08
1.83847e-08
-9.22947e-08
1.99824e-08
-1.08474e-07
2.1564e-08
-1.25773e-07
2.31097e-08
-1.44141e-07
2.45948e-08
-1.63505e-07
2.59898e-08
-1.83767e-07
2.72617e-08
-2.04804e-07
2.83741e-08
-2.26463e-07
2.92885e-08
-2.48563e-07
2.99652e-08
-2.70897e-07
3.03639e-08
-2.93226e-07
3.04456e-08
-3.1529e-07
3.0173e-08
-3.36801e-07
2.95124e-08
-3.57456e-07
2.84349e-08
-3.76936e-07
2.69175e-08
-3.94911e-07
2.49449e-08
-4.11052e-07
2.25104e-08
-4.25031e-07
1.96168e-08
-4.36536e-07
1.62781e-08
-4.45271e-07
1.25195e-08
-4.50972e-07
8.37804e-09
-4.5341e-07
3.90295e-09
-4.52404e-07
-8.40269e-10
-4.47819e-07
-5.79319e-09
-4.39584e-07
-1.08592e-08
-4.27692e-07
-1.59524e-08
-4.12204e-07
-2.09747e-08
-3.93254e-07
-2.58235e-08
-3.71046e-07
-3.03943e-08
-3.45858e-07
-3.45839e-08
-3.18034e-07
-3.82934e-08
-2.87982e-07
-4.14318e-08
-2.56162e-07
-4.39192e-08
-2.23082e-07
-4.56904e-08
-1.8928e-07
-4.66977e-08
-1.55313e-07
-4.69133e-08
-1.21745e-07
-4.63313e-08
-8.91254e-08
-4.49681e-08
-5.79801e-08
-4.28631e-08
-2.87922e-08
-4.00772e-08
-1.99198e-09
-3.66908e-08
2.20596e-08
-3.28005e-08
4.30725e-08
-2.85131e-08
6.08396e-08
-2.39474e-08
7.52365e-08
-1.92222e-08
8.62214e-08
-1.4455e-08
9.38315e-08
-9.75689e-09
9.81764e-08
-5.22888e-09
9.94305e-08
-9.59273e-10
9.78237e-08
2.97735e-09
9.36324e-08
6.51987e-09
8.71731e-08
9.61749e-09
7.87981e-08
1.22253e-08
6.88958e-08
1.4297e-08
5.78975e-08
1.57763e-08
4.62888e-08
1.65859e-08
3.46265e-08
1.66184e-08
2.35553e-08
1.57321e-08
1.38109e-08
1.37642e-08
6.18942e-09
1.05732e-08
1.43606e-09
6.17693e-09
1.3274e-09
1.51171e-09
-3.11747e-09
4.19134e-09
-6.24445e-09
6.91963e-09
-6.89633e-09
8.92795e-09
-5.7573e-09
9.68316e-09
-3.42635e-09
8.84206e-09
-3.70151e-10
6.20597e-09
3.07665e-09
1.67469e-09
6.6953e-09
-4.78859e-09
1.03534e-08
-1.31855e-08
1.39826e-08
-2.35019e-08
1.75571e-08
-3.57201e-08
2.10772e-08
-4.98254e-08
2.45567e-08
-6.58085e-08
2.80137e-08
-8.36638e-08
3.14637e-08
-1.03387e-07
3.49153e-08
-1.2497e-07
3.83676e-08
-1.48394e-07
4.18087e-08
-1.73626e-07
4.52148e-08
-2.00613e-07
4.85506e-08
-2.29273e-07
5.177e-08
-2.59495e-07
5.4817e-08
-2.91132e-07
5.7627e-08
-3.23999e-07
6.01283e-08
-3.57869e-07
6.22442e-08
-3.92475e-07
6.38946e-08
-4.27509e-07
6.49985e-08
-4.62621e-07
6.5476e-08
-4.97426e-07
6.52511e-08
-5.31507e-07
6.4254e-08
-5.64419e-07
6.24239e-08
-5.95695e-07
5.97116e-08
-6.2486e-07
5.6082e-08
-6.51431e-07
5.15164e-08
-6.74936e-07
4.60144e-08
-6.94915e-07
3.95959e-08
-7.10939e-07
3.23022e-08
-7.22616e-07
2.41967e-08
-7.29604e-07
1.53658e-08
-7.31619e-07
5.91799e-09
-7.28441e-07
-4.01807e-09
-7.19936e-07
-1.42976e-08
-7.06048e-07
-2.4748e-08
-6.8681e-07
-3.51906e-08
-6.6235e-07
-4.54342e-08
-6.32893e-07
-5.52809e-08
-5.98756e-07
-6.45314e-08
-5.6035e-07
-7.29896e-08
-5.18174e-07
-8.04693e-08
-4.72806e-07
-8.67994e-08
-4.24895e-07
-9.18301e-08
-3.75147e-07
-9.54389e-08
-3.24309e-07
-9.75353e-08
-2.73157e-07
-9.80654e-08
-2.22473e-07
-9.70154e-08
-1.73028e-07
-9.44133e-08
-1.25562e-07
-9.03289e-08
-8.07665e-08
-8.48728e-08
-3.92645e-08
-7.81928e-08
-1.59646e-09
-7.04685e-08
3.17962e-08
-6.19057e-08
6.05743e-08
-5.27255e-08
8.45129e-08
-4.31609e-08
1.03501e-07
-3.34429e-08
1.17539e-07
-2.37947e-08
1.26734e-07
-1.4424e-08
1.31292e-07
-5.51746e-09
1.31508e-07
2.76151e-09
1.27754e-07
1.02734e-08
1.20474e-07
1.68975e-08
1.10175e-07
2.25249e-08
9.74244e-08
2.70473e-08
8.28583e-08
3.03424e-08
6.71852e-08
3.2259e-08
5.11989e-08
3.26047e-08
3.57863e-08
3.11448e-08
2.19229e-08
2.76276e-08
1.06445e-08
2.18515e-08
2.99002e-09
1.38314e-08
4.31742e-09
1.4096e-09
-4.52709e-09
3.64906e-09
-8.48384e-09
5.48932e-09
-8.73661e-09
6.11347e-09
-6.38145e-09
4.96403e-09
-2.27694e-09
1.67916e-09
2.91473e-09
-3.96017e-09
8.71601e-09
-1.20727e-08
1.48078e-08
-2.27131e-08
2.09939e-08
-3.5899e-08
2.71685e-08
-5.1629e-08
3.32871e-08
-6.9895e-08
3.93432e-08
-9.06877e-08
4.53495e-08
-1.13998e-07
5.13244e-08
-1.39817e-07
5.72818e-08
-1.68126e-07
6.32244e-08
-1.98897e-07
6.91392e-08
-2.32084e-07
7.49955e-08
-2.67613e-07
8.07441e-08
-3.0538e-07
8.63173e-08
-3.45241e-07
9.16306e-08
-3.87008e-07
9.65843e-08
-4.30447e-07
1.01066e-07
-4.75273e-07
1.04954e-07
-5.2115e-07
1.08121e-07
-5.6769e-07
1.10434e-07
-6.14456e-07
1.11765e-07
-6.60967e-07
1.11987e-07
-7.06702e-07
1.10986e-07
-7.51108e-07
1.0866e-07
-7.93607e-07
1.04923e-07
-8.33608e-07
9.97129e-08
-8.70517e-07
9.29906e-08
-9.03746e-07
8.47456e-08
-9.32729e-07
7.49976e-08
-9.56932e-07
6.37986e-08
-9.75864e-07
5.12338e-08
-9.89089e-07
3.74223e-08
-9.9624e-07
2.25169e-08
-9.97025e-07
6.70278e-09
-9.91231e-07
-9.81182e-09
-9.78747e-07
-2.67817e-08
-9.59555e-07
-4.39405e-08
-9.3374e-07
-6.10055e-08
-9.01494e-07
-7.76799e-08
-8.63116e-07
-9.36597e-08
-8.19007e-07
-1.0864e-07
-7.69674e-07
-1.22323e-07
-7.15717e-07
-1.34426e-07
-6.57826e-07
-1.4469e-07
-5.96769e-07
-1.52887e-07
-5.33377e-07
-1.58831e-07
-4.68533e-07
-1.62379e-07
-4.03152e-07
-1.63447e-07
-3.38161e-07
-1.62006e-07
-2.74483e-07
-1.58092e-07
-2.1301e-07
-1.51802e-07
-1.54586e-07
-1.43296e-07
-9.99871e-08
-1.32792e-07
-4.98975e-08
-1.20558e-07
-4.89884e-09
-1.06904e-07
3.45482e-08
-9.21725e-08
6.81092e-08
-7.67219e-08
9.55844e-08
-6.09181e-08
1.16909e-07
-4.51196e-08
1.32152e-07
-2.96662e-08
1.41505e-07
-1.48709e-08
1.45281e-07
-1.01466e-09
1.43899e-07
1.16554e-08
1.37876e-07
2.29204e-08
1.2782e-07
3.25811e-08
1.14424e-07
4.04435e-08
9.84661e-08
4.63003e-08
8.08126e-08
4.99125e-08
6.24222e-08
5.09951e-08
4.43502e-08
4.92168e-08
2.77501e-08
4.42277e-08
1.38717e-08
3.57299e-08
4.07655e-09
2.36266e-08
8.39397e-09
1.02184e-09
-5.54893e-09
2.2155e-09
-9.6776e-09
2.38385e-09
-8.90492e-09
7.40636e-10
-4.73824e-09
-3.23945e-09
1.70314e-09
-9.89581e-09
9.5711e-09
-1.94356e-08
1.82558e-08
-3.19767e-08
2.73489e-08
-4.75806e-08
3.65978e-08
-6.62757e-08
4.58636e-08
-8.80726e-08
5.5084e-08
-1.12973e-07
6.42437e-08
-1.40974e-07
7.33502e-08
-1.72066e-07
8.24162e-08
-2.0623e-07
9.14459e-08
-2.43432e-07
1.00427e-07
-2.83616e-07
1.09324e-07
-3.26696e-07
1.18076e-07
-3.72548e-07
1.26596e-07
-4.21004e-07
1.34773e-07
-4.71845e-07
1.42472e-07
-5.24798e-07
1.49537e-07
-5.79531e-07
1.55799e-07
-6.35652e-07
1.61076e-07
-6.92713e-07
1.65181e-07
-7.50206e-07
1.67928e-07
-8.07577e-07
1.69135e-07
-8.64223e-07
1.68633e-07
-9.19508e-07
1.66271e-07
-9.72768e-07
1.61919e-07
-1.02332e-06
1.5548e-07
-1.0705e-06
1.46885e-07
-1.11361e-06
1.36108e-07
-1.15203e-06
1.23159e-07
-1.18512e-06
1.08093e-07
-1.21233e-06
9.10087e-08
-1.23315e-06
7.20508e-08
-1.24713e-06
5.14071e-08
-1.25393e-06
2.93089e-08
-1.25325e-06
6.02916e-09
-1.24493e-06
-1.81373e-08
-1.22887e-06
-4.28376e-08
-1.20511e-06
-6.77045e-08
-1.17376e-06
-9.23484e-08
-1.13508e-06
-1.16364e-07
-1.0894e-06
-1.39338e-07
-1.03718e-06
-1.60858e-07
-9.78985e-07
-1.80521e-07
-9.15465e-07
-1.97947e-07
-8.47373e-07
-2.12782e-07
-7.75543e-07
-2.24717e-07
-7.00882e-07
-2.33492e-07
-6.24351e-07
-2.3891e-07
-5.46953e-07
-2.40844e-07
-4.69714e-07
-2.39245e-07
-3.93662e-07
-2.34144e-07
-3.19803e-07
-2.25661e-07
-2.49103e-07
-2.13997e-07
-1.82461e-07
-1.99434e-07
-1.2069e-07
-1.82328e-07
-6.44995e-08
-1.63095e-07
-1.44727e-08
-1.42199e-07
2.89423e-08
-1.20137e-07
6.54437e-08
-9.74195e-08
9.48807e-08
-7.45566e-08
1.17255e-07
-5.20404e-08
1.32717e-07
-3.03326e-08
1.41558e-07
-9.85631e-09
1.44206e-07
9.0075e-09
1.4121e-07
2.59165e-08
1.33235e-07
4.05566e-08
1.21052e-07
5.26263e-08
1.05536e-07
6.18161e-08
8.76621e-08
6.77863e-08
6.85072e-08
7.015e-08
4.92547e-08
6.84693e-08
3.12059e-08
6.22764e-08
1.58058e-08
5.113e-08
4.70855e-09
3.47239e-08
1.31025e-08
4.28887e-10
-5.97782e-09
8.87737e-11
-9.33752e-09
-2.06955e-09
-6.74659e-09
-6.73273e-09
-7.50463e-11
-1.43403e-08
9.31078e-09
-2.5173e-08
2.04037e-08
-3.93989e-08
3.24816e-08
-5.71165e-08
4.50665e-08
-7.83821e-08
5.78635e-08
-1.03228e-07
7.07095e-08
-1.31673e-07
8.35287e-08
-1.63726e-07
9.62968e-08
-1.99388e-07
1.09012e-07
-2.38645e-07
1.21674e-07
-2.81467e-07
1.34268e-07
-3.27795e-07
1.46755e-07
-3.77538e-07
1.59067e-07
-4.30562e-07
1.71099e-07
-4.86681e-07
1.82716e-07
-5.45657e-07
1.93748e-07
-6.07185e-07
2.04e-07
-6.709e-07
2.13252e-07
-7.36369e-07
2.21268e-07
-8.03094e-07
2.27801e-07
-8.70516e-07
2.32603e-07
-9.3802e-07
2.35432e-07
-1.00494e-06
2.36059e-07
-1.07058e-06
2.34275e-07
-1.13422e-06
2.29903e-07
-1.1951e-06
2.22798e-07
-1.25248e-06
2.1286e-07
-1.30562e-06
2.00033e-07
-1.35383e-06
1.84313e-07
-1.39642e-06
1.65748e-07
-1.43277e-06
1.44442e-07
-1.46231e-06
1.20552e-07
-1.48455e-06
9.42911e-08
-1.49907e-06
6.59233e-08
-1.50552e-06
3.57651e-08
-1.50368e-06
4.18207e-09
-1.49336e-06
-2.84503e-08
-1.47454e-06
-6.16655e-08
-1.44724e-06
-9.49987e-08
-1.41163e-06
-1.27956e-07
-1.36797e-06
-1.60027e-07
-1.31662e-06
-1.90692e-07
-1.25804e-06
-2.19431e-07
-1.19283e-06
-2.45739e-07
-1.12164e-06
-2.69132e-07
-1.04526e-06
-2.89163e-07
-9.64544e-07
-3.05432e-07
-8.80435e-07
-3.17601e-07
-7.93939e-07
-3.25406e-07
-7.06115e-07
-3.28668e-07
-6.18057e-07
-3.27303e-07
-5.30872e-07
-3.21329e-07
-4.4566e-07
-3.10872e-07
-3.63491e-07
-2.96166e-07
-2.85377e-07
-2.77548e-07
-2.12255e-07
-2.55451e-07
-1.44954e-07
-2.30396e-07
-8.41861e-08
-2.02968e-07
-3.05189e-08
-1.73804e-07
1.5632e-08
-1.4357e-07
5.40148e-08
-1.12939e-07
8.45449e-08
-8.25705e-08
1.07306e-07
-5.30938e-08
1.22545e-07
-2.50956e-08
1.30667e-07
8.85622e-10
1.32222e-07
2.43616e-08
1.27899e-07
4.48798e-08
1.18514e-07
6.20116e-08
1.05002e-07
7.53276e-08
8.84156e-08
8.4373e-08
6.99187e-08
8.86468e-08
5.07979e-08
8.75902e-08
3.24798e-08
8.05945e-08
1.6574e-08
6.70358e-08
4.95925e-09
4.63387e-08
1.80618e-08
-3.21338e-10
-5.65644e-09
-2.58592e-09
-7.07299e-09
-7.62281e-09
-1.70969e-09
-1.59415e-08
8.24364e-09
-2.78592e-08
2.12286e-08
-4.35588e-08
3.61033e-08
-6.31467e-08
5.20695e-08
-8.6685e-08
6.86048e-08
-1.14213e-07
8.53919e-08
-1.45761e-07
1.02257e-07
-1.81348e-07
1.19116e-07
-2.20987e-07
1.35937e-07
-2.6468e-07
1.52704e-07
-3.12403e-07
1.69397e-07
-3.64109e-07
1.85973e-07
-4.19708e-07
2.02354e-07
-4.79066e-07
2.18424e-07
-5.41992e-07
2.34025e-07
-6.08234e-07
2.48958e-07
-6.77473e-07
2.62987e-07
-7.49318e-07
2.75845e-07
-8.23307e-07
2.87241e-07
-8.98908e-07
2.96869e-07
-9.75523e-07
3.04415e-07
-1.05249e-06
3.09574e-07
-1.12911e-06
3.1205e-07
-1.20463e-06
3.11576e-07
-1.27827e-06
3.07915e-07
-1.34924e-06
3.00875e-07
-1.41675e-06
2.90311e-07
-1.48003e-06
2.76135e-07
-1.53831e-06
2.58316e-07
-1.59089e-06
2.36889e-07
-1.63709e-06
2.11949e-07
-1.6763e-06
1.83657e-07
-1.70799e-06
1.52238e-07
-1.73167e-06
1.17975e-07
-1.74696e-06
8.1212e-08
-1.75354e-06
4.23473e-08
-1.75121e-06
1.85141e-09
-1.7398e-06
-3.98645e-08
-1.71928e-06
-8.21891e-08
-1.6897e-06
-1.24579e-07
-1.65121e-06
-1.66443e-07
-1.60406e-06
-2.07172e-07
-1.54861e-06
-2.46143e-07
-1.48531e-06
-2.82734e-07
-1.41471e-06
-3.16336e-07
-1.33748e-06
-3.46361e-07
-1.25439e-06
-3.72261e-07
-1.16628e-06
-3.9354e-07
-1.07411e-06
-4.09771e-07
-9.78905e-07
-4.2061e-07
-8.81762e-07
-4.25811e-07
-7.83824e-07
-4.25241e-07
-6.86267e-07
-4.18886e-07
-5.90276e-07
-4.06864e-07
-4.97017e-07
-3.89425e-07
-4.07616e-07
-3.66948e-07
-3.2313e-07
-3.39937e-07
-2.44521e-07
-3.09005e-07
-1.72628e-07
-2.7486e-07
-1.08153e-07
-2.38279e-07
-5.16346e-08
-2.00089e-07
-3.44095e-09
-1.61133e-07
3.62429e-08
-1.22254e-07
6.74158e-08
-8.42667e-08
9.02604e-08
-4.79402e-08
1.05137e-07
-1.39907e-08
1.12575e-07
1.69232e-08
1.13263e-07
4.41914e-08
1.08038e-07
6.72374e-08
9.78714e-08
8.54939e-08
8.38688e-08
9.83757e-08
6.72628e-08
1.05253e-07
4.94231e-08
1.0543e-07
3.18787e-08
9.81389e-08
1.63648e-08
8.25497e-08
4.90696e-09
5.77966e-08
2.29687e-08
-1.19665e-09
-4.45977e-09
-5.71246e-09
-2.55719e-09
-1.40835e-08
6.6614e-09
-2.65981e-08
2.07582e-08
-4.33993e-08
3.80297e-08
-6.45472e-08
5.72513e-08
-9.00641e-08
7.75863e-08
-1.19961e-07
9.85014e-08
-1.5425e-07
1.19681e-07
-1.92948e-07
1.40955e-07
-2.36074e-07
1.62242e-07
-2.8364e-07
1.83502e-07
-3.35637e-07
2.04702e-07
-3.92033e-07
2.25793e-07
-4.52751e-07
2.46692e-07
-5.17668e-07
2.67271e-07
-5.86597e-07
2.87354e-07
-6.59288e-07
3.06716e-07
-7.35414e-07
3.25084e-07
-8.14574e-07
3.42148e-07
-8.9629e-07
3.57561e-07
-9.80007e-07
3.70958e-07
-1.0651e-06
3.81962e-07
-1.15088e-06
3.90199e-07
-1.23662e-06
3.95307e-07
-1.32152e-06
3.96952e-07
-1.40478e-06
3.94837e-07
-1.48558e-06
3.88712e-07
-1.56309e-06
3.78385e-07
-1.6365e-06
3.63725e-07
-1.70503e-06
3.44669e-07
-1.76794e-06
3.21225e-07
-1.82453e-06
2.93475e-07
-1.87415e-06
2.6157e-07
-1.91623e-06
2.25734e-07
-1.95025e-06
1.86255e-07
-1.97576e-06
1.43491e-07
-1.9924e-06
9.78552e-08
-1.99987e-06
4.98129e-08
-1.99801e-06
-5.38102e-12
-1.98658e-06
-5.12984e-08
-1.96559e-06
-1.03183e-07
-1.93505e-06
-1.5511e-07
-1.8951e-06
-2.06395e-07
-1.84594e-06
-2.5633e-07
-1.78789e-06
-3.04199e-07
-1.72134e-06
-3.49279e-07
-1.64682e-06
-3.90855e-07
-1.56495e-06
-4.28234e-07
-1.47645e-06
-4.6076e-07
-1.38216e-06
-4.87832e-07
-1.28301e-06
-5.0892e-07
-1.18004e-06
-5.23584e-07
-1.07435e-06
-5.31494e-07
-9.67148e-07
-5.32447e-07
-8.59656e-07
-5.26378e-07
-7.53142e-07
-5.13378e-07
-6.48875e-07
-4.93692e-07
-5.48096e-07
-4.67727e-07
-4.51991e-07
-4.36042e-07
-3.6166e-07
-3.99336e-07
-2.78088e-07
-3.58432e-07
-2.02118e-07
-3.14249e-07
-1.3443e-07
-2.67777e-07
-7.55196e-08
-2.20043e-07
-2.56895e-08
-1.72084e-07
1.49598e-08
-1.24916e-07
4.65303e-08
-7.95107e-08
6.93227e-08
-3.67831e-08
8.38289e-08
2.41699e-09
9.07199e-08
3.73004e-08
9.08349e-08
6.71223e-08
8.5169e-08
9.11597e-08
7.48644e-08
1.0868e-07
6.12071e-08
1.1891e-07
4.56334e-08
1.21004e-07
2.97511e-08
1.14021e-07
1.5381e-08
9.69198e-08
4.62578e-09
6.85518e-08
2.75945e-08
-2.17839e-09
-2.28136e-09
-9.21507e-09
4.47952e-09
-2.1303e-08
1.87494e-08
-3.8459e-08
3.79141e-08
-6.06181e-08
6.01888e-08
-8.76901e-08
8.43233e-08
-1.19595e-07
1.09491e-07
-1.56279e-07
1.35185e-07
-1.97718e-07
1.6112e-07
-2.43913e-07
1.87149e-07
-2.94871e-07
2.132e-07
-3.50596e-07
2.39227e-07
-4.11071e-07
2.65177e-07
-4.7624e-07
2.90962e-07
-5.45998e-07
3.16449e-07
-6.20175e-07
3.41448e-07
-6.98532e-07
3.65711e-07
-7.8075e-07
3.88934e-07
-8.6643e-07
4.10764e-07
-9.55087e-07
4.30805e-07
-1.04616e-06
4.48634e-07
-1.13901e-06
4.63808e-07
-1.23293e-06
4.75887e-07
-1.32717e-06
4.84438e-07
-1.42093e-06
4.89059e-07
-1.51336e-06
4.89387e-07
-1.60364e-06
4.85111e-07
-1.69091e-06
4.75983e-07
-1.77434e-06
4.61823e-07
-1.85315e-06
4.4253e-07
-1.92656e-06
4.18077e-07
-1.99385e-06
3.88521e-07
-2.05437e-06
3.53993e-07
-2.1075e-06
3.14704e-07
-2.15271e-06
2.70938e-07
-2.1895e-06
2.23047e-07
-2.21746e-06
1.71451e-07
-2.23623e-06
1.16628e-07
-2.24554e-06
5.91163e-08
-2.2451e-06
-4.37973e-10
-2.23485e-06
-6.15542e-08
-2.21464e-06
-1.23391e-07
-2.18448e-06
-1.85275e-07
-2.14443e-06
-2.46446e-07
-2.09464e-06
-3.06116e-07
-2.03536e-06
-3.63475e-07
-1.96694e-06
-4.17703e-07
-1.88981e-06
-4.67981e-07
-1.80454e-06
-5.13505e-07
-1.7118e-06
-5.53506e-07
-1.61236e-06
-5.87264e-07
-1.50715e-06
-6.14132e-07
-1.39718e-06
-6.33557e-07
-1.28357e-06
-6.45104e-07
-1.16754e-06
-6.48476e-07
-1.05038e-06
-6.43535e-07
-9.33444e-07
-6.30318e-07
-8.18091e-07
-6.09045e-07
-7.05691e-07
-5.80128e-07
-5.97568e-07
-5.44165e-07
-4.94975e-07
-5.01929e-07
-3.99056e-07
-4.54351e-07
-3.10815e-07
-4.0249e-07
-2.31089e-07
-3.47504e-07
-1.60521e-07
-2.90612e-07
-9.95462e-08
-2.33059e-07
-4.8382e-08
-1.7608e-07
-7.02144e-09
-1.20871e-07
2.47626e-08
-6.85671e-08
4.74104e-08
-2.02308e-08
6.15646e-08
2.31463e-08
6.80556e-08
6.06313e-08
6.78892e-08
9.13261e-08
6.22351e-08
1.14334e-07
5.2421e-08
1.28724e-07
3.99353e-08
1.33489e-07
2.64432e-08
1.27513e-07
1.38163e-08
1.09547e-07
4.1811e-09
7.8187e-08
3.17756e-08
-3.25094e-09
9.69581e-10
-1.30344e-08
1.4263e-08
-2.91529e-08
3.48678e-08
-5.13112e-08
6.00724e-08
-7.9206e-08
8.80836e-08
-1.12574e-07
1.17692e-07
-1.51218e-07
1.48135e-07
-1.95009e-07
1.78976e-07
-2.4388e-07
2.09991e-07
-2.97805e-07
2.41075e-07
-3.56779e-07
2.72174e-07
-4.20791e-07
3.0324e-07
-4.89807e-07
3.34192e-07
-5.63744e-07
3.64899e-07
-6.42459e-07
3.95164e-07
-7.25736e-07
4.24724e-07
-8.13274e-07
4.53249e-07
-9.04688e-07
4.80348e-07
-9.99504e-07
5.05579e-07
-1.09716e-06
5.28463e-07
-1.19702e-06
5.48495e-07
-1.29838e-06
5.65165e-07
-1.40046e-06
5.77971e-07
-1.50246e-06
5.86439e-07
-1.60354e-06
5.90136e-07
-1.70284e-06
5.88685e-07
-1.79951e-06
5.81778e-07
-1.8927e-06
5.6918e-07
-1.98162e-06
5.50741e-07
-2.06549e-06
5.26394e-07
-2.14357e-06
4.96161e-07
-2.2152e-06
4.60147e-07
-2.27974e-06
4.18538e-07
-2.33664e-06
3.716e-07
-2.38537e-06
3.19671e-07
-2.42548e-06
2.6316e-07
-2.45657e-06
2.02537e-07
-2.47828e-06
1.38337e-07
-2.49031e-06
7.11507e-08
-2.4924e-06
1.64469e-09
-2.48439e-06
-6.95603e-08
-2.46613e-06
-1.41647e-07
-2.43756e-06
-2.1385e-07
-2.39866e-06
-2.8534e-07
-2.34953e-06
-3.55251e-07
-2.29031e-06
-4.2269e-07
-2.22127e-06
-4.86743e-07
-2.14277e-06
-5.46485e-07
-2.05527e-06
-6.01002e-07
-1.95938e-06
-6.494e-07
-1.85581e-06
-6.90832e-07
-1.74542e-06
-7.24519e-07
-1.6292e-06
-7.49776e-07
-1.50827e-06
-7.66038e-07
-1.38385e-06
-7.72891e-07
-1.2573e-06
-7.70094e-07
-1.13001e-06
-7.576e-07
-1.00348e-06
-7.35579e-07
-8.79187e-07
-7.0442e-07
-7.58613e-07
-6.64739e-07
-6.43177e-07
-6.17365e-07
-5.34202e-07
-5.63327e-07
-4.32872e-07
-5.03819e-07
-3.40205e-07
-4.40171e-07
-2.57014e-07
-3.73803e-07
-1.8389e-07
-3.06183e-07
-1.21184e-07
-2.38786e-07
-6.90028e-08
-1.73052e-07
-2.72075e-08
-1.10362e-07
4.57844e-09
-5.20168e-08
2.69583e-08
7.66431e-10
4.07452e-08
4.68444e-08
4.69482e-08
8.51231e-08
4.67569e-08
1.14526e-07
4.15319e-08
1.33949e-07
3.28028e-08
1.42218e-07
2.22745e-08
1.38042e-07
1.18446e-08
1.19976e-07
3.62888e-09
8.64028e-08
3.54045e-08
-4.40068e-09
5.37024e-09
-1.71162e-08
2.69784e-08
-3.75148e-08
5.52665e-08
-6.49552e-08
8.75128e-08
-9.88698e-08
1.21998e-07
-1.38805e-07
1.57627e-07
-1.84432e-07
1.93762e-07
-2.3554e-07
2.30085e-07
-2.92012e-07
2.66463e-07
-3.53793e-07
3.02855e-07
-4.20856e-07
3.39237e-07
-4.93172e-07
3.75557e-07
-5.70683e-07
4.11703e-07
-6.53274e-07
4.4749e-07
-7.40759e-07
4.82649e-07
-8.32869e-07
5.16835e-07
-9.29245e-07
5.49625e-07
-1.02943e-06
5.80536e-07
-1.13289e-06
6.09036e-07
-1.23899e-06
6.34561e-07
-1.34702e-06
6.56531e-07
-1.45623e-06
6.74375e-07
-1.56581e-06
6.87544e-07
-1.6749e-06
6.95531e-07
-1.78265e-06
6.97891e-07
-1.88821e-06
6.94247e-07
-1.99074e-06
6.84304e-07
-2.08942e-06
6.67858e-07
-2.18347e-06
6.44794e-07
-2.27217e-06
6.15091e-07
-2.35483e-06
5.78818e-07
-2.43081e-06
5.3613e-07
-2.49953e-06
4.87264e-07
-2.56047e-06
4.32537e-07
-2.61313e-06
3.72333e-07
-2.65708e-06
3.07104e-07
-2.69191e-06
2.37367e-07
-2.71726e-06
1.63694e-07
-2.73283e-06
8.67186e-08
-2.73832e-06
7.12933e-09
-2.73352e-06
-7.43606e-08
-2.71823e-06
-1.56936e-07
-2.69232e-06
-2.39762e-07
-2.6557e-06
-3.21952e-07
-2.60838e-06
-4.02574e-07
-2.55042e-06
-4.80656e-07
-2.48196e-06
-5.55194e-07
-2.40328e-06
-6.25166e-07
-2.31474e-06
-6.89542e-07
-2.21684e-06
-7.47301e-07
-2.11021e-06
-7.97461e-07
-1.99564e-06
-8.39095e-07
-1.87404e-06
-8.71367e-07
-1.74652e-06
-8.93561e-07
-1.6143e-06
-9.05115e-07
-1.47874e-06
-9.05652e-07
-1.34133e-06
-8.95012e-07
-1.20363e-06
-8.73274e-07
-1.06728e-06
-8.40777e-07
-9.33891e-07
-7.98122e-07
-8.05083e-07
-7.46174e-07
-6.82371e-07
-6.86039e-07
-5.67149e-07
-6.1904e-07
-4.60641e-07
-5.46679e-07
-3.63858e-07
-4.70586e-07
-2.77574e-07
-3.92467e-07
-2.02303e-07
-3.14057e-07
-1.38285e-07
-2.3707e-07
-8.54893e-08
-1.63158e-07
-4.36167e-08
-9.38895e-08
-1.21154e-08
-3.07348e-08
9.80311e-09
2.49258e-08
2.31441e-08
7.17821e-08
2.91117e-08
1.08558e-07
2.9094e-08
1.33967e-07
2.46534e-08
1.46659e-07
1.7524e-08
1.45171e-07
9.61511e-09
1.27885e-07
3.01576e-09
9.30021e-08
3.84203e-08
-5.61475e-09
1.0985e-08
-2.14065e-08
4.27702e-08
-4.62719e-08
8.01319e-08
-7.91941e-08
1.20435e-07
-1.1932e-07
1.62125e-07
-1.65992e-07
2.04298e-07
-2.18742e-07
2.46512e-07
-2.7727e-07
2.88613e-07
-3.41404e-07
3.30597e-07
-4.11054e-07
3.72505e-07
-4.8617e-07
4.14353e-07
-5.66698e-07
4.56085e-07
-6.5255e-07
4.97555e-07
-7.43573e-07
5.38513e-07
-8.39537e-07
5.78613e-07
-9.40117e-07
6.17415e-07
-1.04489e-06
6.54401e-07
-1.15335e-06
6.88993e-07
-1.26488e-06
7.20568e-07
-1.37881e-06
7.48482e-07
-1.49436e-06
7.7209e-07
-1.61076e-06
7.90767e-07
-1.72715e-06
8.03932e-07
-1.84268e-06
8.11062e-07
-1.95649e-06
8.11709e-07
-2.06776e-06
8.05512e-07
-2.17566e-06
7.92204e-07
-2.27942e-06
7.71616e-07
-2.3783e-06
7.43677e-07
-2.47162e-06
7.08413e-07
-2.55875e-06
6.65941e-07
-2.63908e-06
6.16464e-07
-2.71208e-06
5.60266e-07
-2.77725e-06
4.97702e-07
-2.83411e-06
4.29198e-07
-2.88225e-06
3.55241e-07
-2.92126e-06
2.76378e-07
-2.95078e-06
1.93216e-07
-2.97047e-06
1.06412e-07
-2.98003e-06
1.66841e-08
-2.97918e-06
-7.52087e-08
-2.96768e-06
-1.68432e-07
-2.94534e-06
-2.62109e-07
-2.91199e-06
-3.55304e-07
-2.86753e-06
-4.4703e-07
-2.81194e-06
-5.36248e-07
-2.74526e-06
-6.21876e-07
-2.66763e-06
-7.02797e-07
-2.5793e-06
-7.7787e-07
-2.48065e-06
-8.45951e-07
-2.3722e-06
-9.05913e-07
-2.25462e-06
-9.56674e-07
-2.12876e-06
-9.97228e-07
-1.99563e-06
-1.02668e-06
-1.85645e-06
-1.0443e-06
-1.71256e-06
-1.04954e-06
-1.56549e-06
-1.04208e-06
-1.4169e-06
-1.02187e-06
-1.26852e-06
-9.89156e-07
-1.12215e-06
-9.44491e-07
-9.79587e-07
-8.88736e-07
-8.42571e-07
-8.23055e-07
-7.12729e-07
-7.48882e-07
-5.91525e-07
-6.67884e-07
-4.80205e-07
-5.81906e-07
-3.79761e-07
-4.92911e-07
-2.90901e-07
-4.02917e-07
-2.14033e-07
-3.13939e-07
-1.49255e-07
-2.27936e-07
-9.6368e-08
-1.46776e-07
-5.4885e-08
-7.22178e-08
-2.4053e-08
-5.90614e-09
-2.87661e-09
5.06057e-08
9.85844e-09
9.58231e-08
1.55639e-08
1.28261e-07
1.58316e-08
1.46391e-07
1.24209e-08
1.48582e-07
7.24879e-09
1.33057e-07
2.37889e-09
9.7872e-08
4.07992e-08
-6.87769e-09
1.78627e-08
-2.58484e-08
6.17408e-08
-5.53037e-08
1.09587e-07
-9.38274e-08
1.58959e-07
-1.40266e-07
2.08563e-07
-1.93746e-07
2.57778e-07
-2.53655e-07
3.06421e-07
-3.19599e-07
3.54558e-07
-3.91349e-07
4.02347e-07
-4.68777e-07
4.49933e-07
-5.51802e-07
4.97378e-07
-6.40342e-07
5.44626e-07
-7.34275e-07
5.91487e-07
-8.33408e-07
6.37646e-07
-9.3746e-07
6.82665e-07
-1.04605e-06
7.26008e-07
-1.15871e-06
7.67059e-07
-1.27486e-06
8.05142e-07
-1.39384e-06
8.39549e-07
-1.51492e-06
8.69564e-07
-1.63732e-06
8.94485e-07
-1.7602e-06
9.13649e-07
-1.88272e-06
9.26455e-07
-2.00404e-06
9.32377e-07
-2.12331e-06
9.30979e-07
-2.23972e-06
9.21926e-07
-2.3525e-06
9.04987e-07
-2.46092e-06
8.80035e-07
-2.56429e-06
8.47045e-07
-2.66196e-06
8.0609e-07
-2.75336e-06
7.57333e-07
-2.83791e-06
7.01021e-07
-2.91512e-06
6.37476e-07
-2.98451e-06
5.67092e-07
-3.04564e-06
4.90323e-07
-3.09808e-06
4.07687e-07
-3.14146e-06
3.19754e-07
-3.1754e-06
2.27153e-07
-3.19955e-06
1.30562e-07
-3.21358e-06
3.07158e-08
-3.21719e-06
-7.1598e-08
-3.21009e-06
-1.7553e-07
-3.19203e-06
-2.80173e-07
-3.16277e-06
-3.84562e-07
-3.12213e-06
-4.87667e-07
-3.06998e-06
-5.88397e-07
-3.00625e-06
-6.85606e-07
-2.93096e-06
-7.78094e-07
-2.8442e-06
-8.64622e-07
-2.74623e-06
-9.43923e-07
-2.63741e-06
-1.01473e-06
-2.51829e-06
-1.0758e-06
-2.38957e-06
-1.12594e-06
-2.25218e-06
-1.16407e-06
-2.10724e-06
-1.18925e-06
-1.95607e-06
-1.20071e-06
-1.8002e-06
-1.19795e-06
-1.64132e-06
-1.18074e-06
-1.48129e-06
-1.14919e-06
-1.32206e-06
-1.10373e-06
-1.16561e-06
-1.04519e-06
-1.01392e-06
-9.74744e-07
-8.68881e-07
-8.9392e-07
-7.32231e-07
-8.04534e-07
-6.05491e-07
-7.08645e-07
-4.89917e-07
-6.08485e-07
-3.86454e-07
-5.0638e-07
-2.95715e-07
-4.04678e-07
-2.17967e-07
-3.05684e-07
-1.53135e-07
-2.11609e-07
-1.00818e-07
-1.24535e-07
-6.03131e-08
-4.64111e-08
-3.06433e-08
2.09359e-08
-1.05887e-08
7.57685e-08
1.2844e-09
1.16388e-07
6.59756e-09
1.41078e-07
7.1378e-09
1.48042e-07
4.83654e-09
1.35359e-07
1.74581e-09
1.00963e-07
4.2545e-08
-8.17256e-09
2.60353e-08
-3.03804e-08
8.39486e-08
-6.44833e-08
1.4369e-07
-1.08648e-07
2.03123e-07
-1.61408e-07
2.61324e-07
-2.21671e-07
3.18041e-07
-2.88674e-07
3.73425e-07
-3.6193e-07
4.27813e-07
-4.41147e-07
4.81563e-07
-5.26156e-07
5.34942e-07
-6.16844e-07
5.88066e-07
-7.13096e-07
6.40877e-07
-8.14751e-07
6.93142e-07
-9.21572e-07
7.44467e-07
-1.03323e-06
7.94323e-07
-1.14929e-06
8.42073e-07
-1.26923e-06
8.86999e-07
-1.39243e-06
9.28335e-07
-1.51817e-06
9.65293e-07
-1.6457e-06
9.97095e-07
-1.77421e-06
1.02299e-06
-1.90286e-06
1.0423e-06
-2.03081e-06
1.05441e-06
-2.15724e-06
1.0588e-06
-2.28132e-06
1.05506e-06
-2.40228e-06
1.04289e-06
-2.5194e-06
1.0221e-06
-2.63198e-06
9.92613e-07
-2.73938e-06
9.54443e-07
-2.841e-06
9.07711e-07
-2.93629e-06
8.52623e-07
-3.02473e-06
7.89467e-07
-3.10586e-06
7.186e-07
-3.17921e-06
6.40447e-07
-3.24438e-06
5.55491e-07
-3.30097e-06
4.64272e-07
-3.34859e-06
3.67381e-07
-3.3869e-06
2.65461e-07
-3.41555e-06
1.59206e-07
-3.43419e-06
4.93613e-08
-3.44252e-06
-6.32749e-08
-3.4402e-06
-1.77844e-07
-3.42695e-06
-2.93428e-07
-3.40247e-06
-4.09043e-07
-3.36649e-06
-5.23638e-07
-3.3188e-06
-6.36091e-07
-3.2592e-06
-7.45206e-07
-3.18757e-06
-8.49723e-07
-3.10388e-06
-9.48318e-07
-3.00818e-06
-1.03962e-06
-2.90069e-06
-1.12222e-06
-2.78176e-06
-1.19472e-06
-2.65195e-06
-1.25575e-06
-2.51202e-06
-1.30401e-06
-2.36296e-06
-1.33831e-06
-2.206e-06
-1.35767e-06
-2.04263e-06
-1.36132e-06
-1.87455e-06
-1.34882e-06
-1.70368e-06
-1.32005e-06
-1.5321e-06
-1.27531e-06
-1.36198e-06
-1.2153e-06
-1.19555e-06
-1.14117e-06
-1.03498e-06
-1.05449e-06
-8.82307e-07
-9.57204e-07
-7.39384e-07
-8.51568e-07
-6.07779e-07
-7.4009e-07
-4.88728e-07
-6.2543e-07
-3.83102e-07
-5.10304e-07
-2.9138e-07
-3.97406e-07
-2.13652e-07
-2.89337e-07
-1.49633e-07
-1.88554e-07
-9.86887e-08
-9.7355e-08
-5.98749e-08
-1.78779e-08
-3.1972e-08
4.78655e-08
-1.3525e-08
9.79414e-08
-2.87911e-09
1.30432e-07
1.78835e-09
1.43374e-07
2.43806e-09
1.34709e-07
1.13428e-09
1.02266e-07
4.36792e-08
-9.48052e-09
3.55158e-08
-3.49364e-08
1.09405e-07
-7.36768e-08
1.82431e-07
-1.2344e-07
2.52886e-07
-1.82444e-07
3.20327e-07
-2.49369e-07
3.84966e-07
-3.23307e-07
4.47362e-07
-4.0367e-07
5.08177e-07
-4.90107e-07
5.68e-07
-5.82404e-07
6.27239e-07
-6.80412e-07
6.86074e-07
-7.83978e-07
7.44444e-07
-8.92902e-07
8.02066e-07
-1.0069e-06
8.58467e-07
-1.1256e-06
9.13021e-07
-1.24851e-06
9.64987e-07
-1.37507e-06
1.01355e-06
-1.5046e-06
1.05786e-06
-1.63637e-06
1.09706e-06
-1.76959e-06
1.13032e-06
-1.90345e-06
1.15685e-06
-2.03711e-06
1.17596e-06
-2.16974e-06
1.18704e-06
-2.30054e-06
1.1896e-06
-2.42873e-06
1.18325e-06
-2.55357e-06
1.16773e-06
-2.67437e-06
1.1429e-06
-2.79048e-06
1.10872e-06
-2.90129e-06
1.06526e-06
-3.00626e-06
1.01268e-06
-3.10486e-06
9.51224e-07
-3.19662e-06
8.81226e-07
-3.28109e-06
8.03075e-07
-3.35787e-06
7.17226e-07
-3.42657e-06
6.24189e-07
-3.48682e-06
5.24525e-07
-3.53829e-06
4.18845e-07
-3.58063e-06
3.07804e-07
-3.61352e-06
1.92102e-07
-3.63665e-06
7.24894e-08
-3.64969e-06
-5.02351e-08
-3.65232e-06
-1.75217e-07
-3.6442e-06
-3.01541e-07
-3.62502e-06
-4.28229e-07
-3.59443e-06
-5.54225e-07
-3.55212e-06
-6.78399e-07
-3.4978e-06
-7.99534e-07
-3.43119e-06
-9.1633e-07
-3.3521e-06
-1.0274e-06
-3.26042e-06
-1.1313e-06
-3.15615e-06
-1.22649e-06
-3.03944e-06
-1.31143e-06
-2.91063e-06
-1.38456e-06
-2.77027e-06
-1.44436e-06
-2.61917e-06
-1.48941e-06
-2.45842e-06
-1.51842e-06
-2.28938e-06
-1.53037e-06
-2.1137e-06
-1.5245e-06
-1.93333e-06
-1.50043e-06
-1.75042e-06