/*--------------------------------*- C++ -*----------------------------------*\
  =========                 |
  \\      /  F ield         | OpenFOAM: The Open Source CFD Toolbox
   \\    /   O peration     | Website:  https://openfoam.org
    \\  /    A nd           | Version:  7
     \\/     M anipulation  |
\*---------------------------------------------------------------------------*/
FoamFile
{
    version     2.0;
    format      ascii;
    class       volVectorField;
    location    "3";
    object      U;
}
// * * * * * * * * * * * * * * * * * * * * * * * * * * * * * * * * * * * * * //

dimensions      [0 1 -1 0 0 0 0];

internalField   nonuniform List<vector> 
6400
(
(1.06361e-05 -1.05967e-05 0)
(7.18434e-05 -3.79855e-05 0)
(0.000184975 -4.96853e-05 0)
(0.000305321 -4.86133e-05 0)
(0.00040774 -4.06393e-05 0)
(0.000479849 -2.9523e-05 0)
(0.000515678 -1.73825e-05 0)
(0.000513145 -5.34451e-06 0)
(0.000472395 6.08251e-06 0)
(0.000394611 1.67545e-05 0)
(0.000281267 2.67314e-05 0)
(0.000133705 3.61733e-05 0)
(-4.70833e-05 4.5279e-05 0)
(-0.000260535 5.42467e-05 0)
(-0.000506497 6.3252e-05 0)
(-0.000785153 7.24323e-05 0)
(-0.00109691 8.18799e-05 0)
(-0.00144226 9.16412e-05 0)
(-0.00182168 0.000101716 0)
(-0.00223542 0.000112057 0)
(-0.00268345 0.000122576 0)
(-0.00316528 0.000133145 0)
(-0.0036799 0.000143596 0)
(-0.00422561 0.00015373 0)
(-0.00479997 0.000163314 0)
(-0.00539974 0.000172086 0)
(-0.00602079 0.000179762 0)
(-0.00665807 0.000186038 0)
(-0.00730562 0.000190596 0)
(-0.00795651 0.000193115 0)
(-0.00860298 0.000193275 0)
(-0.00923638 0.000190771 0)
(-0.00984738 0.000185322 0)
(-0.010426 0.000176686 0)
(-0.010962 0.000164673 0)
(-0.0114446 0.000149157 0)
(-0.0118633 0.000130089 0)
(-0.0122077 0.000107511 0)
(-0.012468 8.1567e-05 0)
(-0.0126353 5.25035e-05 0)
(-0.0127018 2.06954e-05 0)
(-0.012661 -1.3289e-05 0)
(-0.0125081 -4.89785e-05 0)
(-0.0122406 -8.56446e-05 0)
(-0.0118581 -0.000122478 0)
(-0.0113626 -0.000158613 0)
(-0.0107585 -0.00019314 0)
(-0.010053 -0.000225134 0)
(-0.00925567 -0.000253692 0)
(-0.00837857 -0.000277964 0)
(-0.00743588 -0.0002972 0)
(-0.00644367 -0.00031078 0)
(-0.00541943 -0.00031825 0)
(-0.00438164 -0.000319351 0)
(-0.00334917 -0.000314036 0)
(-0.00234078 -0.000302477 0)
(-0.00137443 -0.000285062 0)
(-0.000466765 -0.000262392 0)
(0.000367276 -0.000235287 0)
(0.00111508 -0.000204527 0)
(0.00176674 -0.00017118 0)
(0.00231506 -0.000136281 0)
(0.00275576 -0.000100841 0)
(0.00308747 -6.58199e-05 0)
(0.0033115 -3.20743e-05 0)
(0.00343159 -3.26507e-07 0)
(0.0034536 2.88564e-05 0)
(0.00338509 5.50664e-05 0)
(0.00323496 7.80418e-05 0)
(0.00301309 9.76315e-05 0)
(0.00273013 0.000113739 0)
(0.00239745 0.000126235 0)
(0.0020273 0.000134836 0)
(0.00163336 0.000138931 0)
(0.00123158 0.000137356 0)
(0.000841625 0.00012816 0)
(0.000488323 0.000108488 0)
(0.000202282 7.47166e-05 0)
(1.92356e-05 2.51786e-05 0)
(-2.08935e-05 -2.10253e-05 0)
(3.87797e-05 -7.23072e-05 0)
(0.000178113 -0.000176787 0)
(0.000393454 -0.000214496 0)
(0.000606636 -0.00020045 0)
(0.000770595 -0.000154466 0)
(0.000859035 -9.10021e-05 0)
(0.000856646 -1.94871e-05 0)
(0.000755903 5.43643e-05 0)
(0.000554424 0.000127451 0)
(0.000252676 0.000198417 0)
(-0.000147634 0.000266999 0)
(-0.000644565 0.000333554 0)
(-0.00123652 0.000398735 0)
(-0.00192249 0.000463271 0)
(-0.00270208 0.000527817 0)
(-0.00357536 0.000592857 0)
(-0.00454265 0.000658652 0)
(-0.00560418 0.000725212 0)
(-0.0067598 0.000792282 0)
(-0.00800861 0.000859351 0)
(-0.00934868 0.00092566 0)
(-0.0107767 0.000990225 0)
(-0.0122878 0.00105185 0)
(-0.0138751 0.00110917 0)
(-0.0155299 0.00116065 0)
(-0.0172411 0.00120464 0)
(-0.0189954 0.0012394 0)
(-0.0207773 0.00126317 0)
(-0.0225688 0.00127415 0)
(-0.0243499 0.00127062 0)
(-0.0260987 0.00125097 0)
(-0.0277915 0.00121375 0)
(-0.0294031 0.00115776 0)
(-0.0309077 0.00108207 0)
(-0.0322786 0.000986148 0)
(-0.0334895 0.000869848 0)
(-0.0345145 0.000733515 0)
(-0.0353293 0.000578004 0)
(-0.0359113 0.000404715 0)
(-0.0362406 0.000215593 0)
(-0.0363007 1.31721e-05 0)
(-0.0360787 -0.000199198 0)
(-0.0355665 -0.000418167 0)
(-0.0347607 -0.000639661 0)
(-0.0336634 -0.000859228 0)
(-0.0322825 -0.00107217 0)
(-0.0306314 -0.00127367 0)
(-0.0287296 -0.00145892 0)
(-0.0266019 -0.0016233 0)
(-0.0242786 -0.00176251 0)
(-0.0217946 -0.00187281 0)
(-0.0191887 -0.00195109 0)
(-0.0165031 -0.00199512 0)
(-0.0137818 -0.00200359 0)
(-0.0110699 -0.00197625 0)
(-0.00841219 -0.00191392 0)
(-0.00585204 -0.00181848 0)
(-0.00342999 -0.00169286 0)
(-0.0011828 -0.00154094 0)
(0.000857604 -0.00136712 0)
(0.00266504 -0.00117651 0)
(0.0042196 -0.000974574 0)
(0.00550799 -0.000766756 0)
(0.00652355 -0.00055835 0)
(0.00726618 -0.000354291 0)
(0.00774188 -0.000158965 0)
(0.00796216 2.38972e-05 0)
(0.00794335 0.000191264 0)
(0.00770583 0.00034076 0)
(0.00727344 0.000470519 0)
(0.00667295 0.000578942 0)
(0.00593395 0.000664324 0)
(0.00508908 0.000724374 0)
(0.00417474 0.000755624 0)
(0.00323239 0.000752796 0)
(0.00231006 0.000708405 0)
(0.00146285 0.000613179 0)
(0.000751052 0.000458022 0)
(0.000244207 0.000242863 0)
(2.58199e-05 1.94439e-05 0)
(5.15465e-05 -0.000187592 0)
(0.000217348 -0.000393115 0)
(0.000449904 -0.000449566 0)
(0.000653941 -0.000395948 0)
(0.000773055 -0.000269914 0)
(0.000774694 -0.000100761 0)
(0.000638473 9.08945e-05 0)
(0.000353116 0.00029166 0)
(-8.62701e-05 0.00049368 0)
(-0.000680771 0.000693031 0)
(-0.00142958 0.000888383 0)
(-0.00233125 0.00107998 0)
(-0.00338441 0.00126888 0)
(-0.00458808 0.00145636 0)
(-0.00594172 0.0016436 0)
(-0.00744501 0.00183135 0)
(-0.00909754 0.00201983 0)
(-0.0108984 0.00220861 0)
(-0.0128456 0.00239659 0)
(-0.0149358 0.00258202 0)
(-0.0171636 0.00276251 0)
(-0.0195216 0.00293506 0)
(-0.0219994 0.00309621 0)
(-0.0245838 0.00324204 0)
(-0.0272582 0.00336828 0)
(-0.0300031 0.00347045 0)
(-0.0327953 0.00354391 0)
(-0.0356085 0.00358407 0)
(-0.0384133 0.00358644 0)
(-0.0411773 0.00354681 0)
(-0.0438661 0.00346144 0)
(-0.0464429 0.00332714 0)
(-0.04887 0.0031415 0)
(-0.0511088 0.00290297 0)
(-0.0531209 0.00261103 0)
(-0.0548688 0.00226633 0)
(-0.0563168 0.00187072 0)
(-0.0574318 0.00142739 0)
(-0.0581843 0.000940859 0)
(-0.0585491 0.000416959 0)
(-0.0585057 -0.000137161 0)
(-0.05804 -0.000712898 0)
(-0.0571442 -0.00130085 0)
(-0.0558173 -0.00189061 0)
(-0.0540658 -0.00247099 0)
(-0.0519036 -0.00303037 0)
(-0.0493526 -0.00355695 0)
(-0.046442 -0.00403912 0)
(-0.0432083 -0.00446577 0)
(-0.0396947 -0.00482672 0)
(-0.0359505 -0.00511304 0)
(-0.0320301 -0.00531742 0)
(-0.0279921 -0.00543453 0)
(-0.0238975 -0.00546122 0)
(-0.0198091 -0.00539678 0)
(-0.0157894 -0.00524301 0)
(-0.0118991 -0.00500423 0)
(-0.00819591 -0.00468717 0)
(-0.00473263 -0.00430078 0)
(-0.00155608 -0.00385582 0)
(0.00129413 -0.00336444 0)
(0.00378661 -0.00283982 0)
(0.00589883 -0.00229551 0)
(0.00761725 -0.00174492 0)
(0.00893751 -0.00120081 0)
(0.00986405 -0.000674887 0)
(0.0104095 -0.000177526 0)
(0.0105942 0.000282414 0)
(0.0104448 0.000697507 0)
(0.00999429 0.0010615 0)
(0.00928063 0.00136878 0)
(0.00834686 0.00161369 0)
(0.00724103 0.00178949 0)
(0.00601668 0.00188743 0)
(0.00473379 0.00189578 0)
(0.00345979 0.00179969 0)
(0.00226866 0.00158284 0)
(0.00123798 0.00123215 0)
(0.000462621 0.000751102 0)
(7.63314e-05 0.000204576 0)
(5.07902e-05 -0.000310574 0)
(0.000199418 -0.000604095 0)
(0.000380459 -0.000650989 0)
(0.000494301 -0.000522106 0)
(0.000482367 -0.000275546 0)
(0.000310512 4.35306e-05 0)
(-4.31862e-05 0.000402605 0)
(-0.000591554 0.000779994 0)
(-0.00134095 0.00116252 0)
(-0.00229383 0.00154318 0)
(-0.00345053 0.00191918 0)
(-0.00481051 0.00229034 0)
(-0.00637301 0.00265779 0)
(-0.00813733 0.00302309 0)
(-0.0101028 0.00338757 0)
(-0.0122683 0.00375184 0)
(-0.0146323 0.00411552 0)
(-0.0171919 0.00447712 0)
(-0.0199424 0.00483395 0)
(-0.0228768 0.00518212 0)
(-0.0259853 0.00551665 0)
(-0.0292547 0.00583155 0)
(-0.0326682 0.00611998 0)
(-0.0362052 0.0063744 0)
(-0.0398406 0.00658681 0)
(-0.0435456 0.00674889 0)
(-0.0472871 0.0068523 0)
(-0.0510283 0.00688889 0)
(-0.0547289 0.00685099 0)
(-0.0583459 0.00673164 0)
(-0.0618337 0.00652489 0)
(-0.0651455 0.00622607 0)
(-0.0682336 0.00583198 0)
(-0.0710505 0.0053412 0)
(-0.0735497 0.0047542 0)
(-0.0756871 0.00407354 0)
(-0.0774214 0.00330396 0)
(-0.0787154 0.00245244 0)
(-0.0795367 0.00152823 0)
(-0.0798588 0.000542716 0)
(-0.0796613 -0.000490685 0)
(-0.0789311 -0.00155653 0)
(-0.0776631 -0.00263774 0)
(-0.0758598 -0.00371594 0)
(-0.0735323 -0.00477176 0)
(-0.0707002 -0.00578524 0)
(-0.0673917 -0.00673633 0)
(-0.0636432 -0.0076054 0)
(-0.059499 -0.00837381 0)
(-0.0550109 -0.00902445 0)
(-0.0502375 -0.00954235 0)
(-0.0452429 -0.00991523 0)
(-0.0400961 -0.010134 0)
(-0.0348693 -0.0101931 0)
(-0.0296365 -0.0100912 0)
(-0.0244722 -0.00983073 0)
(-0.0194492 -0.00941858 0)
(-0.0146375 -0.00886561 0)
(-0.0101022 -0.00818644 0)
(-0.00590214 -0.00739896 0)
(-0.00208815 -0.00652371 0)
(0.00129775 -0.00558302 0)
(0.00422361 -0.00460033 0)
(0.006668 -0.00359921 0)
(0.00862033 -0.00260253 0)
(0.0100808 -0.00163175 0)
(0.0110599 -0.000706361 0)
(0.0115782 0.000156395 0)
(0.0116649 0.000941552 0)
(0.0113577 0.00163608 0)
(0.0107018 0.00222816 0)
(0.00974922 0.0027061 0)
(0.00855879 0.00305711 0)
(0.00719619 0.00326582 0)
(0.00573441 0.00331333 0)
(0.00425429 0.00317718 0)
(0.00284311 0.0028337 0)
(0.00159203 0.00226389 0)
(0.000619871 0.00146673 0)
(0.000110815 0.000494684 0)
(4.14117e-05 -0.000412104 0)
(0.000139427 -0.000751841 0)
(0.000211598 -0.000745471 0)
(0.000166749 -0.000497544 0)
(-4.96512e-05 -8.74826e-05 0)
(-0.000469874 0.000423989 0)
(-0.00111455 0.000993047 0)
(-0.00199601 0.0015903 0)
(-0.0031209 0.00219759 0)
(-0.00449245 0.00280497 0)
(-0.00611198 0.00340813 0)
(-0.00797986 0.00400621 0)
(-0.010096 0.0046001 0)
(-0.01246 0.00519118 0)
(-0.0150707 0.00578035 0)
(-0.0179263 0.0063674 0)
(-0.0210232 0.00695065 0)
(-0.0243559 0.00752666 0)
(-0.0279162 0.00809025 0)
(-0.0316924 0.00863448 0)
(-0.0356693 0.0091508 0)
(-0.0398272 0.00962923 0)
(-0.044142 0.0100587 0)
(-0.0485847 0.0104271 0)
(-0.0531217 0.0107221 0)
(-0.0577146 0.0109309 0)
(-0.0623209 0.0110411 0)
(-0.066894 0.0110408 0)
(-0.0713843 0.0109193 0)
(-0.0757395 0.010667 0)
(-0.0799058 0.0102765 0)
(-0.0838284 0.00974226 0)
(-0.0874531 0.00906129 0)
(-0.0907267 0.00823337 0)
(-0.0935986 0.00726118 0)
(-0.0960213 0.00615048 0)
(-0.0979515 0.00491018 0)
(-0.0993512 0.00355234 0)
(-0.100188 0.00209213 0)
(-0.100437 0.000547604 0)
(-0.100079 -0.00106069 0)
(-0.0991043 -0.00270932 0)
(-0.0975096 -0.00437297 0)
(-0.0953014 -0.00602473 0)
(-0.0924943 -0.00763648 0)
(-0.0891118 -0.00917952 0)
(-0.0851858 -0.0106252 0)
(-0.0807572 -0.0119455 0)
(-0.0758746 -0.0131139 0)
(-0.0705947 -0.014106 0)
(-0.0649809 -0.0149004 0)
(-0.0591032 -0.0154793 0)
(-0.0530364 -0.0158295 0)
(-0.0468596 -0.0159425 0)
(-0.0406543 -0.0158155 0)
(-0.0345029 -0.0154513 0)
(-0.0284872 -0.0148588 0)
(-0.0226865 -0.0140527 0)
(-0.0171759 -0.0130529 0)
(-0.0120243 -0.0118847 0)
(-0.00729292 -0.0105769 0)
(-0.00303373 -0.00916194 0)
(0.000711706 -0.00767379 0)
(0.00391323 -0.00614737 0)
(0.00655265 -0.00461712 0)
(0.008624 -0.00311598 0)
(0.0101334 -0.00167454 0)
(0.0110988 -0.000320503 0)
(0.0115489 0.000921452 0)
(0.0115232 0.00202937 0)
(0.0110702 0.00298317 0)
(0.0102475 0.00376344 0)
(0.00912116 0.00434984 0)
(0.00776504 0.00471949 0)
(0.00626128 0.00484575 0)
(0.00470055 0.0046981 0)
(0.00318065 0.00424432 0)
(0.00180492 0.00345574 0)
(0.000713377 0.00231773 0)
(0.000130183 0.000852574 0)
(2.63983e-05 -0.000473352 0)
(4.81548e-05 -0.000794241 0)
(-3.58645e-05 -0.000677428 0)
(-0.000297364 -0.00025891 0)
(-0.000781107 0.000361582 0)
(-0.00151438 0.00110888 0)
(-0.0025141 0.00192927 0)
(-0.00379029 0.00278688 0)
(-0.00534871 0.00365948 0)
(-0.00719263 0.00453475 0)
(-0.00932393 0.00540706 0)
(-0.0117437 0.00627482 0)
(-0.0144524 0.00713833 0)
(-0.0174496 0.00799825 0)
(-0.0207336 0.00885434 0)
(-0.0243011 0.00970479 0)
(-0.0281463 0.0105456 0)
(-0.0322602 0.0113706 0)
(-0.0366302 0.012171 0)
(-0.0412396 0.0129359 0)
(-0.0460665 0.0136522 0)
(-0.0510844 0.014305 0)
(-0.0562612 0.0148783 0)
(-0.0615597 0.015355 0)
(-0.0669374 0.0157178 0)
(-0.0723474 0.0159493 0)
(-0.0777383 0.016033 0)
(-0.0830553 0.0159538 0)
(-0.0882411 0.0156981 0)
(-0.0932364 0.0152548 0)
(-0.0979816 0.0146157 0)
(-0.102417 0.0137755 0)
(-0.106485 0.0127326 0)
(-0.11013 0.0114893 0)
(-0.113299 0.0100515 0)
(-0.115945 0.00842945 0)
(-0.118025 0.00663711 0)
(-0.119502 0.00469257 0)
(-0.120347 0.00261767 0)
(-0.120535 0.000437641 0)
(-0.12005 -0.00181978 0)
(-0.118884 -0.00412257 0)
(-0.117037 -0.00643713 0)
(-0.114516 -0.00872802 0)
(-0.111339 -0.0109585 0)
(-0.10753 -0.0130912 0)
(-0.103122 -0.0150888 0)
(-0.0981581 -0.016915 0)
(-0.0926878 -0.0185352 0)
(-0.0867693 -0.0199175 0)
(-0.0804679 -0.0210336 0)
(-0.0738561 -0.0218599 0)
(-0.0670119 -0.022378 0)
(-0.0600182 -0.022576 0)
(-0.0529616 -0.0224488 0)
(-0.0459303 -0.0219988 0)
(-0.0390133 -0.0212358 0)
(-0.0322976 -0.0201777 0)
(-0.0258671 -0.0188493 0)
(-0.0198 -0.0172824 0)
(-0.0141677 -0.0155145 0)
(-0.00903195 -0.0135877 0)
(-0.00444438 -0.0115472 0)
(-0.00044459 -0.00943993 0)
(0.00294057 -0.00731304 0)
(0.00569756 -0.00521226 0)
(0.00782636 -0.00318093 0)
(0.0093403 -0.00125902 0)
(0.0102656 0.000517151 0)
(0.0106405 0.0021147 0)
(0.010515 0.00350348 0)
(0.00994924 0.00465465 0)
(0.00901353 0.00553899 0)
(0.00778736 0.00612502 0)
(0.00635942 0.00637749 0)
(0.00482797 0.00625685 0)
(0.00329959 0.00572046 0)
(0.00188851 0.00472631 0)
(0.000751266 0.00323977 0)
(0.000137715 0.00124495 0)
(7.39191e-06 -0.000480237 0)
(-6.74275e-05 -0.000696874 0)
(-0.000346729 -0.000399352 0)
(-0.000873576 0.000248911 0)
(-0.0016782 0.00113032 0)
(-0.00278001 0.0021577 0)
(-0.00418985 0.00326965 0)
(-0.00591386 0.00442555 0)
(-0.00795581 0.00560051 0)
(-0.0103183 0.00678071 0)
(-0.0130032 0.00795968 0)
(-0.0160121 0.00913509 0)
(-0.0193456 0.0103063 0)
(-0.0230029 0.0114728 0)
(-0.0269815 0.0126322 0)
(-0.0312759 0.0137803 0)
(-0.0358774 0.0149099 0)
(-0.0407733 0.0160108 0)
(-0.0459458 0.0170699 0)
(-0.0513723 0.018071 0)
(-0.0570243 0.0189959 0)
(-0.0628678 0.0198241 0)
(-0.0688629 0.0205342 0)
(-0.0749643 0.0211036 0)
(-0.0811216 0.0215101 0)
(-0.0872799 0.0217321 0)
(-0.0933807 0.0217494 0)
(-0.0993628 0.0215441 0)
(-0.105163 0.021101 0)
(-0.110719 0.0204083 0)
(-0.115965 0.0194581 0)
(-0.120842 0.0182468 0)
(-0.12529 0.0167752 0)
(-0.129254 0.0150489 0)
(-0.132682 0.0130785 0)
(-0.135528 0.0108791 0)
(-0.137751 0.00847044 0)
(-0.139316 0.00587701 0)
(-0.140196 0.00312746 0)
(-0.140369 0.000254255 0)
(-0.139821 -0.00270812 0)
(-0.138543 -0.00571904 0)
(-0.136536 -0.00873717 0)
(-0.133809 -0.011719 0)
(-0.130378 -0.0146196 0)
(-0.126266 -0.0173931 0)
(-0.121505 -0.0199939 0)
(-0.116137 -0.0223773 0)
(-0.11021 -0.0245006 0)
(-0.103781 -0.0263241 0)
(-0.0969157 -0.0278121 0)
(-0.0896854 -0.0289343 0)
(-0.0821699 -0.0296665 0)
(-0.0744544 -0.0299922 0)
(-0.0666286 -0.0299028 0)
(-0.0587859 -0.0293991 0)
(-0.051021 -0.0284911 0)
(-0.0434284 -0.0271984 0)
(-0.0361005 -0.0255499 0)
(-0.029125 -0.0235834 0)
(-0.0225831 -0.0213443 0)
(-0.0165474 -0.0188844 0)
(-0.0110799 -0.0162602 0)
(-0.00623068 -0.0135314 0)
(-0.00203617 -0.0107584 0)
(0.00148133 -0.00800109 0)
(0.00431429 -0.00531677 0)
(0.00647003 -0.00275941 0)
(0.00797037 -0.00037872 0)
(0.0088511 0.00177975 0)
(0.00916114 0.00367398 0)
(0.00896165 0.00526413 0)
(0.00832518 0.00651069 0)
(0.00733492 0.00737236 0)
(0.00608441 0.00780419 0)
(0.00467793 0.0077563 0)
(0.00322942 0.00717392 0)
(0.00186217 0.00599911 0)
(0.000743891 0.0041742 0)
(0.00013643 0.00164421 0)
(-1.48005e-05 -0.000421646 0)
(-0.000202643 -0.000431314 0)
(-0.000709546 0.000128871 0)
(-0.00154283 0.00107283 0)
(-0.00271361 0.00226889 0)
(-0.00423067 0.00362133 0)
(-0.00609692 0.00506387 0)
(-0.00831319 0.00655359 0)
(-0.0108802 0.00806464 0)
(-0.0137993 0.00958292 0)
(-0.0170719 0.0111017 0)
(-0.0206995 0.0126179 0)
(-0.0246823 0.0141299 0)
(-0.0290191 0.0156349 0)
(-0.0337057 0.017128 0)
(-0.0387342 0.0186015 0)
(-0.0440925 0.0200438 0)
(-0.0497631 0.0214398 0)
(-0.0557232 0.0227708 0)
(-0.0619436 0.0240152 0)
(-0.0683891 0.0251485 0)
(-0.0750184 0.0261444 0)
(-0.0817842 0.0269756 0)
(-0.0886338 0.0276145 0)
(-0.0955099 0.0280342 0)
(-0.102351 0.0282093 0)
(-0.109095 0.028117 0)
(-0.115674 0.0277374 0)
(-0.122022 0.027055 0)
(-0.128075 0.0260583 0)
(-0.133768 0.0247411 0)
(-0.139041 0.0231023 0)
(-0.143834 0.0211464 0)
(-0.148094 0.0188831 0)
(-0.151773 0.0163278 0)
(-0.154825 0.0135011 0)
(-0.157214 0.0104286 0)
(-0.158907 0.00714085 0)
(-0.159876 0.00367247 0)
(-0.160103 6.25785e-05 0)
(-0.159573 -0.00364426 0)
(-0.158276 -0.00740397 0)
(-0.156213 -0.0111675 0)
(-0.15339 -0.0148835 0)
(-0.14982 -0.0184993 0)
(-0.145524 -0.0219611 0)
(-0.140531 -0.025215 0)
(-0.134877 -0.0282083 0)
(-0.128608 -0.0308896 0)
(-0.121778 -0.0332111 0)
(-0.114449 -0.035129 0)
(-0.106692 -0.0366052 0)
(-0.0985867 -0.0376089 0)
(-0.0902182 -0.0381174 0)
(-0.0816792 -0.0381175 0)
(-0.0730669 -0.0376066 0)
(-0.0644819 -0.0365934 0)
(-0.0560261 -0.0350981 0)
(-0.0478002 -0.0331525 0)
(-0.0399022 -0.0307994 0)
(-0.0324238 -0.0280915 0)
(-0.0254492 -0.02509 0)
(-0.019052 -0.0218629 0)
(-0.0132934 -0.0184826 0)
(-0.00822094 -0.0150239 0)
(-0.00386672 -0.0115616 0)
(-0.000246988 -0.00816861 0)
(0.0026383 -0.00491422 0)
(0.00480534 -0.00186324 0)
(0.00628599 0.000924407 0)
(0.007127 0.00339315 0)
(0.00738901 0.00549055 0)
(0.00714558 0.00716534 0)
(0.00648232 0.00836514 0)
(0.00549644 0.00903407 0)
(0.00429701 0.00911071 0)
(0.00300393 0.0085269 0)
(0.00174756 0.00720764 0)
(0.000701674 0.0050719 0)
(0.000128899 0.00202904 0)
(-3.96724e-05 -0.000288432 0)
(-0.000354305 2.60909e-05 0)
(-0.00111581 0.000940586 0)
(-0.00228968 0.00225189 0)
(-0.00386406 0.00381908 0)
(-0.00583479 0.00554196 0)
(-0.00819515 0.00735297 0)
(-0.0109394 0.00920967 0)
(-0.0140645 0.0110874 0)
(-0.0175697 0.0129732 0)
(-0.0214556 0.0148607 0)
(-0.025723 0.0167463 0)
(-0.0303716 0.0186268 0)
(-0.035399 0.0204969 0)
(-0.0407988 0.0223481 0)
(-0.0465603 0.0241679 0)
(-0.0526673 0.0259396 0)
(-0.0590976 0.0276423 0)
(-0.0658225 0.029251 0)
(-0.0728066 0.0307376 0)
(-0.0800081 0.0320713 0)
(-0.0873787 0.0332198 0)
(-0.0948646 0.0341501 0)
(-0.102407 0.03483 0)
(-0.109943 0.0352284 0)
(-0.117408 0.0353174 0)
(-0.124733 0.0350722 0)
(-0.131852 0.0344727 0)
(-0.138697 0.0335037 0)
(-0.145202 0.0321556 0)
(-0.151306 0.0304247 0)
(-0.156948 0.0283134 0)
(-0.162073 0.0258303 0)
(-0.16663 0.0229898 0)
(-0.170573 0.0198122 0)
(-0.173862 0.0163235 0)
(-0.176459 0.0125546 0)
(-0.178335 0.00854164 0)
(-0.179462 0.00432478 0)
(-0.17982 -5.09669e-05 0)
(-0.179395 -0.00453417 0)
(-0.178176 -0.00907579 0)
(-0.176161 -0.0136201 0)
(-0.173349 -0.0181091 0)
(-0.169752 -0.0224827 0)
(-0.165383 -0.0266799 0)
(-0.160267 -0.0306387 0)
(-0.154435 -0.034298 0)
(-0.147927 -0.0375979 0)
(-0.140793 -0.0404816 0)
(-0.133089 -0.0428965 0)
(-0.124885 -0.0447957 0)
(-0.116257 -0.0461399 0)
(-0.107291 -0.0468991 0)
(-0.0980807 -0.0470535 0)
(-0.0887276 -0.0465958 0)
(-0.0793372 -0.0455313 0)
(-0.0700187 -0.0438793 0)
(-0.060882 -0.0416729 0)
(-0.0520355 -0.0389587 0)
(-0.0435829 -0.0357959 0)
(-0.0356208 -0.0322547 0)
(-0.0282356 -0.0284144 0)
(-0.0215017 -0.0243607 0)
(-0.0154785 -0.0201834 0)
(-0.0102097 -0.0159733 0)
(-0.00572139 -0.0118202 0)
(-0.00202216 -0.00781033 0)
(0.000897435 -0.00402526 0)
(0.00306426 -0.000541022 0)
(0.00452186 0.00257155 0)
(0.00532942 0.0052458 0)
(0.00556063 0.00741724 0)
(0.00530266 0.00902104 0)
(0.00465556 0.00998921 0)
(0.0037322 0.0102479 0)
(0.00265713 0.00971472 0)
(0.00156586 0.00829782 0)
(0.000634132 0.00589442 0)
(0.000117219 0.00238385 0)
(-6.68971e-05 -7.27787e-05 0)
(-0.000519963 0.000695064 0)
(-0.00155844 0.0020635 0)
(-0.00310073 0.00381834 0)
(-0.0051088 0.00581493 0)
(-0.00756358 0.00795348 0)
(-0.0104472 0.0101693 0)
(-0.0137465 0.0124237 0)
(-0.0174538 0.0146957 0)
(-0.0215658 0.0169748 0)
(-0.0260818 0.0192558 0)
(-0.0310016 0.0215348 0)
(-0.0363239 0.0238067 0)
(-0.0420442 0.0260628 0)
(-0.0481539 0.0282901 0)
(-0.0546388 0.0304707 0)
(-0.0614783 0.0325818 0)
(-0.0686451 0.0345956 0)
(-0.0761049 0.0364804 0)
(-0.083816 0.0382012 0)
(-0.0917306 0.0397209 0)
(-0.0997944 0.0410012 0)
(-0.107948 0.0420042 0)
(-0.116128 0.0426935 0)
(-0.124269 0.0430352 0)
(-0.132301 0.0429995 0)
(-0.140157 0.0425614 0)
(-0.147768 0.0417013 0)
(-0.155069 0.0404057 0)
(-0.161995 0.0386677 0)
(-0.168487 0.0364871 0)
(-0.174489 0.0338703 0)
(-0.179947 0.03083 0)
(-0.184815 0.0273853 0)
(-0.18905 0.0235613 0)
(-0.192612 0.0193887 0)
(-0.195467 0.0149032 0)
(-0.197585 0.0101456 0)
(-0.198939 0.00516121 0)
(-0.199508 -1.37498e-07 0)
(-0.199273 -0.00528511 0)
(-0.198224 -0.0106361 0)
(-0.196351 -0.0159924 0)
(-0.193651 -0.0212903 0)
(-0.190128 -0.0264633 0)
(-0.185789 -0.0314434 0)
(-0.180653 -0.0361609 0)
(-0.174743 -0.0405463 0)
(-0.168092 -0.0445308 0)
(-0.160744 -0.048048 0)
(-0.15275 -0.0510354 0)
(-0.144174 -0.0534364 0)
(-0.135089 -0.0552017 0)
(-0.125581 -0.056292 0)
(-0.115742 -0.0566792 0)
(-0.105676 -0.0563487 0)
(-0.0954942 -0.0553009 0)
(-0.0853125 -0.0535518 0)
(-0.0752502 -0.051134 0)
(-0.0654268 -0.0480967 0)
(-0.055959 -0.0445042 0)
(-0.0469573 -0.0404351 0)
(-0.0385227 -0.0359797 0)
(-0.0307441 -0.0312373 0)
(-0.0236951 -0.0263135 0)
(-0.0174324 -0.0213164 0)
(-0.011994 -0.0163539 0)
(-0.00739821 -0.0115311 0)
(-0.00364377 -0.00694803 0)
(-0.0007099 -0.00269873 0)
(0.00144285 0.00112893 0)
(0.00287144 0.00445232 0)
(0.00364904 0.0071922 0)
(0.00386382 0.00926995 0)
(0.00361803 0.0106044 0)
(0.00302759 0.0111084 0)
(0.00222065 0.0106855 0)
(0.00133637 0.00922775 0)
(0.000549575 0.00661333 0)
(0.00010309 0.00269792 0)
(-9.61985e-05 0.00023207 0)
(-0.000697417 0.00159199 0)
(-0.00203095 0.00352008 0)
(-0.00396355 0.00579779 0)
(-0.00642831 0.00828286 0)
(-0.00938962 0.0108815 0)
(-0.0128174 0.0135367 0)
(-0.01669 0.016217 0)
(-0.0209948 0.0189075 0)
(-0.0257256 0.021602 0)
(-0.0308797 0.0242973 0)
(-0.0364557 0.0269892 0)
(-0.0424505 0.0296701 0)
(-0.0488575 0.0323276 0)
(-0.0556651 0.0349433 0)
(-0.0628553 0.0374929 0)
(-0.070403 0.0399465 0)
(-0.0782757 0.0422692 0)
(-0.0864334 0.0444222 0)
(-0.0948292 0.0463635 0)
(-0.10341 0.0480497 0)
(-0.112116 0.0494373 0)
(-0.120884 0.0504841 0)
(-0.129648 0.0511505 0)
(-0.138339 0.051401 0)
(-0.146889 0.0512054 0)
(-0.15523 0.0505391 0)
(-0.163294 0.0493844 0)
(-0.171018 0.0477306 0)
(-0.178343 0.045574 0)
(-0.18521 0.0429182 0)
(-0.191567 0.0397737 0)
(-0.197367 0.0361576 0)
(-0.202563 0.0320932 0)
(-0.207116 0.0276096 0)
(-0.210988 0.0227414 0)
(-0.214146 0.0175284 0)
(-0.21656 0.0120151 0)
(-0.218202 0.00625063 0)
(-0.219049 0.000288344 0)
(-0.21908 -0.00581495 0)
(-0.218279 -0.0119968 0)
(-0.216632 -0.0181921 0)
(-0.214132 -0.0243318 0)
(-0.210773 -0.0303439 0)
(-0.206559 -0.0361537 0)
(-0.201498 -0.0416841 0)
(-0.195607 -0.0468575 0)
(-0.18891 -0.0515958 0)
(-0.181441 -0.0558227 0)
(-0.173246 -0.0594651 0)
(-0.164381 -0.062455 0)
(-0.154915 -0.064732 0)
(-0.144928 -0.0662454 0)
(-0.134513 -0.0669567 0)
(-0.123774 -0.0668417 0)
(-0.112826 -0.0658931 0)
(-0.10179 -0.0641213 0)
(-0.0907962 -0.0615563 0)
(-0.0799745 -0.0582474 0)
(-0.0694557 -0.0542628 0)
(-0.0593656 -0.0496882 0)
(-0.0498218 -0.0446247 0)
(-0.0409298 -0.0391854 0)
(-0.0327797 -0.0334921 0)
(-0.0254435 -0.0276716 0)
(-0.018973 -0.0218518 0)
(-0.0133987 -0.0161581 0)
(-0.00872889 -0.0107115 0)
(-0.00495019 -0.00562594 0)
(-0.00202832 -0.00100847 0)
(9.07008e-05 0.00304049 0)
(0.00147899 0.00642525 0)
(0.00222524 0.00905205 0)
(0.00243348 0.0108255 0)
(0.00222215 0.0116447 0)
(0.00172229 0.0113994 0)
(0.00107579 0.0099667 0)
(0.000454998 0.00720907 0)
(8.78773e-05 0.00296467 0)
(-0.000127324 0.000631777 0)
(-0.000884507 0.00273004 0)
(-0.00252692 0.0053278 0)
(-0.00486589 0.00820936 0)
(-0.00780336 0.0112419 0)
(-0.0112859 0.0143437 0)
(-0.0152703 0.0174703 0)
(-0.0197261 0.0206018 0)
(-0.024635 0.023732 0)
(-0.0299876 0.0268604 0)
(-0.0357792 0.0299866 0)
(-0.0420062 0.0331063 0)
(-0.0486637 0.0362091 0)
(-0.0557426 0.039278 0)
(-0.0632276 0.0422884 0)
(-0.0710969 0.045209 0)
(-0.0793208 0.0480024 0)
(-0.0878616 0.0506261 0)
(-0.0966744 0.0530339 0)
(-0.105707 0.0551772 0)
(-0.114903 0.0570069 0)
(-0.124197 0.058475 0)
(-0.133526 0.0595359 0)
(-0.14282 0.0601483 0)
(-0.152012 0.0602759 0)
(-0.161032 0.0598892 0)
(-0.169815 0.0589654 0)
(-0.178296 0.0574894 0)
(-0.186416 0.0554538 0)
(-0.194118 0.0528586 0)
(-0.201348 0.0497114 0)
(-0.208057 0.0460267 0)
(-0.214201 0.0418252 0)
(-0.219737 0.0371341 0)
(-0.224627 0.031986 0)
(-0.228835 0.0264185 0)
(-0.232328 0.0204744 0)
(-0.235075 0.0142011 0)
(-0.23705 0.00765034 0)
(-0.238225 0.000878362 0)
(-0.238578 -0.00605491 0)
(-0.238088 -0.013084 0)
(-0.236737 -0.0201401 0)
(-0.234511 -0.0271498 0)
(-0.231399 -0.0340363 0)
(-0.227397 -0.0407189 0)
(-0.222504 -0.0471139 0)
(-0.216728 -0.0531355 0)
(-0.210083 -0.0586969 0)
(-0.202595 -0.0637115 0)
(-0.1943 -0.0680948 0)
(-0.185244 -0.0717668 0)
(-0.175488 -0.0746541 0)
(-0.165108 -0.0766929 0)
(-0.154191 -0.0778318 0)
(-0.14284 -0.0780346 0)
(-0.131171 -0.0772831 0)
(-0.119311 -0.0755793 0)
(-0.107397 -0.0729475 0)
(-0.0955718 -0.0694345 0)
(-0.0839794 -0.0651101 0)
(-0.0727626 -0.0600658 0)
(-0.0620571 -0.0544122 0)
(-0.0519878 -0.0482761 0)
(-0.0426638 -0.0417965 0)
(-0.0341756 -0.0351198 0)
(-0.0265916 -0.0283956 0)
(-0.0199567 -0.0217724 0)
(-0.0142912 -0.0153941 0)
(-0.00959095 -0.00939721 0)
(-0.00582819 -0.00391033 0)
(-0.00295288 0.000946189 0)
(-0.000894616 0.00505834 0)
(0.000435429 0.00831572 0)
(0.00114275 0.0106077 0)
(0.00134806 0.0118193 0)
(0.00118496 0.0118266 0)
(0.000797755 0.0104935 0)
(0.000356014 0.00766961 0)
(7.26416e-05 0.00318087 0)
(-0.000159911 0.00113084 0)
(-0.00107882 0.00411913 0)
(-0.00303964 0.00749904 0)
(-0.00579517 0.0110658 0)
(-0.00921443 0.0147036 0)
(-0.0132252 0.0183496 0)
(-0.0177707 0.0219773 0)
(-0.022811 0.0255821 0)
(-0.0283222 0.0291696 0)
(-0.0342912 0.0327467 0)
(-0.0407107 0.0363165 0)
(-0.0475753 0.0398743 0)
(-0.0548773 0.043407 0)
(-0.0626047 0.046892 0)
(-0.0707387 0.050298 0)
(-0.0792532 0.0535862 0)
(-0.088114 0.0567112 0)
(-0.0972789 0.0596227 0)
(-0.106698 0.0622676 0)
(-0.116316 0.064591 0)
(-0.126072 0.066539 0)
(-0.1359 0.0680599 0)
(-0.145734 0.0691059 0)
(-0.155505 0.0696349 0)
(-0.165145 0.0696113 0)
(-0.174589 0.0690071 0)
(-0.183772 0.0678022 0)
(-0.192634 0.0659847 0)
(-0.201119 0.0635506 0)
(-0.209173 0.0605041 0)
(-0.216748 0.0568563 0)
(-0.223796 0.0526254 0)
(-0.230276 0.0478357 0)
(-0.236149 0.0425172 0)
(-0.241378 0.0367053 0)
(-0.245928 0.0304403 0)
(-0.249768 0.023767 0)
(-0.252867 0.016735 0)
(-0.255197 0.00939795 0)
(-0.25673 0.00181397 0)
(-0.257441 -0.00595459 0)
(-0.257306 -0.0138403 0)
(-0.256304 -0.0217716 0)
(-0.254415 -0.029672 0)
(-0.251621 -0.0374605 0)
(-0.247912 -0.0450518 0)
(-0.243277 -0.0523561 0)
(-0.237714 -0.0592808 0)
(-0.231229 -0.0657302 0)
(-0.223834 -0.0716078 0)
(-0.215553 -0.0768178 0)
(-0.206424 -0.0812673 0)
(-0.196494 -0.0848687 0)
(-0.185831 -0.0875433 0)
(-0.174514 -0.0892244 0)
(-0.162642 -0.0898608 0)
(-0.150329 -0.0894203 0)
(-0.137704 -0.0878929 0)
(-0.124911 -0.0852932 0)
(-0.112101 -0.0816626 0)
(-0.0994346 -0.077069 0)
(-0.0870705 -0.0716072 0)
(-0.075165 -0.065396 0)
(-0.0638645 -0.058575 0)
(-0.0533006 -0.0513006 0)
(-0.0435854 -0.0437403 0)
(-0.0348076 -0.0360672 0)
(-0.02703 -0.0284553 0)
(-0.0202879 -0.0210744 0)
(-0.0145889 -0.0140865 0)
(-0.0099136 -0.00764461 0)
(-0.0062173 -0.00189164 0)
(-0.00343222 0.00303788 0)
(-0.00146991 0.00701517 0)
(-0.000223611 0.00991327 0)
(0.000429573 0.0116025 0)
(0.000625942 0.0119456 0)
(0.000512524 0.0107947 0)
(0.000256802 0.00798883 0)
(5.81537e-05 0.00334587 0)
(-0.00019354 0.00173254 0)
(-0.00127772 0.00576574 0)
(-0.00356197 0.0100411 0)
(-0.00673826 0.0143736 0)
(-0.0106415 0.0186725 0)
(-0.01518 0.022901 0)
(-0.020283 0.0270563 0)
(-0.0259011 0.0311535 0)
(-0.0320044 0.0352125 0)
(-0.0385761 0.0392494 0)
(-0.0456061 0.0432712 0)
(-0.0530863 0.0472732 0)
(-0.0610065 0.0512388 0)
(-0.0693513 0.0551396 0)
(-0.0780982 0.058937 0)
(-0.0872169 0.0625842 0)
(-0.0966689 0.0660277 0)
(-0.106408 0.0692099 0)
(-0.11638 0.0720707 0)
(-0.126528 0.07455 0)
(-0.136786 0.0765897 0)
(-0.14709 0.0781356 0)
(-0.157371 0.0791389 0)
(-0.167563 0.0795577 0)
(-0.1776 0.0793579 0)
(-0.187417 0.078514 0)
(-0.196955 0.077009 0)
(-0.206156 0.0748345 0)
(-0.214968 0.0719904 0)
(-0.22334 0.0684844 0)
(-0.231227 0.0643314 0)
(-0.238586 0.0595526 0)
(-0.245378 0.0541754 0)
(-0.251566 0.0482326 0)
(-0.257114 0.0417617 0)
(-0.261992 0.0348051 0)
(-0.266167 0.0274094 0)
(-0.269611 0.0196254 0)
(-0.272295 0.0115083 0)
(-0.274193 0.00311744 0)
(-0.275277 -0.00548357 0)
(-0.275523 -0.0142261 0)
(-0.274905 -0.0230369 0)
(-0.273401 -0.0318376 0)
(-0.270987 -0.0405445 0)
(-0.267644 -0.0490688 0)
(-0.263355 -0.0573163 0)
(-0.258107 -0.0651882 0)
(-0.251894 -0.0725816 0)
(-0.244715 -0.0793907 0)
(-0.236582 -0.0855084 0)
(-0.227517 -0.0908288 0)
(-0.217555 -0.0952495 0)
(-0.206749 -0.0986753 0)
(-0.195168 -0.101022 0)
(-0.182901 -0.10222 0)
(-0.170057 -0.10222 0)
(-0.156763 -0.100996 0)
(-0.143166 -0.0985486 0)
(-0.129426 -0.0949085 0)
(-0.115715 -0.0901383 0)
(-0.10221 -0.0843323 0)
(-0.0890871 -0.0776147 0)
(-0.0765182 -0.0701368 0)
(-0.0646598 -0.0620718 0)
(-0.05365 -0.053609 0)
(-0.043602 -0.0449473 0)
(-0.0346007 -0.0362886 0)
(-0.0267004 -0.027832 0)
(-0.0199237 -0.0197689 0)
(-0.0142625 -0.0122798 0)
(-0.00967952 -0.00553351 0)
(-0.00611076 0.00031211 0)
(-0.00346893 0.0051078 0)
(-0.00164627 0.00870875 0)
(-0.00051756 0.0109699 0)
(5.66177e-05 0.0117408 0)
(0.00022686 0.0108623 0)
(0.000160086 0.00816482 0)
(4.48991e-05 0.00346086 0)
(-0.000227722 0.00243871 0)
(-0.00147829 0.00767268 0)
(-0.00408626 0.0129558 0)
(-0.00768145 0.0181325 0)
(-0.0120638 0.0231457 0)
(-0.0171222 0.027992 0)
(-0.0227716 0.0326983 0)
(-0.0289529 0.0373035 0)
(-0.0356304 0.0418447 0)
(-0.0427831 0.0463486 0)
(-0.0503982 0.0508269 0)
(-0.0584646 0.0552749 0)
(-0.066969 0.059672 0)