/*--------------------------------*- C++ -*----------------------------------*\
  =========                 |
  \\      /  F ield         | OpenFOAM: The Open Source CFD Toolbox
   \\    /   O peration     | Website:  https://openfoam.org
    \\  /    A nd           | Version:  7
     \\/     M anipulation  |
\*---------------------------------------------------------------------------*/
FoamFile
{
    version     2.0;
    format      ascii;
    class       volScalarField;
    location    "1.6";
    object      p;
}
// * * * * * * * * * * * * * * * * * * * * * * * * * * * * * * * * * * * * * //

dimensions      [0 2 -2 0 0 0 0];

internalField   nonuniform List<scalar> 
6400
(
-1.36127e-08
6.22163e-06
-8.11814e-06
-4.37169e-05
-9.74004e-05
-0.000165901
-0.000246186
-0.000335741
-0.000432674
-0.000535645
-0.000643898
-0.00075663
-0.000873567
-0.000994368
-0.00111868
-0.00124607
-0.00137598
-0.0015077
-0.00164031
-0.00177271
-0.0019036
-0.00203149
-0.00215469
-0.00227135
-0.00237945
-0.00247688
-0.00256141
-0.00263079
-0.00268277
-0.0027152
-0.00272605
-0.00271356
-0.00267627
-0.00261315
-0.00252364
-0.00240782
-0.00226642
-0.00210088
-0.00191348
-0.00170725
-0.00148601
-0.00125443
-0.00101779
-0.000781967
-0.000553283
-0.000338318
-0.000143703
2.40967e-05
0.000159021
0.00025565
0.000309428
0.000316861
0.000275683
0.000184968
4.51919e-05
-0.000141772
-0.000372712
-0.000643209
-0.000947801
-0.0012802
-0.00163356
-0.00200071
-0.00237445
-0.00274773
-0.00311393
-0.003467
-0.00380155
-0.00411298
-0.0043974
-0.00465167
-0.00487327
-0.00506026
-0.00521116
-0.00532495
-0.00540115
-0.00544023
-0.00544444
-0.00541941
-0.00537607
-0.00533086
-6.78887e-06
-6.34517e-07
-1.47559e-05
-4.72173e-05
-9.48846e-05
-0.000155559
-0.000227118
-0.00030764
-0.000395595
-0.000489813
-0.000589471
-0.000693916
-0.000802698
-0.000915418
-0.00103167
-0.00115099
-0.00127282
-0.00139647
-0.00152108
-0.00164566
-0.00176902
-0.0018898
-0.0020065
-0.00211744
-0.00222081
-0.00231467
-0.00239703
-0.00246582
-0.00251901
-0.0025546
-0.00257075
-0.00256582
-0.00253843
-0.00248761
-0.00241281
-0.00231405
-0.00219195
-0.0020478
-0.00188363
-0.00170219
-0.00150698
-0.00130219
-0.0010927
-0.00088392
-0.000681656
-0.000491968
-0.00032097
-0.000174623
-5.8515e-05
2.23605e-05
6.38151e-05
6.26513e-05
1.6813e-05
-7.4508e-05
-0.000210819
-0.000390332
-0.000610024
-0.000865756
-0.00115244
-0.00146426
-0.00179485
-0.00213762
-0.00248591
-0.0028333
-0.00317371
-0.00350164
-0.00381219
-0.00410122
-0.00436526
-0.00460154
-0.00480794
-0.00498291
-0.00512543
-0.00523497
-0.00531164
-0.00535635
-0.00537146
-0.00536142
-0.00533089
-0.00528562
7.39991e-06
1.27042e-05
-1.95061e-06
-3.32884e-05
-7.7992e-05
-0.000134254
-0.00020041
-0.000274901
-0.000356485
-0.000444193
-0.000537296
-0.000635231
-0.000737561
-0.000843901
-0.000953859
-0.001067
-0.00118278
-0.00130058
-0.0014196
-0.00153894
-0.00165752
-0.0017741
-0.0018873
-0.00199558
-0.00209725
-0.00219055
-0.00227358
-0.0023444
-0.00240108
-0.00244169
-0.00246445
-0.00246773
-0.00245016
-0.0024107
-0.00234874
-0.00226416
-0.00215743
-0.00202966
-0.00188267
-0.00171897
-0.00154177
-0.00135507
-0.00116343
-0.000971984
-0.000786269
-0.000612089
-0.00045532
-0.000321703
-0.00021663
-0.000144926
-0.000110639
-0.000116859
-0.000165567
-0.000257528
-0.000392242
-0.000567947
-0.000781686
-0.00102942
-0.0013062
-0.00160638
-0.00192383
-0.00225218
-0.00258507
-0.00291636
-0.00324033
-0.00355179
-0.00384622
-0.00411979
-0.00436942
-0.0045927
-0.00478786
-0.0049537
-0.00508953
-0.00519514
-0.00527077
-0.00531723
-0.00533638
-0.0053311
-0.00530054
-0.00524229
4.43387e-05
4.49785e-05
2.75679e-05
-4.64912e-06
-4.86395e-05
-0.000102781
-0.00016566
-0.000236028
-0.000312898
-0.000395515
-0.000483321
-0.000575885
-0.000672861
-0.00077394
-0.000878799
-0.000987058
-0.00109826
-0.00121183
-0.00132709
-0.0014432
-0.00155919
-0.00167394
-0.00178617
-0.00189444
-0.00199718
-0.00209268
-0.00217915
-0.00225468
-0.00231736
-0.00236528
-0.00239659
-0.00240961
-0.00240287
-0.0023752
-0.00232583
-0.00225446
-0.00216138
-0.00204747
-0.00191434
-0.00176434
-0.00160042
-0.00142645
-0.00124679
-0.00106643
-0.000890826
-0.000725684
-0.000576827
-0.000449967
-0.000350489
-0.000283227
-0.00025225
-0.000260676
-0.000310511
-0.000402544
-0.000536288
-0.00070999
-0.000920688
-0.00116434
-0.00143599
-0.00172999
-0.00204023
-0.00236039
-0.00268419
-0.0030056
-0.00331905
-0.00361955
-0.00390282
-0.00416534
-0.00440429
-0.00461763
-0.0048039
-0.00496225
-0.00509225
-0.00519386
-0.00526734
-0.00531316
-0.00533252
-0.00532694
-0.00529136
-0.0052179
0.00010174
9.35231e-05
7.081e-05
3.59271e-05
-8.95488e-06
-6.24035e-05
-0.000123264
-0.000190602
-0.000263709
-0.00034208
-0.000425357
-0.000513283
-0.000605656
-0.000702284
-0.000802946
-0.000907358
-0.00101516
-0.00112588
-0.00123893
-0.00135359
-0.00146898
-0.00158409
-0.00169774
-0.00180858
-0.00191511
-0.00201568
-0.0021085
-0.00219169
-0.00226327
-0.00232126
-0.00236372
-0.00238882
-0.0023949
-0.00238062
-0.00234497
-0.00228745
-0.00220807
-0.0021075
-0.00198716
-0.0018493
-0.00169634
-0.00153232
-0.00136145
-0.00118864
-0.00101931
-0.000859199
-0.000714183
-0.000590058
-0.00049232
-0.000425927
-0.000395078
-0.000403016
-0.000451858
-0.000542481
-0.000674456
-0.000846052
-0.0010543
-0.00129511
-0.00156346
-0.00185362
-0.0021594
-0.00247441
-0.00279232
-0.00310709
-0.0034132
-0.00370575
-0.00398064
-0.00423453
-0.00446489
-0.00466997
-0.00484863
-0.00500032
-0.00512488
-0.00522245
-0.00529325
-0.00533751
-0.00535589
-0.00534888
-0.00530868
-0.005224
0.000176603
0.000156074
0.000125886
8.66943e-05
3.94877e-05
-1.45423e-05
-7.4523e-05
-0.000139861
-0.000210166
-0.000285206
-0.000364862
-0.000449086
-0.000537853
-0.000631122
-0.000728809
-0.00083076
-0.000936732
-0.00104638
-0.00115922
-0.00127467
-0.00139194
-0.00151012
-0.00162813
-0.00174467
-0.00185829
-0.00196734
-0.00207002
-0.00216437
-0.0022483
-0.00231971
-0.00237645
-0.00241649
-0.00243793
-0.00243915
-0.00241888
-0.00237633
-0.00231125
-0.00222405
-0.00211603
-0.00198956
-0.0018454
-0.001689
-0.00152417
-0.00135574
-0.00118916
-0.00103026
-0.000885068
-0.000759555
-0.000659426
-0.000589867
-0.000555312
-0.000559229
-0.000603942
-0.000690497
-0.000818593
-0.000986571
-0.00119148
-0.00142919
-0.00169461
-0.00198186
-0.00228462
-0.00259632
-0.0029105
-0.00322105
-0.00352232
-0.00380944
-0.00407837
-0.00432589
-0.00454969
-0.00474824
-0.0049207
-0.00506679
-0.00518661
-0.00528046
-0.00534861
-0.00539116
-0.00540839
-0.00540019
-0.00535723
-0.00526653
0.000265398
0.000229935
0.000190407
0.000145523
9.4773e-05
3.9058e-05
-2.10628e-05
-8.53798e-05
-0.000153852
-0.000226555
-0.000303641
-0.000385299
-0.00047171
-0.000563016
-0.000659299
-0.000760561
-0.000866704
-0.00097752
-0.00109267
-0.00121167
-0.00133387
-0.00145844
-0.00158436
-0.00171039
-0.00183507
-0.00195671
-0.00207343
-0.00218314
-0.00228359
-0.00237244
-0.0024473
-0.00250584
-0.00254585
-0.00256538
-0.00256283
-0.00253707
-0.00248756
-0.00241444
-0.00231851
-0.00220108
-0.00206634
-0.00191619
-0.00175515
-0.00158828
-0.00142112
-0.00125967
-0.00111016
-0.000978819
-0.000871652
-0.000794172
-0.000751153
-0.000746401
-0.000782555
-0.000860943
-0.000981489
-0.0011427
-0.0013417
-0.00157438
-0.00183558
-0.00211929
-0.00241901
-0.00272798
-0.0030395
-0.00334724
-0.00364543
-0.00392908
-0.00419409
-0.0044373
-0.00465649
-0.00485031
-0.00501814
-0.00515994
-0.00527604
-0.00536694
-0.00543301
-0.00547431
-0.00549097
-0.00548255
-0.00543919
-0.00534744
0.000364385
0.000311897
0.000261509
0.000209815
0.000154545
9.62443e-05
3.51078e-05
-2.90831e-05
-9.66765e-05
-0.000168089
-0.000243775
-0.000324185
-0.00040973
-0.000500763
-0.000597558
-0.000700296
-0.000809048
-0.000923763
-0.00104425
-0.00117015
-0.00130094
-0.00143586
-0.00157394
-0.00171395
-0.0018544
-0.00199351
-0.00212925
-0.00225933
-0.00238128
-0.00249244
-0.00259011
-0.00267158
-0.00273428
-0.00277584
-0.00279428
-0.00278809
-0.00275637
-0.00269896
-0.00261643
-0.00251024
-0.00238283
-0.00223754
-0.00207854
-0.0019108
-0.00173999
-0.00157228
-0.00141414
-0.00127213
-0.00115263
-0.00106159
-0.00100423
-0.000984815
-0.00100644
-0.00107086
-0.00117835
-0.00132771
-0.00151627
-0.00174002
-0.00199379
-0.00227151
-0.00256648
-0.00287172
-0.00318026
-0.0034855
-0.00378142
-0.00406279
-0.00432539
-0.00456597
-0.00478232
-0.00497317
-0.00513804
-0.00527709
-0.00539084
-0.00547997
-0.005545
-0.00558607
-0.00560327
-0.00559608
-0.00555479
-0.00546634
0.000469579
0.000398316
0.000335932
0.000276573
0.000216026
0.000154412
9.15046e-05
2.66004e-05
-4.10802e-05
-0.000112329
-0.000187927
-0.00026861
-0.000355047
-0.000447823
-0.000547428
-0.000654243
-0.000768529
-0.000890411
-0.00101986
-0.00115665
-0.00130037
-0.00145033
-0.00160559
-0.00176489
-0.00192666
-0.00208898
-0.00224961
-0.00240602
-0.0025554
-0.00269474
-0.00282093
-0.00293082
-0.00302138
-0.00308979
-0.0031336
-0.00315086
-0.00314026
-0.00310124
-0.00303405
-0.0029399
-0.00282088
-0.00268029
-0.00252222
-0.00235163
-0.0021743
-0.00199657
-0.00182521
-0.00166715
-0.00152923
-0.00141791
-0.001339
-0.00129736
-0.00129672
-0.0013394
-0.00142624
-0.00155649
-0.00172785
-0.00193657
-0.00217758
-0.0024448
-0.00273143
-0.00303024
-0.003334
-0.00363575
-0.00392913
-0.00420862
-0.0044697
-0.00470894
-0.00492401
-0.0051136
-0.00527728
-0.00541531
-0.00552836
-0.00561728
-0.00568274
-0.00572501
-0.00574425
-0.00573997
-0.0057031
-0.00562154
0.000576742
0.00048534
0.00041006
0.000342399
0.000275999
0.000210485
0.000145134
7.86972e-05
9.91846e-06
-6.24e-05
-0.000139391
-0.000222103
-0.000311485
-0.000408377
-0.000513505
-0.000627473
-0.000750753
-0.000883662
-0.00102634
-0.00117871
-0.00134046
-0.00151095
-0.00168926
-0.00187405
-0.00206363
-0.00225589
-0.00244832
-0.00263806
-0.00282191
-0.00299643
-0.00315802
-0.00330302
-0.00342787
-0.00352921
-0.00360406
-0.00364995
-0.00366507
-0.00364839
-0.0035997
-0.00351964
-0.00341084
-0.00327559
-0.00311798
-0.00294301
-0.0027565
-0.00256499
-0.00237552
-0.00219545
-0.00203213
-0.00189264
-0.0017835
-0.00171036
-0.00167773
-0.00168875
-0.00174502
-0.00184648
-0.00199142
-0.00217652
-0.00239701
-0.00264696
-0.0029195
-0.00320727
-0.00350272
-0.00379853
-0.00408793
-0.00436495
-0.0046247
-0.0048634
-0.00507846
-0.0052684
-0.00543272
-0.00557165
-0.00568593
-0.00577652
-0.00584421
-0.00588944
-0.00591246
-0.00591286
-0.00588252
-0.00581065
0.000681364
0.000568723
0.000479878
0.000403468
0.000330795
0.000260894
0.000192472
0.000123671
5.27123e-05
-2.20413e-05
-0.000102104
-0.00018886
-0.00028356
-0.00038732
-0.000501126
-0.000625829
-0.00076213
-0.000910556
-0.00107143
-0.00124482
-0.0014305
-0.00162789
-0.00183603
-0.00205348
-0.00227839
-0.00250838
-0.00274063
-0.00297188
-0.00319847
-0.00341643
-0.00362162
-0.0038098
-0.00397677
-0.00411856
-0.00423157
-0.00431271
-0.00435957
-0.00437056
-0.00434498
-0.00428311
-0.00418672
-0.00405821
-0.00390138
-0.00372105
-0.00352304
-0.00331404
-0.00310137
-0.0028928
-0.00269626
-0.00251956
-0.00237007
-0.00225436
-0.00217798
-0.00214512
-0.00215839
-0.00221873
-0.00232527
-0.00247541
-0.00266492
-0.00288818
-0.00313846
-0.00340832
-0.00368995
-0.00397566
-0.00425817
-0.00453101
-0.00478873
-0.00502707
-0.005243
-0.00543472
-0.00560145
-0.0057433
-0.00586095
-0.00595534
-0.00602737
-0.00607755
-0.00610625
-0.00611314
-0.00609119
-0.00603111
0.000778602
0.000643865
0.000540987
0.000455539
0.000376289
0.000301578
0.000229467
0.000157424
8.31018e-05
4.38594e-06
-8.06476e-05
-0.000173741
-0.00027647
-0.000390252
-0.000516358
-0.000655907
-0.000809851
-0.000978945
-0.0011637
-0.00136434
-0.00158071
-0.00181227
-0.00205799
-0.00231631
-0.00258514
-0.00286181
-0.00314311
-0.0034253
-0.00370421
-0.00397527
-0.0042337
-0.00447458
-0.00469302
-0.00488433
-0.00504416
-0.00516871
-0.00525485
-0.00530032
-0.00530378
-0.00526497
-0.00518494
-0.0050658
-0.00491097
-0.00472503
-0.00451373
-0.00428379
-0.0040428
-0.00379893
-0.00356074
-0.00333682
-0.00313551
-0.00296452
-0.00283063
-0.00273934
-0.00269463
-0.00269871
-0.00275194
-0.00285276
-0.00299779
-0.00318201
-0.00339904
-0.00364151
-0.00390148
-0.00417085
-0.00444185
-0.00470736
-0.00496125
-0.00519858
-0.00541571
-0.00561028
-0.00578108
-0.00592788
-0.00605113
-0.00615166
-0.00623032
-0.00628765
-0.00632403
-0.00633921
-0.00632726
-0.0062805
0.00086326
0.000705811
0.00058861
0.000493963
0.000407912
0.000327999
0.000251556
0.000175316
9.63133e-05
1.19213e-05
-8.02215e-05
-0.000182243
-0.000296068
-0.000423443
-0.000565949
-0.000725
-0.000901821
-0.00109741
-0.00131248
-0.0015474
-0.0018021
-0.00207604
-0.00236809
-0.00267654
-0.00299902
-0.0033325
-0.00367331
-0.0040172
-0.00435937
-0.0046946
-0.00501738
-0.00532201
-0.0056028
-0.00585423
-0.00607112
-0.00624881
-0.00638334
-0.0064716
-0.0065115
-0.00650204
-0.00644356
-0.00633758
-0.00618705
-0.00599618
-0.00577052
-0.00551675
-0.00524262
-0.00495669
-0.00466812
-0.00438634
-0.00412077
-0.00388041
-0.00367349
-0.00350713
-0.00338695
-0.00331688
-0.00329885
-0.00333279
-0.00341656
-0.0035461
-0.00371571
-0.00391833
-0.00414602
-0.00439039
-0.00464313
-0.00489641
-0.00514326
-0.00537787
-0.00559574
-0.00579373
-0.00596996
-0.00612362
-0.00625474
-0.00636383
-0.00645154
-0.00651833
-0.00656448
-0.00658972
-0.00658921
-0.00655683
0.000929792
0.000749266
0.000617622
0.000513711
0.000420684
0.000335176
0.000253704
0.000172203
8.70433e-05
-4.94634e-06
-0.000106595
-0.000220446
-0.000348801
-0.000493764
-0.000657257
-0.000841014
-0.00104656
-0.00127515
-0.00152771
-0.00180475
-0.00210629
-0.00243174
-0.00277989
-0.00314879
-0.00353575
-0.00393735
-0.00434938
-0.004767
-0.00518471
-0.00559656
-0.00599618
-0.00637704
-0.00673252
-0.00705615
-0.00734178
-0.00758378
-0.00777721
-0.007918
-0.00800311
-0.00803068
-0.00800017
-0.00791241
-0.00776966
-0.00757566
-0.00733558
-0.00705595
-0.00674458
-0.0064103
-0.00606286
-0.00571252
-0.00536982
-0.00504517
-0.00474845
-0.00448864
-0.00427339
-0.00410868
-0.00399854
-0.00394482
-0.00394712
-0.00400285
-0.00410735
-0.00425426
-0.00443589
-0.00464371
-0.00486892
-0.0051029
-0.00533773
-0.00556651
-0.00578364
-0.0059849
-0.00616743
-0.0063296
-0.00647073
-0.0065908
-0.00669005
-0.00676867
-0.00682672
-0.00686379
-0.006876
-0.00685872
0.000972341
0.000768636
0.000622582
0.000509425
0.000409268
0.000317737
0.000230453
0.000142494
4.95248e-05
-5.22065e-05
-0.000166028
-0.000294925
-0.000441612
-0.000608581
-0.000798126
-0.00101233
-0.00125305
-0.00152181
-0.00181976
-0.00214756
-0.00250527
-0.00289228
-0.00330722
-0.00374789
-0.00421124
-0.00469335
-0.00518945
-0.00569399
-0.00620072
-0.00670283
-0.00719304
-0.00766382
-0.00810752
-0.00851662
-0.00888386
-0.0092025
-0.0094665
-0.00967067
-0.00981093
-0.00988437
-0.00988947
-0.00982616
-0.00969593
-0.00950184
-0.00924855
-0.00894228
-0.00859071
-0.00820288
-0.00778896
-0.00735999
-0.00692763
-0.00650373
-0.00609995
-0.00572735
-0.00539591
-0.00511407
-0.00488841
-0.00472327
-0.00462057
-0.00457973
-0.00459773
-0.00466935
-0.00478754
-0.00494392
-0.00512931
-0.00533433
-0.00554998
-0.00576806
-0.00598159
-0.00618496
-0.00637399
-0.00654587
-0.00669891
-0.00683225
-0.00694549
-0.00703832
-0.0071104
-0.00716109
-0.00718721
-0.00718559
0.000984789
0.000758077
0.000597802
0.000475478
0.000368038
0.000269998
0.000176011
8.02453e-05
-2.2378e-05
-0.000136226
-0.000265156
-0.000412633
-0.000581813
-0.000775614
-0.000996738
-0.00124766
-0.00153056
-0.00184728
-0.00219919
-0.00258708
-0.00301108
-0.0034705
-0.00396379
-0.00448845
-0.00504099
-0.00561694
-0.00621088
-0.00681649
-0.00742665
-0.00803358
-0.00862897
-0.0092042
-0.00975047
-0.0102591
-0.0107215
-0.0111298
-0.0114767
-0.0117559
-0.011962
-0.012091
-0.0121402
-0.0121087
-0.0119969
-0.0118071
-0.0115432
-0.0112111
-0.010818
-0.0103731
-0.00988674
-0.00937061
-0.00883734
-0.00830021
-0.00777269
-0.00726803
-0.00679875
-0.00637615
-0.00600978
-0.00570706
-0.00547285
-0.00530928
-0.00521564
-0.00518849
-0.00522199
-0.00530827
-0.00543808
-0.00560137
-0.00578801
-0.00598834
-0.00619368
-0.00639667
-0.00659144
-0.00677358
-0.00694001
-0.00708868
-0.00721824
-0.00732763
-0.00741591
-0.00748187
-0.00752314
-0.00753767
0.000960845
0.000711588
0.000537428
0.000406061
0.000291163
0.000186052
8.43481e-05
-2.07345e-05
-0.000135055
-0.000263626
-0.000410868
-0.000580755
-0.00077693
-0.00100277
-0.00126142
-0.00155577
-0.00188838
-0.0022614
-0.00267642
-0.00313439
-0.00363544
-0.0041788
-0.00476268
-0.00538422
-0.00603945
-0.00672325
-0.00742944
-0.00815085
-0.00887936
-0.00960612
-0.0103217
-0.0110162
-0.0116796
-0.0123018
-0.0128731
-0.0133843
-0.0138266
-0.0141924
-0.0144753
-0.0146699
-0.0147724
-0.0147806
-0.0146941
-0.0145142
-0.014244
-0.0138885
-0.0134547
-0.0129514
-0.012389
-0.0117796
-0.0111366
-0.0104744
-0.00980836
-0.00915378
-0.00852587
-0.007939
-0.00740613
-0.00693824
-0.00654385
-0.00622852
-0.00599466
-0.00584145
-0.00576493
-0.0057584
-0.00581297
-0.00591818
-0.00606282
-0.00623565
-0.00642604
-0.00662449
-0.00682298
-0.00701504
-0.00719575
-0.00736143
-0.00750942
-0.00763761
-0.00774417
-0.00782721
-0.00788483
-0.00791609
0.000894144
0.000623107
0.000435538
0.000295284
0.000172718
5.98841e-05
-5.06815e-05
-0.000166757
-0.00029501
-0.000441131
-0.000610133
-0.00080654
-0.00103451
-0.00129794
-0.00160043
-0.00194533
-0.0023356
-0.00277369
-0.00326146
-0.00379994
-0.00438929
-0.00502859
-0.00571576
-0.00644751
-0.00721927
-0.00802521
-0.0088583
-0.00971033
-0.0105721
-0.0114336
-0.012284
-0.0131123
-0.0139068
-0.0146563
-0.0153495
-0.0159758
-0.0165253
-0.016989
-0.017359
-0.0176289
-0.0177937
-0.0178501
-0.0177964
-0.017633
-0.017362
-0.0169877
-0.0165163
-0.0159559
-0.015317
-0.0146115
-0.0138533
-0.0130578
-0.0122417
-0.0114223
-0.0106174
-0.00984461
-0.00912041
-0.00845985
-0.00787567
-0.0073777
-0.00697236
-0.00666236
-0.00644661
-0.0063204
-0.00627587
-0.00630264
-0.00638865
-0.00652106
-0.00668708
-0.00687472
-0.00707329
-0.00727378
-0.00746883
-0.00765269
-0.00782091
-0.00796997
-0.00809685
-0.00819874
-0.00827405
-0.00832279
0.000778369
0.000486624
0.000286259
0.000137295
6.80927e-06
-0.000114491
-0.000235197
-0.0003641
-0.000508704
-0.000675401
-0.00086983
-0.0010971
-0.00136193
-0.00166875
-0.00202169
-0.00242456
-0.00288074
-0.00339301
-0.00396344
-0.00459318
-0.00528233
-0.00602977
-0.00683307
-0.00768841
-0.00859053
-0.00953276
-0.010507
-0.0115041
-0.0125134
-0.0135237
-0.0145227
-0.0154979
-0.0164363
-0.0173251
-0.0181518
-0.0189042
-0.0195711
-0.0201423
-0.0206087
-0.0209626
-0.0211981
-0.0213104
-0.0212972
-0.0211575
-0.0208926
-0.0205056
-0.0200019
-0.0193889
-0.0186763
-0.0178759
-0.0170016
-0.0160691
-0.0150961
-0.0141017
-0.0131058
-0.0121291
-0.0111916
-0.0103128
-0.00951013
-0.00879832
-0.00818875
-0.00768875
-0.0073012
-0.00702449
-0.00685276
-0.00677644
-0.00678311
-0.00685851
-0.00698761
-0.00715558
-0.00734862
-0.00755452
-0.00776295
-0.00796545
-0.00815528
-0.00832705
-0.00847622
-0.00859877
-0.00869322
-0.00876049
0.000607381
0.000296314
8.38991e-05
-7.35787e-05
-0.000212286
-0.000342891
-0.000475137
-0.00061885
-0.000782379
-0.000972845
-0.00119654
-0.0014592
-0.00176613
-0.00212235
-0.00253252
-0.00300097
-0.00353147
-0.00412715
-0.00479028
-0.00552206
-0.00632249
-0.00719017
-0.00812222
-0.00911418
-0.01016
-0.0112519
-0.0123808
-0.0135361
-0.0147059
-0.0158773
-0.0170368
-0.0181702
-0.0192631
-0.020301
-0.0212702
-0.0221571
-0.0229494
-0.0236356
-0.0242055
-0.0246505
-0.0249635
-0.0251388
-0.0251732
-0.0250645
-0.0248131
-0.024421
-0.0238925
-0.023234
-0.0224544
-0.0215646
-0.020578
-0.0195104
-0.0183797
-0.0172061
-0.0160112
-0.0148182
-0.0136507
-0.0125323
-0.0114854
-0.0105303
-0.00968407
-0.00895981
-0.00836563
-0.00790435
-0.00757334
-0.00736496
-0.00726722
-0.00726493
-0.00734091
-0.00747731
-0.00765675
-0.00786325
-0.00808277
-0.00830349
-0.00851575
-0.00871178
-0.00888509
-0.00903012
-0.00914536
-0.00923254
0.000375377
4.66783e-05
-0.00017691
-0.000342694
-0.000489971
-0.000630803
-0.000776101
-0.000936721
-0.00112188
-0.00133943
-0.00159635
-0.00189903
-0.00225341
-0.0026651
-0.00313937
-0.00368101
-0.00429426
-0.00498252
-0.00574823
-0.00659261
-0.00751546
-0.008515
-0.00958778
-0.0107285
-0.0119302
-0.013184
-0.0144794
-0.0158043
-0.0171454
-0.0184883
-0.0198175
-0.0211176
-0.0223724
-0.0235663
-0.0246839
-0.0257107
-0.0266332
-0.0274388
-0.0281167
-0.0286573
-0.0290526
-0.0292963
-0.0293842
-0.0293133
-0.0290829
-0.028694
-0.0281498
-0.0274555
-0.0266187
-0.0256493
-0.0245595
-0.0233645
-0.0220819
-0.0207321
-0.0193377
-0.0179236
-0.0165165
-0.0151435
-0.0138322
-0.0126084
-0.0114958
-0.010514
-0.00967776
-0.00899576
-0.00847021
-0.00809682
-0.00786526
-0.00776023
-0.00776285
-0.00785226
-0.00800715
-0.00820718
-0.00843388
-0.00867129
-0.00890612
-0.00912758
-0.00932671
-0.00949608
-0.00963394
-0.00974282
7.70395e-05
-0.000267301
-0.000501065
-0.000674936
-0.000831169
-0.000983223
-0.00114317
-0.00132288
-0.00153244
-0.00178046
-0.00207462
-0.00242198
-0.00282916
-0.00330238
-0.00384751
-0.00446985
-0.00517403
-0.00596375
-0.00684154
-0.00780852
-0.00886423
-0.0100064
-0.0112308
-0.0125312
-0.0138994
-0.0153253
-0.0167969
-0.0183005
-0.019821
-0.0213423
-0.0228474
-0.0243191
-0.0257399
-0.0270927
-0.0283611
-0.0295294
-0.0305833
-0.0315095
-0.0322966
-0.0329342
-0.0334141
-0.0337295
-0.0338749
-0.0338473
-0.0336448
-0.0332677
-0.0327177
-0.031999
-0.0311176
-0.0300818
-0.0289027
-0.0275938
-0.0261718
-0.0246563
-0.0230701
-0.021439
-0.0197914
-0.0181576
-0.0165695
-0.0150585
-0.013655
-0.0123859
-0.0112738
-0.0103347
-0.00957754
-0.00900305
-0.00860427
-0.0083671
-0.00827182
-0.00829488
-0.00841095
-0.0085948
-0.00882281
-0.00907402
-0.00933068
-0.00957824
-0.0098047
-0.0100003
-0.0101628
-0.0102955
-0.000292304
-0.000650018
-0.000892846
-0.00107457
-0.00124017
-0.00140449
-0.00158072
-0.00178176
-0.00201853
-0.0023004
-0.00263578
-0.00303243
-0.00349762
-0.00403826
-0.00466078
-0.00537099
-0.00617389
-0.00707338
-0.00807203
-0.00917078
-0.0103687
-0.0116629
-0.0130483
-0.0145174
-0.0160608
-0.0176667
-0.0193215
-0.0210096
-0.0227144
-0.0244177
-0.0261011
-0.0277455
-0.0293323
-0.0308431
-0.0322604
-0.0335679
-0.0347506
-0.0357949
-0.0366887
-0.0374219
-0.0379856
-0.0383729
-0.0385781
-0.0385975
-0.0384288
-0.0380711
-0.0375255
-0.0367944
-0.0358826
-0.0347966
-0.0335456
-0.0321412
-0.0305984
-0.0289351
-0.0271733
-0.0253383
-0.0234592
-0.0215685
-0.0197011
-0.0178936
-0.0161826
-0.0146029
-0.0131853
-0.011955
-0.0109291
-0.0101158
-0.00951326
-0.00911058
-0.00888853
-0.00882171
-0.00888096
-0.00903588
-0.009257
-0.00951748
-0.00979416
-0.0100679
-0.0103229
-0.0105465
-0.0107359
-0.0108951
-0.000736537
-0.00110509
-0.00135577
-0.00154508
-0.00172048
-0.00189812
-0.00209231
-0.00231689
-0.00258364
-0.00290268
-0.00328314
-0.00373349
-0.00426171
-0.00487533
-0.00558136
-0.00638608
-0.00729482
-0.00831161
-0.00943893
-0.0106774
-0.0120255
-0.0134796
-0.0150333
-0.016678
-0.0184025
-0.0201935
-0.0220353
-0.0239106
-0.0258008
-0.027686
-0.0295459
-0.0313602
-0.0331088
-0.0347725
-0.036333
-0.0377735
-0.0390786
-0.0402347
-0.0412298
-0.0420536
-0.0426975
-0.0431546
-0.0434192
-0.0434873
-0.0433563
-0.0430246
-0.0424924
-0.041761
-0.0408335
-0.0397147
-0.0384116
-0.0369337
-0.0352933
-0.0335063
-0.0315924
-0.0295755
-0.0274841
-0.0253509
-0.023213
-0.0211107
-0.019086
-0.0171811
-0.0154358
-0.0138851
-0.0125561
-0.0114663
-0.0106219
-0.0100173
-0.00963563
-0.00945119
-0.00943167
-0.00954148
-0.00974481
-0.0100081
-0.0103017
-0.010601
-0.0108855
-0.0111388
-0.0113573
-0.0115461
-0.00125861
-0.00163525
-0.00189244
-0.00208905
-0.00227466
-0.00246668
-0.00268045
-0.00293075
-0.00323014
-0.00358951
-0.0040187
-0.0045269
-0.00512276
-0.00581445
-0.00660953
-0.00751471
-0.00853552
-0.00967607
-0.0109386
-0.0123233
-0.0138278
-0.0154475
-0.0171747
-0.0189991
-0.020908
-0.0228859
-0.0249153
-0.0269768
-0.0290498
-0.0311127
-0.0331437
-0.035121
-0.0370235
-0.0388312
-0.0405254
-0.0420891
-0.043507
-0.0447655
-0.0458531
-0.0467599
-0.0474777
-0.0479998
-0.048321
-0.0484374
-0.0483459
-0.048045
-0.0475339
-0.0468129
-0.0458838
-0.0447496
-0.0434151
-0.0418872
-0.0401756
-0.0382931
-0.0362565
-0.034087
-0.0318111
-0.0294603
-0.027072
-0.0246885
-0.0223559
-0.0201227
-0.0180373
-0.0161448
-0.0144837
-0.0130829
-0.0119589
-0.0111141
-0.010537
-0.0102033
-0.010079
-0.0101239
-0.0102955
-0.0105529
-0.0108588
-0.011182
-0.0114963
-0.011781
-0.0120312
-0.0122527
-0.0018604
-0.00224216
-0.00250446
-0.00270805
-0.00290424
-0.00311163
-0.00334654
-0.00362459
-0.00395913
-0.00436175
-0.00484301
-0.00541279
-0.00608042
-0.00685467
-0.00774359
-0.00875422
-0.00989228
-0.0111617
-0.0125645
-0.0141001
-0.0157653
-0.0175541
-0.0194573
-0.0214631
-0.0235564
-0.0257199
-0.0279339
-0.030177
-0.0324267
-0.0346596
-0.0368523
-0.0389822
-0.0410272
-0.0429668
-0.0447822
-0.0464564
-0.0479745
-0.0493236
-0.0504927
-0.0514726
-0.0522557
-0.0528362
-0.0532091
-0.053371
-0.0533191
-0.0530515
-0.0525671
-0.0518655
-0.0509471
-0.0498135
-0.0484673
-0.046913
-0.0451573
-0.0432096
-0.0410832
-0.0387956
-0.03637
-0.0338352
-0.0312271
-0.0285877
-0.0259656
-0.0234137
-0.0209877
-0.0187426
-0.0167288
-0.0149881
-0.0135495
-0.0124269
-0.0116167
-0.011099
-0.0108403
-0.0107966
-0.0109194
-0.0111594
-0.0114713
-0.0118157
-0.0121596
-0.012477
-0.0127614
-0.0130191
-0.00254265
-0.00292641
-0.00319231
-0.00340248
-0.00360958
-0.00383325
-0.00409071
-0.00439839
-0.00477032
-0.00521879
-0.00575506
-0.00638966
-0.00713256
-0.00799308
-0.00897971
-0.0100997
-0.0113589
-0.012761
-0.0143073
-0.0159966
-0.0178245
-0.0197835
-0.0218627
-0.0240482
-0.026323
-0.0286676
-0.03106
-0.0334768
-0.0358936
-0.0382854
-0.0406278
-0.0428968
-0.0450701
-0.047127
-0.0490488
-0.0508189
-0.0524231
-0.0538491
-0.055087
-0.0561286
-0.0569671
-0.0575976
-0.0580158
-0.0582189
-0.0582044
-0.0579707
-0.0575164
-0.0568406
-0.0559429
-0.0548235
-0.0534832
-0.0519242
-0.0501503
-0.0481674
-0.0459849
-0.0436162
-0.04108
-0.0384011
-0.0356118
-0.0327523
-0.0298708
-0.0270228
-0.024269
-0.0216731
-0.0192969
-0.0171959
-0.0154139
-0.0139783
-0.0128975
-0.0121593
-0.0117332
-0.0115739
-0.0116272
-0.0118359
-0.0121452
-0.0125067
-0.0128793
-0.0132305
-0.0135514
-0.0138491
-0.00330483
-0.00368736
-0.00395528
-0.00417158
-0.0043898
-0.00463053
-0.00491179
-0.00525071
-0.00566197
-0.00615851
-0.00675222
-0.00745426
-0.00827518
-0.00922481
-0.010312
-0.0115441
-0.0129268
-0.0144635
-0.0161549
-0.0179986
-0.0199889
-0.0221167
-0.0243691
-0.0267302
-0.0291807
-0.0316987
-0.0342603
-0.03684
-0.0394116
-0.0419488
-0.044426
-0.0468187
-0.0491043
-0.0512623
-0.0532742
-0.0551244
-0.0567994
-0.0582882
-0.0595816
-0.0606727
-0.0615559
-0.0622271
-0.0626833
-0.0629219
-0.0629413
-0.0627401
-0.062317
-0.061671
-0.0608011
-0.0597064
-0.0583865
-0.0568413
-0.0550721
-0.0530817
-0.0508754
-0.0484621
-0.0458555
-0.0430755
-0.0401494
-0.0371132
-0.0340126
-0.0309027
-0.0278471
-0.0249157
-0.0221804
-0.0197099
-0.0175637
-0.0157858
-0.0143993
-0.0134039
-0.0127756
-0.0124705
-0.0124306
-0.0125909
-0.0128869
-0.0132599
-0.0136593
-0.0140447
-0.0144044
-0.0147459
-0.00414515
-0.00452312
-0.00479143
-0.00501332
-0.00524276
-0.00550116
-0.00580724
-0.00617871
-0.00663086
-0.00717719
-0.00783019
-0.00860159
-0.00950246
-0.010543
-0.0117324
-0.0130779
-0.0145851
-0.0162568
-0.0180928
-0.0200895
-0.0222397
-0.0245324
-0.0269527
-0.0294824
-0.0321
-0.0347814
-0.0375005
-0.0402298
-0.0429418
-0.0456088
-0.0482046
-0.0507043
-0.0530852
-0.0553273
-0.0574129
-0.0593272
-0.0610578
-0.0625949
-0.0639306
-0.0650593
-0.0659765
-0.0666791
-0.0671652
-0.067433
-0.0674817
-0.0673102
-0.0669176
-0.066303
-0.0654651
-0.0644024
-0.0631133
-0.0615965
-0.0598509
-0.0578764
-0.0556749
-0.0532508
-0.0506126
-0.0477745
-0.0447578
-0.0415929
-0.0383205
-0.0349928
-0.0316731
-0.0284347
-0.0253569
-0.0225207
-0.020001
-0.0178595
-0.0161375
-0.01485
-0.0139842
-0.013501
-0.0133412
-0.0134332
-0.0137027
-0.0140797
-0.0145029
-0.0149226
-0.0153231
-0.0157121
-0.0050605
-0.00543059
-0.00569758
-0.00592442
-0.00616504
-0.0064415
-0.00677313
-0.00717813
-0.00767228
-0.0082696
-0.00898309
-0.009825
-0.0108068
-0.0119391
-0.013231
-0.01469
-0.016321
-0.0181262
-0.0201044
-0.0222506
-0.0245559
-0.0270074
-0.0295879
-0.0322771
-0.0350511
-0.0378835
-0.0407463
-0.0436105
-0.046447
-0.0492273
-0.0519245
-0.0545139
-0.0569731
-0.0592826
-0.0614257
-0.0633887
-0.0651604
-0.0667324
-0.0680981
-0.069253
-0.070194
-0.0709192
-0.0714274
-0.071718
-0.0717906
-0.0716451
-0.0712808
-0.0706971
-0.0698926
-0.0688659
-0.0676146
-0.0661363
-0.0644283
-0.0624884
-0.0603151
-0.0579091
-0.0552739
-0.0524179
-0.0493557
-0.046111
-0.0427178
-0.0392228
-0.0356861
-0.0321807
-0.0287906
-0.0256059
-0.0227158
-0.0202003
-0.0181205
-0.0165107
-0.0153734
-0.0146789
-0.0143702
-0.0143714
-0.0145988
-0.0149707
-0.0154134
-0.0158665
-0.0163095
-0.0167497
-0.0060465
-0.0064054
-0.00666933
-0.00690037
-0.00715195
-0.00744664
-0.00780424
-0.00824334
-0.00878011
-0.00942902
-0.0102035
-0.0111162
-0.012179
-0.0134026
-0.0147963
-0.0163672
-0.0181198
-0.0200554
-0.0221715
-0.0244618
-0.0269154
-0.0295174
-0.0322485
-0.035086
-0.0380037
-0.0409734
-0.043965
-0.0469481
-0.0498924
-0.052769
-0.0555507
-0.058213
-0.0607339
-0.063095
-0.0652806
-0.0672781
-0.0690779
-0.0706726
-0.0720573
-0.0732285
-0.0741844
-0.074924
-0.0754472
-0.0757542
-0.0758455
-0.0757215
-0.0753822
-0.0748272
-0.0740557
-0.073066
-0.0718558
-0.070422
-0.0687609
-0.0668686
-0.0647414
-0.0623765
-0.0597731
-0.056934
-0.0538675
-0.0505897
-0.0471268
-0.043518
-0.0398171
-0.036094
-0.032433
-0.0289302
-0.0256864
-0.0227986
-0.0203488
-0.0183932
-0.016954
-0.0160158
-0.0155281
-0.0154138
-0.0155811
-0.0159366
-0.0163931
-0.016878
-0.0173648
-0.0178596
-0.00709755
-0.00744202
-0.00770112
-0.0079355
-0.00819761
-0.00851042
-0.00889406
-0.0093674
-0.0099469
-0.0106474
-0.0114826
-0.0124656
-0.0136083
-0.0149218
-0.0164151
-0.018095
-0.0199654
-0.0220265
-0.0242746
-0.0267017
-0.0292951
-0.0320377
-0.0349081
-0.0378812
-0.0409288
-0.0440208
-0.0471255
-0.0502112
-0.0532469
-0.0562031
-0.059053
-0.0617721