/*--------------------------------*- C++ -*----------------------------------*\
  =========                 |
  \\      /  F ield         | OpenFOAM: The Open Source CFD Toolbox
   \\    /   O peration     | Website:  https://openfoam.org
    \\  /    A nd           | Version:  7
     \\/     M anipulation  |
\*---------------------------------------------------------------------------*/
FoamFile
{
    version     2.0;
    format      ascii;
    class       volScalarField;
    location    "3.15";
    object      p;
}
// * * * * * * * * * * * * * * * * * * * * * * * * * * * * * * * * * * * * * //

dimensions      [0 2 -2 0 0 0 0];

internalField   nonuniform List<scalar> 
6400
(
2.02048e-07
1.53685e-05
5.1923e-06
-3.38847e-05
-9.96722e-05
-0.000188842
-0.000297715
-0.000422921
-0.000561716
-0.00071202
-0.000872326
-0.00104157
-0.00121898
-0.00140396
-0.00159595
-0.00179437
-0.00199845
-0.00220729
-0.00241967
-0.00263415
-0.00284894
-0.00306195
-0.00327077
-0.0034727
-0.00366475
-0.0038437
-0.00400614
-0.00414855
-0.00426735
-0.00435904
-0.00442029
-0.00444806
-0.00443973
-0.00439326
-0.0043073
-0.00418133
-0.00401581
-0.00381224
-0.00357326
-0.0033027
-0.00300559
-0.00268789
-0.002357
-0.00202094
-0.00168849
-0.00136891
-0.00107162
-0.000805909
-0.000580597
-0.000403673
-0.00028199
-0.000220958
-0.000224307
-0.000293903
-0.000429645
-0.000629458
-0.000889362
-0.00120364
-0.00156519
-0.00196547
-0.00239539
-0.00284528
-0.00330543
-0.00376639
-0.00421931
-0.00465617
-0.00506994
-0.00545466
-0.0058055
-0.00611863
-0.00639115
-0.00662092
-0.00680643
-0.0069467
-0.00704137
-0.00709108
-0.00709849
-0.00707024
-0.00701927
-0.00696462
-1.47901e-05
1.7184e-07
-1.17892e-05
-4.93138e-05
-0.000109255
-0.000189454
-0.000287426
-0.000400681
-0.000527063
-0.000664841
-0.000812685
-0.000969591
-0.00113479
-0.00130765
-0.00148757
-0.00167393
-0.001866
-0.00206288
-0.00226348
-0.00246645
-0.00267015
-0.00287271
-0.00307191
-0.00326532
-0.0034502
-0.00362361
-0.00378242
-0.00392337
-0.00404317
-0.00413854
-0.00420637
-0.00424378
-0.00424826
-0.00421783
-0.00415113
-0.00404756
-0.00390742
-0.00373199
-0.00352358
-0.00328565
-0.00302275
-0.00274039
-0.00244526
-0.00214482
-0.0018472
-0.00156099
-0.00129495
-0.00105771
-0.000857489
-0.000701716
-0.000596766
-0.000547665
-0.00055786
-0.000629056
-0.000761118
-0.000952072
-0.00119817
-0.00149407
-0.00183305
-0.00220735
-0.00260838
-0.00302726
-0.00345502
-0.003883
-0.00430309
-0.00470797
-0.00509126
-0.00544759
-0.00577263
-0.00606304
-0.00631634
-0.00653086
-0.00670559
-0.00684014
-0.0069348
-0.00699078
-0.00701089
-0.00700038
-0.00696457
-0.00690986
-4.08638e-06
1.17942e-05
-9.12898e-07
-3.78827e-05
-9.48704e-05
-0.000169978
-0.000261205
-0.000366537
-0.000484214
-0.000612809
-0.000751202
-0.00089853
-0.00105412
-0.00121741
-0.00138787
-0.00156493
-0.00174793
-0.00193608
-0.00212837
-0.00232359
-0.00252026
-0.00271667
-0.00291079
-0.00310035
-0.00328282
-0.00345543
-0.00361522
-0.00375908
-0.00388382
-0.00398628
-0.00406336
-0.00411219
-0.00413024
-0.00411542
-0.00406623
-0.00398189
-0.00386247
-0.00370898
-0.00352344
-0.00330896
-0.00306967
-0.002811
-0.00253907
-0.00226104
-0.0019847
-0.00171833
-0.00147041
-0.00124932
-0.00106303
-0.000918803
-0.000822853
-0.00078009
-0.000793881
-0.000865891
-0.000995983
-0.00118222
-0.00142092
-0.00170688
-0.00203352
-0.00239326
-0.00277787
-0.00317865
-0.00358704
-0.00399473
-0.00439403
-0.00477805
-0.00514085
-0.00547753
-0.00578419
-0.00605794
-0.00629676
-0.00649941
-0.00666529
-0.0067944
-0.00688723
-0.00694485
-0.00696953
-0.00696465
-0.00692891
-0.00685907
3.71614e-05
4.95994e-05
3.41434e-05
-4.06104e-06
-6.04486e-05
-0.00013311
-0.000220282
-0.000320228
-0.000431516
-0.000553013
-0.000683845
-0.000823352
-0.00097103
-0.00112646
-0.00128925
-0.00145896
-0.00163507
-0.00181691
-0.00200363
-0.00219415
-0.00238717
-0.00258111
-0.00277412
-0.00296407
-0.00314855
-0.0033249
-0.00349025
-0.00364152
-0.00377553
-0.00388906
-0.00397894
-0.00404216
-0.00407599
-0.00407815
-0.00404687
-0.00398111
-0.00388064
-0.00374616
-0.00357942
-0.00338323
-0.00316145
-0.00291923
-0.00266256
-0.0023984
-0.00213445
-0.00187888
-0.00164015
-0.00142664
-0.00124635
-0.00110661
-0.0010137
-0.000972612
-0.000986787
-0.00105795
-0.00118602
-0.00136907
-0.00160345
-0.0018839
-0.00220386
-0.00255572
-0.0029312
-0.0033217
-0.00371865
-0.00411389
-0.00449989
-0.00486999
-0.00521854
-0.00554098
-0.00583381
-0.00609456
-0.00632166
-0.00651428
-0.00667221
-0.00679569
-0.00688525
-0.00694164
-0.00696633
-0.00696109
-0.00691963
-0.00683218
0.000107954
0.000111147
8.97021e-05
4.81343e-05
-9.56298e-06
-8.15494e-05
-0.000166261
-0.000262291
-0.000368534
-0.000484169
-0.000608611
-0.000741452
-0.000882414
-0.00103128
-0.00118785
-0.00135186
-0.00152298
-0.00170071
-0.00188437
-0.00207308
-0.00226568
-0.00246077
-0.00265663
-0.00285125
-0.00304231
-0.00322718
-0.003403
-0.00356663
-0.0037148
-0.00384413
-0.00395124
-0.00403287
-0.00408601
-0.00410803
-0.00409685
-0.00405108
-0.00397012
-0.00385435
-0.00370521
-0.00352527
-0.00331813
-0.00308877
-0.00284306
-0.0025879
-0.00233098
-0.00208055
-0.00184515
-0.00163333
-0.00145328
-0.00131253
-0.0012176
-0.0011737
-0.00118446
-0.00125179
-0.00137571
-0.00155439
-0.00178417
-0.00205977
-0.00237454
-0.00272074
-0.00308996
-0.00347347
-0.00386262
-0.00424917
-0.0046256
-0.00498534
-0.00532292
-0.00563401
-0.00591546
-0.00616517
-0.00638198
-0.00656548
-0.00671582
-0.00683349
-0.00691907
-0.00697305
-0.00699631
-0.00698942
-0.00694289
-0.00684299
0.000205641
0.000194537
0.000163977
0.000116941
5.61388e-05
-1.67939e-05
-0.000100541
-0.000194071
-0.000296648
-0.000407802
-0.000527267
-0.000654938
-0.000790806
-0.000934911
-0.00108729
-0.00124791
-0.00141666
-0.00159325
-0.00177723
-0.00196788
-0.00216424
-0.00236505
-0.00256871
-0.00277328
-0.00297646
-0.00317561
-0.00336775
-0.00354961
-0.0037177
-0.00386836
-0.0039979
-0.00410269
-0.00417932
-0.00422476
-0.0042365
-0.00421273
-0.00415248
-0.00405575
-0.00392369
-0.00375866
-0.00356397
-0.00334451
-0.00310608
-0.00285558
-0.00260079
-0.00235011
-0.00211229
-0.00189615
-0.0017102
-0.00156231
-0.00145936
-0.00140693
-0.00140899
-0.00146774
-0.00158345
-0.00175443
-0.00197712
-0.00224623
-0.00255502
-0.00289561
-0.00325937
-0.00363737
-0.00402071
-0.00440096
-0.00477048
-0.00512264
-0.00545198
-0.00575433
-0.00602674
-0.00626743
-0.00647559
-0.00665117
-0.00679469
-0.0069069
-0.0069885
-0.00703987
-0.00706151
-0.00705329
-0.00700408
-0.00689829
0.000326422
0.000296793
0.000254524
0.000200148
0.000134581
5.92445e-05
-2.49137e-05
-0.00011732
-0.000217669
-0.00032588
-0.000442055
-0.000566424
-0.000699295
-0.000841005
-0.000991869
-0.00115214
-0.00132194
-0.00150125
-0.00168983
-0.00188718
-0.00209251
-0.00230467
-0.00252216
-0.00274305
-0.002965
-0.00318524
-0.0034006
-0.00360756
-0.00380228
-0.00398073
-0.00413876
-0.00427229
-0.00437742
-0.00445061
-0.00448888
-0.00448995
-0.00445241
-0.00437587
-0.00426121
-0.00411073
-0.00392691
-0.00371504
-0.00348079
-0.00323109
-0.00297382
-0.00271761
-0.00247148
-0.00224462
-0.00204595
-0.00188381
-0.0017656
-0.00169739
-0.00168366
-0.00172706
-0.00182826
-0.00198587
-0.00219653
-0.00245505
-0.00275467
-0.00308737
-0.00344433
-0.00381631
-0.00419413
-0.00456905
-0.00493315
-0.00527961
-0.00560285
-0.00589869
-0.00616429
-0.00639803
-0.00659939
-0.00676863
-0.00690658
-0.00701427
-0.00709256
-0.0071419
-0.00716263
-0.00715431
-0.00710535
-0.00699987
0.000465704
0.000414195
0.000357933
0.000294611
0.000222988
0.000144026
5.82315e-05
-3.43624e-05
-0.00013395
-0.0002409
-0.000355719
-0.000479016
-0.000611451
-0.000753696
-0.000906386
-0.00107007
-0.00124518
-0.00143196
-0.00163039
-0.00184021
-0.00206076
-0.002291
-0.00252946
-0.00277415
-0.0030226
-0.00327184
-0.00351838
-0.00375833
-0.00398741
-0.00420107
-0.00439465
-0.00456348
-0.0047031
-0.00480939
-0.00487884
-0.00490863
-0.0048969
-0.00484285
-0.00474713
-0.00461225
-0.0044382
-0.00423242
-0.00400002
-0.00374783
-0.00348388
-0.00321698
-0.00295651
-0.00271207
-0.00249311
-0.00230854
-0.00216639
-0.00207342
-0.00203479
-0.00205381
-0.00213172
-0.00226767
-0.00245866
-0.00269977
-0.00298432
-0.00330428
-0.00365063
-0.00401388
-0.00438448
-0.00475332
-0.00511208
-0.0054536
-0.00577205
-0.00606308
-0.00632378
-0.00655259
-0.00674914
-0.0069139
-0.00704796
-0.00715261
-0.00722893
-0.0072775
-0.00729872
-0.00729207
-0.00724639
-0.00714655
0.000618419
0.000542252
0.000470185
0.0003967
0.00031796
0.00023435
0.000145813
5.1742e-05
-4.86348e-05
-0.000156191
-0.000271889
-0.000396751
-0.000531826
-0.000678151
-0.000836711
-0.00100839
-0.00119394
-0.00139387
-0.00160843
-0.00183754
-0.00208067
-0.00233685
-0.00260454
-0.00288165
-0.00316547
-0.0034527
-0.00373947
-0.00402138
-0.0042936
-0.00455098
-0.00478821
-0.005
-0.0051812
-0.0053271
-0.00543353
-0.00549714
-0.00551554
-0.00548749
-0.00541286
-0.0052925
-0.00513132
-0.0049317
-0.00469968
-0.00444234
-0.00416782
-0.00388517
-0.00360412
-0.00333471
-0.00308699
-0.00287057
-0.00269426
-0.00256567
-0.00249086
-0.00247401
-0.00251723
-0.00262041
-0.0027812
-0.00299514
-0.00325586
-0.00355544
-0.0038848
-0.00423421
-0.00459378
-0.00495393
-0.0053059
-0.00564203
-0.00595609
-0.00624337
-0.00650074
-0.00672653
-0.00692034
-0.00708275
-0.00721499
-0.00731857
-0.00739478
-0.0074444
-0.00746796
-0.00746504
-0.00742546
-0.00733553
0.000778939
0.000675851
0.000586595
0.000502033
0.00041537
0.000326259
0.000233951
0.000137084
3.42338e-05
-7.60383e-05
-0.000195194
-0.000324708
-0.000466047
-0.000620644
-0.000789862
-0.000974944
-0.00117696
-0.00139672
-0.00163472
-0.00189102
-0.00216521
-0.00245629
-0.00276262
-0.00308188
-0.00341105
-0.00374639
-0.00408352
-0.00441745
-0.00474269
-0.0050534
-0.00534355
-0.00560711
-0.00583824
-0.00603148
-0.00618203
-0.00628587
-0.00634005
-0.00634281
-0.0062935
-0.00619267
-0.0060441
-0.0058508
-0.00561841
-0.00535385
-0.00506529
-0.00476196
-0.00445391
-0.00415166
-0.0038659
-0.00360703
-0.0033848
-0.00320785
-0.00308336
-0.00301668
-0.00301104
-0.00306742
-0.0031844
-0.00335831
-0.00358334
-0.00385192
-0.00415506
-0.00448292
-0.00482528
-0.00517214
-0.00551415
-0.00584307
-0.00615207
-0.00643593
-0.00669107
-0.00691552
-0.00710866
-0.00727102
-0.00740385
-0.00750872
-0.00758712
-0.00764002
-0.00766807
-0.00767103
-0.00764003
-0.00756322
0.000941075
0.000809243
0.000701778
0.000605505
0.00051032
0.000414977
0.000317892
0.000216836
0.00010965
-5.72552e-06
-0.000131296
-0.000269022
-0.00042082
-0.000588544
-0.000773955
-0.000978672
-0.0012041
-0.00145133
-0.00172107
-0.00201353
-0.00232831
-0.00266434
-0.00301978
-0.00339202
-0.00377758
-0.00417222
-0.00457093
-0.00496802
-0.00535727
-0.00573207
-0.00608559
-0.00641098
-0.00670163
-0.00695131
-0.00715446
-0.00730635
-0.00740335
-0.00744302
-0.0074242
-0.007347
-0.00721429
-0.00702903
-0.00679652
-0.00652346
-0.00621796
-0.00588935
-0.00554795
-0.00520475
-0.00487109
-0.00455824
-0.004277
-0.00403725
-0.00384752
-0.00371461
-0.00364324
-0.0036358
-0.00369222
-0.00380996
-0.00398415
-0.00420784
-0.00447244
-0.00476813
-0.00508452
-0.00541114
-0.00573805
-0.0060563
-0.00635831
-0.00663812
-0.0068915
-0.00711593
-0.00731037
-0.00747503
-0.00761102
-0.00771985
-0.00780306
-0.00786172
-0.0078966
-0.0079076
-0.0078873
-0.00782588
0.00109791
0.000936011
0.000809654
0.000701279
0.000597132
0.000494892
0.000391993
0.000285231
0.000171629
4.84523e-05
-8.68882e-05
-0.000236873
-0.000403895
-0.000590254
-0.000798128
-0.00102952
-0.00128615
-0.00156941
-0.00188016
-0.0022187
-0.0025846
-0.00297663
-0.00339266
-0.00382967
-0.00428368
-0.0047498
-0.00522231
-0.00569475
-0.00616008
-0.00661083
-0.00703931
-0.00743781
-0.00779884
-0.00811533
-0.0083809
-0.00859001
-0.00873824
-0.00882238
-0.00884061
-0.00879258
-0.00867996
-0.00850563
-0.00827436
-0.00799252
-0.00766802
-0.00731018
-0.00692949
-0.00653737
-0.00614579
-0.00576693
-0.00541273
-0.00509447
-0.00482226
-0.00460464
-0.00444816
-0.00435706
-0.00433302
-0.00437513
-0.00447987
-0.00464136
-0.00485168
-0.00510138
-0.00538003
-0.00567681
-0.00598118
-0.00628337
-0.00657489
-0.00684883
-0.00710007
-0.00732522
-0.00752259
-0.00769182
-0.00783361
-0.00794923
-0.00804006
-0.00810717
-0.00815132
-0.00817246
-0.00816465
-0.0081201
0.00124201
0.0010491
0.000903474
0.000782803
0.000669362
0.00055957
0.00044974
0.000335585
0.000213237
7.92321e-05
-6.96404e-05
-0.000236413
-0.000423979
-0.000635106
-0.000872399
-0.00113824
-0.00143468
-0.00176334
-0.00212522
-0.00252063
-0.00294905
-0.003409
-0.00389797
-0.00441244
-0.0049478
-0.00549845
-0.00605788
-0.00661878
-0.00717321
-0.00771276
-0.00822883
-0.00871275
-0.00915611
-0.00955092
-0.00988987
-0.0101665
-0.0103756
-0.010513
-0.010576
-0.0105637
-0.0104768
-0.0103175
-0.0100901
-0.00980032
-0.00945586
-0.00906586
-0.00864085
-0.00819255
-0.0077335
-0.00727676
-0.00683547
-0.00642239
-0.00604941
-0.00572707
-0.00546412
-0.00526706
-0.00513983
-0.00508364
-0.00509687
-0.00517522
-0.00531194
-0.0054983
-0.00572412
-0.00597843
-0.00625011
-0.00652854
-0.00680418
-0.00706894
-0.00731649
-0.00754234
-0.00774376
-0.00791954
-0.00806966
-0.00819488
-0.00829622
-0.00837453
-0.00843042
-0.00846376
-0.00846995
-0.00844315
0.00136526
0.00114088
0.000975871
0.000842861
0.000719853
0.000601819
0.000483817
0.000360379
0.000226683
7.84867e-05
-8.80789e-05
-0.000276626
-0.000490575
-0.000733173
-0.00100746
-0.0013162
-0.00166173
-0.00204587
-0.00246972
-0.00293353
-0.00343658
-0.00397707
-0.00455202
-0.00515731
-0.00578762
-0.00643656
-0.00709673
-0.0077599
-0.00841714
-0.00905909
-0.0096761
-0.0102585
-0.0107969
-0.0112823
-0.0117064
-0.0120617
-0.0123421
-0.0125423
-0.012659
-0.0126901
-0.0126353
-0.0124964
-0.0122765
-0.0119811
-0.0116172
-0.0111935
-0.0107205
-0.0102101
-0.00967529
-0.00912984
-0.00858804
-0.00806418
-0.00757203
-0.00712436
-0.0067324
-0.00640533
-0.00614986
-0.00596989
-0.00586635
-0.0058371
-0.00587718
-0.00597911
-0.00613338
-0.00632915
-0.00655489
-0.00679916
-0.00705123
-0.00730161
-0.00754251
-0.00776793
-0.00797376
-0.00815757
-0.00831828
-0.00845578
-0.00857047
-0.00866274
-0.0087328
-0.00878031
-0.0088018
-0.00879322
0.00145905
0.00120318
0.00101895
0.000873672
0.000740834
0.000613789
0.000486216
0.000351386
0.000203461
3.73815e-05
-0.000151413
-0.000367142
-0.000613771
-0.000895039
-0.00121442
-0.00157504
-0.0019795
-0.00242977
-0.00292697
-0.00347123
-0.00406155
-0.0046957
-0.00537015
-0.00608008
-0.00681938
-0.00758077
-0.00835589
-0.00913551
-0.00990966
-0.0106679
-0.0113995
-0.0120938
-0.0127402
-0.0133287
-0.0138499
-0.0142954
-0.0146577
-0.0149309
-0.0151103
-0.0151931
-0.0151779
-0.0150655
-0.0148583
-0.0145608
-0.0141793
-0.0137223
-0.0131997
-0.0126234
-0.0120065
-0.0113635
-0.0107096
-0.0100605
-0.00943188
-0.00883886
-0.00829534
-0.00781354
-0.00740341
-0.00707216
-0.00682387
-0.00665939
-0.00657622
-0.00656882
-0.00662897
-0.00674639
-0.00690945
-0.007106
-0.00732407
-0.00755263
-0.00778207
-0.00800454
-0.00821413
-0.00840672
-0.00857977
-0.00873196
-0.00886266
-0.00897153
-0.00905815
-0.00912169
-0.00915971
-0.00916957
0.00151434
0.00122745
0.0010244
0.000867009
0.000724055
0.000587122
0.000448405
0.000299843
0.00013454
-5.34181e-05
-0.000269311
-0.000517986
-0.000803969
-0.0011315
-0.00150448
-0.00192636
-0.00239998
-0.0029274
-0.00350968
-0.00414676
-0.00483726
-0.00557843
-0.00636609
-0.00719462
-0.00805704
-0.00894508
-0.00984936
-0.0107595
-0.0116646
-0.0125528
-0.0134124
-0.0142316
-0.0149986
-0.0157023
-0.0163322
-0.0168787
-0.0173334
-0.0176893
-0.0179406
-0.0180835
-0.0181155
-0.0180365
-0.017848
-0.0175533
-0.0171582
-0.0166701
-0.0160986
-0.0154552
-0.0147528
-0.0140063
-0.0132317
-0.0124458
-0.0116661
-0.0109097
-0.0101936
-0.00953316
-0.00894192
-0.00843097
-0.00800829
-0.00767844
-0.00744229
-0.00729707
-0.00723664
-0.00725195
-0.00733176
-0.00746346
-0.00763396
-0.00783052
-0.00804147
-0.00825672
-0.00846806
-0.00866922
-0.00885572
-0.00902452
-0.00917361
-0.00930154
-0.00940699
-0.00948844
-0.00954404
-0.0095726
0.00152189
0.00120492
0.000983682
0.00081437
0.000660964
0.000513139
0.000361524
0.000196673
1.05968e-05
-0.000203496
-0.000451626
-0.000739288
-0.00107158
-0.00145323
-0.00188856
-0.00238133
-0.00293454
-0.00355029
-0.0042295
-0.00497182
-0.00577539
-0.00663687
-0.00755129
-0.00851217
-0.00951152
-0.01054
-0.0115871
-0.0126414
-0.0136904
-0.0147215
-0.0157216
-0.0166775
-0.0175765
-0.0184062
-0.0191551
-0.0198125
-0.0203689
-0.0208162
-0.0211478
-0.0213587
-0.0214455
-0.0214071
-0.0212437
-0.0209581
-0.0205546
-0.02004
-0.019423
-0.0187143
-0.0179266
-0.0170747
-0.0161748
-0.0152447
-0.0143031
-0.0133693
-0.0124627
-0.0116022
-0.0108052
-0.0100868
-0.00945982
-0.00893316
-0.00851205
-0.00819751
-0.00798645
-0.00787196
-0.00784389
-0.00788972
-0.00799546
-0.00814669
-0.00832946
-0.00853105
-0.00874048
-0.00894876
-0.0091489
-0.00933563
-0.00950508
-0.00965428
-0.00978069
-0.00988181
-0.00995618
-0.0100038
0.00147238
0.00112677
0.000888171
0.000707176
0.000542913
0.000383061
0.000216619
3.27267e-05
-0.000177718
-0.000422401
-0.000708101
-0.00104097
-0.00142667
-0.00187044
-0.00237697
-0.00295027
-0.00359349
-0.00430866
-0.0050965
-0.00595623
-0.00688545
-0.00788007
-0.00893427
-0.0100406
-0.0111898
-0.0123716
-0.0135742
-0.0147846
-0.0159895
-0.0171746
-0.0183258
-0.0194285
-0.0204689
-0.0214335
-0.0223097
-0.0230857
-0.0237512
-0.0242971
-0.0247159
-0.0250016
-0.02515
-0.0251588
-0.0250275
-0.0247575
-0.0243525
-0.0238178
-0.0231612
-0.0223925
-0.0215237
-0.0205689
-0.0195442
-0.0184676
-0.0173588
-0.0162388
-0.0151291
-0.0140517
-0.0130278
-0.0120772
-0.0112174
-0.0104629
-0.00982396
-0.00930661
-0.00891195
-0.00863636
-0.00847181
-0.00840664
-0.0084265
-0.00851547
-0.00865726
-0.00883618
-0.00903799
-0.00925039
-0.00946323
-0.00966842
-0.00985967
-0.0100321
-0.0101814
-0.0103039
-0.0103983
-0.0104657
0.00135668
0.000984332
0.000729415
0.000536987
0.000361394
0.000188254
4.90556e-06
-0.000200935
-0.000439489
-0.000719345
-0.00104804
-0.00143239
-0.00187864
-0.00239247
-0.00297894
-0.00364228
-0.00438567
-0.00521101
-0.0061187
-0.00710746
-0.0081742
-0.00931397
-0.01052
-0.0117836
-0.0130945
-0.0144409
-0.0158096
-0.0171866
-0.0185569
-0.019905
-0.0212153
-0.0224723
-0.0236608
-0.0247663
-0.0257752
-0.026675
-0.0274544
-0.0281036
-0.0286142
-0.0289797
-0.0291951
-0.029257
-0.0291641
-0.0289169
-0.0285178
-0.0279711
-0.0272833
-0.026463
-0.0255211
-0.0244706
-0.0233269
-0.0221078
-0.0208332
-0.0195248
-0.0182061
-0.0169013
-0.0156354
-0.0144326
-0.0133156
-0.0123045
-0.011416
-0.0106619
-0.0100489
-0.00957809
-0.00924487
-0.00903954
-0.00894825
-0.00895409
-0.00903854
-0.00918278
-0.00936883
-0.00958046
-0.00980369
-0.0100269
-0.0102408
-0.0104379
-0.0106119
-0.0107576
-0.0108735
-0.0109615
0.0011661
0.000769376
0.000499349
0.000295749
0.000108286
-7.95067e-05
-0.000281956
-0.000512755
-0.000783233
-0.00110288
-0.00147999
-0.00192204
-0.00243581
-0.00302746
-0.00370232
-0.00446479
-0.005318
-0.00626363
-0.00730164
-0.00843012
-0.00964517
-0.0109409
-0.0123092
-0.0137404
-0.0152227
-0.0167429
-0.0182864
-0.0198376
-0.0213801
-0.022897
-0.0243715
-0.0257868
-0.0271267
-0.0283758
-0.0295196
-0.030545
-0.03144
-0.0321942
-0.0327989
-0.0332469
-0.0335325
-0.0336519
-0.0336029
-0.0333851
-0.0329998
-0.0324501
-0.0317413
-0.0308804
-0.0298769
-0.0287424
-0.027491
-0.0261396
-0.0247074
-0.0232163
-0.0216904
-0.0201561
-0.0186409
-0.0171731
-0.0157804
-0.0144892
-0.0133225
-0.0122994
-0.0114334
-0.0107317
-0.0101949
-0.00981662
-0.00958485
-0.00948254
-0.00948941
-0.00958351
-0.00974281
-0.00994657
-0.0101762
-0.0104159
-0.0106524
-0.0108753
-0.0110756
-0.0112461
-0.011385
-0.0114952
0.000892625
0.000474309
0.000190549
-2.39562e-05
-0.000223884
-0.000427768
-0.000651579
-0.000910382
-0.00121659
-0.00158058
-0.00201139
-0.00251714
-0.00310514
-0.00378194
-0.00455315
-0.0054232
-0.00639513
-0.00747024
-0.00864796
-0.0099256
-0.0112983
-0.012759
-0.0142984
-0.0159053
-0.0175664
-0.0192669
-0.0209908
-0.0227208
-0.024439
-0.0261272
-0.0277672
-0.0293412
-0.0308321
-0.0322237
-0.0335009
-0.03465
-0.0356589
-0.0365169
-0.0372148
-0.0377452
-0.0381022
-0.0382815
-0.0382803
-0.0380975
-0.0377334
-0.03719
-0.0364712
-0.0355826
-0.0345318
-0.0333287
-0.0319857
-0.0305179
-0.0289433
-0.0272828
-0.0255605
-0.0238034
-0.0220409
-0.0203045
-0.0186263
-0.0170384
-0.015571
-0.0142508
-0.0130993
-0.0121315
-0.0113547
-0.010768
-0.0103628
-0.0101233
-0.0100283
-0.010053
-0.0101713
-0.0103575
-0.0105877
-0.0108408
-0.0110991
-0.0113483
-0.0115762
-0.0117732
-0.011937
-0.0120712
0.000529156
9.24343e-05
-0.000203536
-0.000428668
-0.000641686
-0.000863135
-0.00111058
-0.00140039
-0.00174604
-0.00215875
-0.00264829
-0.00322339
-0.00389185
-0.00466058
-0.00553536
-0.00652061
-0.0076191
-0.0088317
-0.0101571
-0.0115918
-0.0131296
-0.0147623
-0.0164792
-0.0182673
-0.0201118
-0.0219963
-0.0239028
-0.0258127
-0.0277064
-0.0295645
-0.0313676
-0.0330968
-0.0347344
-0.0362636
-0.037669
-0.0389366
-0.0400543
-0.0410113
-0.0417986
-0.0424087
-0.0428357
-0.043075
-0.0431237
-0.0429799
-0.0426434
-0.0421151
-0.0413975
-0.0404947
-0.0394125
-0.0381588
-0.0367439
-0.0351805
-0.0334845
-0.0316753
-0.0297755
-0.0278117
-0.025814
-0.0238156
-0.0218523
-0.0199611
-0.0181788
-0.0165401
-0.0150754
-0.0138088
-0.0127564
-0.0119246
-0.0113103
-0.0109009
-0.0106755
-0.0106077
-0.0106673
-0.0108232
-0.0110457
-0.0113076
-0.0115858
-0.0118612
-0.0121178
-0.0123428
-0.0125335
-0.012694
6.97664e-05
-0.00038183
-0.000688352
-0.000923808
-0.00115054
-0.00139102
-0.0016643
-0.00198803
-0.00237664
-0.00284216
-0.00339508
-0.00404468
-0.00479922
-0.00566588
-0.00665053
-0.00775748
-0.00898914
-0.0103458
-0.0118252
-0.0134228
-0.0151312
-0.0169406
-0.0188386
-0.0208107
-0.0228402
-0.0249087
-0.0269968
-0.029084
-0.0311494
-0.0331722
-0.035132
-0.0370093
-0.0387855
-0.0404438
-0.0419686
-0.0433462
-0.0445644
-0.0456129
-0.046483
-0.0471676
-0.0476607
-0.0479578
-0.0480564
-0.0479541
-0.04765
-0.0471443
-0.0464383
-0.0455345
-0.0444372
-0.043152
-0.0416867
-0.0400516
-0.03826
-0.0363283
-0.0342772
-0.0321314
-0.0299202
-0.0276773
-0.0254404
-0.0232503
-0.0211495
-0.0191803
-0.0173823
-0.0157897
-0.0144289
-0.013316
-0.0124557
-0.0118408
-0.0114532
-0.0112657
-0.0112449
-0.0113547
-0.0115586
-0.0118229
-0.0121178
-0.0124185
-0.0127044
-0.0129591
-0.0131788
-0.0133684
-0.000490084
-0.000952731
-0.00126803
-0.00151346
-0.00175451
-0.0020154
-0.00231662
-0.00267695
-0.00311174
-0.0036338
-0.00425423
-0.00498285
-0.00582829
-0.00679795
-0.00789769
-0.00913157
-0.0105015
-0.012007
-0.0136448
-0.0154091
-0.0172911
-0.0192793
-0.0213594
-0.0235151
-0.0257278
-0.0279773
-0.0302423
-0.0325006
-0.0347302
-0.036909
-0.0390157
-0.0410303
-0.0429341
-0.04471
-0.0463427
-0.0478188
-0.0491268
-0.0502568
-0.0512008
-0.0519521
-0.0525053
-0.0528555
-0.0530029
-0.0529425
-0.0526737
-0.0521963
-0.0515106
-0.0506179
-0.0495208
-0.0482228
-0.0467293
-0.0450478
-0.0431884
-0.0411646
-0.0389936
-0.0366973
-0.0343029
-0.0318428
-0.0293548
-0.026882
-0.0244711
-0.0221707
-0.0200293
-0.0180916
-0.0163954
-0.0149685
-0.013826
-0.012969
-0.0123842
-0.0120463
-0.0119199
-0.011964
-0.0121358
-0.0123937
-0.0127006
-0.0130249
-0.0133403
-0.013626
-0.0138769
-0.0140988
-0.00115337
-0.00162301
-0.00194519
-0.00220021
-0.00245608
-0.00273866
-0.00306973
-0.00346907
-0.0039529
-0.0045347
-0.00522615
-0.00603754
-0.00697781
-0.00805444
-0.0092732
-0.0106378
-0.0121494
-0.0138067
-0.0156053
-0.0175378
-0.0195939
-0.0217601
-0.0240204
-0.0263563
-0.0287473
-0.0311713
-0.0336052
-0.0360254
-0.0384084
-0.0407313
-0.0429722
-0.0451108
-0.0471282
-0.0490078
-0.0507346
-0.052296
-0.0536811
-0.054881
-0.0558883
-0.0566972
-0.0573034
-0.0577041
-0.0578937
-0.0578731
-0.0576406
-0.0571951
-0.0565364
-0.0556647
-0.0545811
-0.0532874
-0.0517866
-0.0500833
-0.0481846
-0.0461001
-0.0438436
-0.041433
-0.038892
-0.0362501
-0.0335437
-0.0308156
-0.028115
-0.0254952
-0.0230122
-0.0207206
-0.0186705
-0.0169026
-0.0154449
-0.0143095
-0.0134915
-0.0129695
-0.0127087
-0.0126643
-0.012787
-0.0130275
-0.0133399
-0.0136849
-0.0140295
-0.0143474
-0.0146319
-0.0148894
-0.00192137
-0.00239376
-0.00272085
-0.00298497
-0.00325606
-0.00356144
-0.00392398
-0.00436441
-0.00489965
-0.00554381
-0.00630909
-0.00720612
-0.00824407
-0.00943045
-0.0107708
-0.0122682
-0.0139232
-0.0157333
-0.0176928
-0.0197927
-0.0220207
-0.0243616
-0.0267973
-0.029307
-0.0318684
-0.0344574
-0.0370493
-0.0396191
-0.0421422
-0.044595
-0.0469552
-0.0492023
-0.0513179
-0.0532857
-0.0550916
-0.0567238
-0.0581724
-0.0594295
-0.0604887
-0.0613452
-0.0619953
-0.0624365
-0.062666
-0.0626828
-0.0624857
-0.0620738
-0.0614465
-0.0606033
-0.0595441
-0.058269
-0.0567791
-0.0550765
-0.053165
-0.0510508
-0.0487434
-0.0462564
-0.0436088
-0.0408263
-0.0379415
-0.0349954
-0.0320369
-0.0291219
-0.0263117
-0.0236699
-0.021258
-0.0191307
-0.0173305
-0.0158835
-0.0147963
-0.0140552
-0.0136282
-0.0134691
-0.0135229
-0.0137321
-0.0140418
-0.0144034
-0.0147761
-0.0151271
-0.0154474
-0.015744
-0.00279354
-0.00326432
-0.00359426
-0.00386691
-0.00415348
-0.00448251
-0.00487786
-0.00536101
-0.00594951
-0.00665798
-0.00749904
-0.00848363
-0.00962101
-0.0109186
-0.0123815
-0.0140123
-0.0158105
-0.0177723
-0.0198906
-0.0221546
-0.0245501
-0.0270597
-0.0296632
-0.0323378
-0.0350591
-0.0378012
-0.0405378
-0.0432428
-0.0458907
-0.0484573
-0.0509203
-0.0532595
-0.0554568
-0.0574968
-0.0593663
-0.0610546
-0.0625529
-0.0638544
-0.064954
-0.0658477
-0.0665329
-0.0670076
-0.0672704
-0.0673202
-0.0671563
-0.0667778
-0.0661841
-0.0653741
-0.0643468
-0.0631015
-0.0616374
-0.0599544
-0.0580535
-0.0559375
-0.0536118
-0.0510853
-0.0483721
-0.0454924
-0.0424742
-0.0393543
-0.036179
-0.0330041
-0.0298939
-0.0269184
-0.0241493
-0.0216548
-0.0194933
-0.017707
-0.0163172
-0.0153218
-0.0146953
-0.0143924
-0.0143543
-0.0145158
-0.0148122
-0.0151849
-0.0155837
-0.0159682
-0.0163264
-0.0166658
-0.00376749
-0.00423226
-0.00456291
-0.0048434
-0.0051455
-0.00549878
-0.00592789
-0.00645492
-0.00709791
-0.0078719
-0.00878985
-0.00986286
-0.0111002
-0.0125091
-0.0140942
-0.0158571
-0.0177964
-0.0199069
-0.0221798
-0.0246023
-0.0271584
-0.0298283
-0.0325898
-0.0354181
-0.0382866
-0.0411678
-0.0440342
-0.0468585
-0.0496147
-0.0522783
-0.0548271
-0.0572414
-0.059504
-0.0616003
-0.0635183
-0.0652484
-0.0667831
-0.0681169
-0.0692456
-0.0701666
-0.0708781
-0.0713789
-0.0716685
-0.0717464
-0.0716122
-0.0712654
-0.0707053
-0.0699307
-0.0689403
-0.0677323
-0.0663048
-0.0646561
-0.0627848
-0.0606906
-0.0583752
-0.0558431
-0.0531029
-0.0501692
-0.047064
-0.0438182
-0.0404736
-0.0370832
-0.0337111
-0.0304309
-0.0273223
-0.0244654
-0.0219342
-0.0197888
-0.0180682
-0.0167854
-0.0159255
-0.0154479
-0.0152923
-0.0153869
-0.0156572
-0.0160339
-0.0164557
-0.0168735
-0.0172716
-0.0176573
-0.00483896
-0.00529336
-0.00562253
-0.00591002
-0.0062275
-0.00660529
-0.0070687
-0.00764022
-0.00833829
-0.00917825
-0.0101732
-0.0113345
-0.0126712
-0.0141901
-0.0158952
-0.0177875
-0.0198641
-0.0221182
-0.0245394
-0.027113
-0.0298207
-0.0326407
-0.0355484
-0.0385172
-0.0415186
-0.0445237
-0.0475038
-0.0504307
-0.0532781
-0.0560217
-0.0586396
-0.0611127
-0.0634248
-0.0655623
-0.0675147
-0.0692734
-0.0708324
-0.0721872
-0.073335
-0.0742741
-0.0750037
-0.0755235
-0.0758337
-0.0759345
-0.0758259
-0.0755078
-0.0749798
-0.0742407
-0.0732891
-0.0721227
-0.0707389
-0.0691347
-0.067307
-0.0652532
-0.0629715
-0.0604624
-0.0577296
-0.0547818
-0.0516343
-0.0483114
-0.0448482
-0.0412924
-0.0377052
-0.0341603
-0.0307421
-0.0275403
-0.0246434
-0.0221293
-0.0200569
-0.0184579
-0.0173322
-0.0166481
-0.0163473
-0.0163534
-0.0165828
-0.0169543
-0.0173952
-0.0178455
-0.0182848
-0.0187204
-0.00600192
-0.00644165
-0.00676711
-0.00706064
-0.00739307
-0.00779531
-0.00829308
-0.00890916
-0.00966221
-0.0105678
-0.0116391
-0.0128873
-0.0143214
-0.0159477
-0.0177695
-0.0197866
-0.0219948
-0.024386
-0.0269475
-0.0296628
-0.0325113
-0.0354694
-0.0385102
-0.0416051
-0.0447241
-0.0478371
-0.0509143
-0.0539271
-0.0568491
-0.0596562
-0.0623271
-0.0648436
-0.0671906
-0.0693559
-0.0713299
-0.0731057
-0.0746782
-0.0760444
-0.0772024
-0.0781517
-0.0788923
-0.0794247
-0.0797497
-0.0798683
-0.0797809
-0.079488
-0.0789893
-0.0782841
-0.0773709
-0.0762475
-0.0749109
-0.0733572
-0.0715824
-0.0695818
-0.0673514
-0.0648881
-0.0621913
-0.0592639
-0.0561147
-0.0527608
-0.0492294
-0.0455609
-0.0418107
-0.0380495
-0.0343626
-0.0308459
-0.0275996
-0.0247189
-0.0222833
-0.0203457
-0.0189252
-0.0180038
-0.017529
-0.017423
-0.0175943
-0.01795
-0.0184043
-0.0188855
-0.0193673
-0.019856
-0.00724864
-0.00766957
-0.00798908
-0.00828749
-0.0086342
-0.00906043
-0.00959216
-0.0102523
-0.0110595
-0.0120295
-0.0131754
-0.0145083
-0.0160367
-0.0177665
-0.0197001
-0.0218361
-0.024169
-0.0266887
-0.0293811
-0.0322272
-0.0352047
-0.0382876
-0.0414472
-0.0446532
-0.0478742
-0.0510788
-0.0542368
-0.0573192
-0.0602998
-0.063155
-0.0658642
-0.0684104
-0.0707796
-0.0729607
-0.0749456
-0.0767285
-0.0783058
-0.0796753
-0.0808364
-0.0817892
-0.0825347
-0.0830742
-0.083409
-0.0835407
-0.0834702
-0.0831985
-0.0827258
-0.0820516
-0.0811748
-0.0800933
-0.0788042
-0.0773034
-0.0755862
-0.0736468
-0.0714795
-0.0690784
-0.0664393
-0.0635603
-0.0604441
-0.0571002
-0.0535477
-0.0498183
-0.0459593
-0.0420353
-0.0381287
-0.0343378
-0.0307709
-0.027538
-0.0247385
-0.0224486
-0.0207099
-0.0195226
-0.0188453
-0.0186023
-0.0186964
-0.0190238
-0.0194847
-0.0199942
-0.0205191
-0.0210639
-0.00856988
-0.00896806
-0.00927937
-0.00958135
-0.00994138
-0.0103908
-0.0109556
-0.0116586
-0.0125186
-0.013551
-0.0147689
-0.0161831
-0.0178017
-0.0196299
-0.0216692
-0.0239169
-0.026366
-0.0290048
-0.0318172
-0.0347823
-0.0378757
-0.0410695
-0.0443332
-0.0476349
-0.0509421
-0.0542227
-0.0574458
-0.0605826
-0.0636071
-0.0664964
-0.0692311
-0.0717949
-0.0741753
-0.0763624
-0.0783493
-0.0801315
-0.0817064
-0.083073
-0.0842314
-0.0851826
-0.0859284
-0.0864704
-0.0868108
-0.0869515
-0.0868939
-0.0866395
-0.0861889
-0.0855421
-0.0846985
-0.0836562
-0.0824127
-0.0809641
-0.0793054
-0.0774307
-0.0753328
-0.0730043
-0.0704381