/*--------------------------------*- C++ -*----------------------------------*\
  =========                 |
  \\      /  F ield         | OpenFOAM: The Open Source CFD Toolbox
   \\    /   O peration     | Website:  https://openfoam.org
    \\  /    A nd           | Version:  7
     \\/     M anipulation  |
\*---------------------------------------------------------------------------*/
FoamFile
{
    version     2.0;
    format      ascii;
    class       surfaceScalarField;
    location    "1.025";
    object      phi;
}
// * * * * * * * * * * * * * * * * * * * * * * * * * * * * * * * * * * * * * //

dimensions      [0 3 -1 0 0 0 0];

internalField   nonuniform List<scalar> 
12640
(
2.76015e-10
-2.75964e-10
6.59892e-10
-3.83844e-10
8.67994e-10
-2.08112e-10
7.84608e-10
8.33979e-11
3.82111e-10
4.02471e-10
-3.23789e-10
7.05912e-10
-1.29799e-09
9.74197e-10
-2.49916e-09
1.20119e-09
-3.88708e-09
1.38791e-09
-5.42625e-09
1.53916e-09
-7.08759e-09
1.66134e-09
-8.84881e-09
1.76122e-09
-1.0694e-08
1.84523e-09
-1.2613e-08
1.919e-09
-1.46001e-08
1.98706e-09
-1.66529e-08
2.05282e-09
-1.87715e-08
2.11862e-09
-2.09571e-08
2.18564e-09
-2.32112e-08
2.25409e-09
-2.55345e-08
2.32329e-09
-2.79263e-08
2.3918e-09
-3.03838e-08
2.45752e-09
-3.29016e-08
2.51779e-09
-3.54712e-08
2.56958e-09
-3.80807e-08
2.60948e-09
-4.07146e-08
2.63389e-09
-4.33536e-08
2.63905e-09
-4.59748e-08
2.62117e-09
-4.85513e-08
2.57652e-09
-5.10529e-08
2.50153e-09
-5.34457e-08
2.39288e-09
-5.56934e-08
2.24765e-09
-5.77569e-08
2.06346e-09
-5.95954e-08
1.83854e-09
-6.11673e-08
1.57192e-09
-6.24308e-08
1.2635e-09
-6.33451e-08
9.1427e-10
-6.38715e-08
5.26365e-10
-6.39746e-08
1.03156e-10
-6.36234e-08
-3.51187e-10
-6.2793e-08
-8.30402e-10
-6.14656e-08
-1.32743e-09
-5.96316e-08
-1.83404e-09
-5.72906e-08
-2.34094e-09
-5.44526e-08
-2.83806e-09
-5.11378e-08
-3.31473e-09
-4.73778e-08
-3.76004e-09
-4.32146e-08
-4.16318e-09
-3.87008e-08
-4.5138e-09
-3.38984e-08
-4.80243e-09
-2.88776e-08
-5.0208e-09
-2.37153e-08
-5.16226e-09
-1.84933e-08
-5.22201e-09
-1.32959e-08
-5.19742e-09
-8.20775e-09
-5.08814e-09
-3.31161e-09
-4.89614e-09
1.31409e-09
-4.62571e-09
5.59742e-09
-4.28333e-09
9.47465e-09
-3.87722e-09
1.2892e-08
-3.41735e-09
1.58068e-08
-2.91476e-09
1.8188e-08
-2.38124e-09
2.00168e-08
-1.82884e-09
2.12863e-08
-1.26951e-09
2.2001e-08
-7.14655e-10
2.21759e-08
-1.74923e-10
2.1836e-08
3.39974e-10
2.10147e-08
8.21253e-10
1.97539e-08
1.26086e-09
1.81028e-08
1.65108e-09
1.61189e-08
1.9839e-09
1.38688e-08
2.2501e-09
1.14308e-08
2.43799e-09
8.8989e-09
2.53191e-09
6.38847e-09
2.51044e-09
4.04325e-09
2.34522e-09
2.04088e-09
2.00237e-09
5.9311e-10
1.44777e-09
-8.40213e-11
6.77136e-10
-8.40217e-11
3.87841e-10
-6.63774e-10
7.24214e-10
-7.20277e-10
5.84877e-10
-6.87499e-11
-2.33358e-10
9.01627e-10
-1.80167e-09
1.9708e-09
-4.10549e-09
3.00969e-09
-7.08255e-09
3.95127e-09
-1.06498e-08
4.76845e-09
-1.47201e-08
5.4582e-09
-1.92121e-08
6.03115e-09
-2.40557e-08
6.50493e-09
-2.91944e-08
6.8999e-09
-3.45854e-08
7.2362e-09
-4.01984e-08
7.53199e-09
-4.60137e-08
7.8024e-09
-5.20199e-08
8.05901e-09
-5.82109e-08
8.30967e-09
-6.45839e-08
8.55855e-09
-7.11362e-08
8.8064e-09
-7.78637e-08
9.05086e-09
-8.47587e-08
9.2868e-09
-9.1808e-08
9.50676e-09
-9.89916e-08
9.70136e-09
-1.06282e-07
9.85968e-09
-1.13642e-07
9.96963e-09
-1.21026e-07
1.00183e-08
-1.2838e-07
9.9925e-09
-1.35637e-07
9.87879e-09
-1.42725e-07
9.66419e-09
-1.4956e-07
9.33641e-09
-1.56051e-07
8.8843e-09
-1.62102e-07
8.29828e-09
-1.67609e-07
7.57079e-09
-1.72468e-07
6.69671e-09
-1.7657e-07
5.67385e-09
-1.79809e-07
4.50331e-09
-1.82085e-07
3.1899e-09
-1.83301e-07
1.74253e-09
-1.83373e-07
1.74839e-10
-1.82226e-07
-1.49796e-09
-1.79804e-07
-3.2522e-09
-1.76069e-07
-5.0626e-09
-1.71003e-07
-6.89981e-09
-1.64613e-07
-8.73114e-09
-1.5693e-07
-1.05214e-08
-1.48011e-07
-1.22338e-08
-1.3794e-07
-1.3831e-08
-1.26827e-07
-1.52762e-08
-1.14806e-07
-1.65341e-08
-1.02036e-07
-1.75728e-08
-8.86923e-08
-1.83643e-08
-7.49685e-08
-1.8886e-08
-6.10689e-08
-1.91216e-08
-4.72044e-08
-1.90619e-08
-3.35875e-08
-1.87051e-08
-2.04263e-08
-1.80573e-08
-7.91987e-09
-1.71322e-08
3.74756e-09
-1.59508e-08
1.44108e-08
-1.45405e-08
2.39276e-08
-1.29342e-08
3.21819e-08
-1.11691e-08
3.90859e-08
-9.28522e-09
4.45813e-08
-7.32419e-09
4.86395e-08
-5.3277e-09
5.12612e-08
-3.33641e-09
5.24754e-08
-1.38905e-09
5.23373e-08
4.78076e-10
5.09272e-08
2.23128e-09
4.83493e-08
3.83878e-09
4.47306e-08
5.26975e-09
4.02221e-08
6.49243e-09
3.50005e-08
7.4717e-09
2.92725e-08
8.16607e-09
2.32799e-08
8.52451e-09
1.73064e-08
8.48388e-09
1.1682e-08
7.96964e-09
6.77935e-09
6.90507e-09
2.99243e-09
5.2347e-09
6.7632e-10
2.99325e-09
5.92292e-10
2.18797e-10
-8.8258e-10
6.21535e-11
-5.63636e-10
-8.93491e-10
8.86856e-10
-2.8647e-09
2.87287e-09
-5.92429e-09
5.03039e-09
-1.00501e-08
7.13557e-09
-1.51628e-08
9.06396e-09
-2.11543e-08
1.07599e-08
-2.79082e-08
1.22121e-08
-3.53135e-08
1.34364e-08
-4.32718e-08
1.44633e-08
-5.17019e-08
1.533e-08
-6.054e-08
1.60743e-08
-6.9739e-08
1.6731e-08
-7.92661e-08
1.73295e-08
-8.90995e-08
1.78924e-08
-9.9225e-08
1.84351e-08
-1.09632e-07
1.89658e-08
-1.20311e-07
1.94855e-08
-1.3125e-07
1.99893e-08
-1.42429e-07
2.04663e-08
-1.53824e-07
2.09011e-08
-1.65396e-07
2.12739e-08
-1.77099e-07
2.15621e-08
-1.8887e-07
2.17407e-08
-2.00634e-07
2.17829e-08
-2.12303e-07
2.16615e-08
-2.23773e-07
2.1349e-08
-2.34929e-07
2.08192e-08
-2.4564e-07
2.00474e-08
-2.55767e-07
1.90115e-08
-2.65162e-07
1.76932e-08
-2.73669e-07
1.60782e-08
-2.8113e-07
1.4158e-08
-2.87386e-07
1.19299e-08
-2.92282e-07
9.39844e-09
-2.95667e-07
6.57553e-09
-2.97406e-07
3.48148e-09
-2.97378e-07
1.47166e-10
-2.9548e-07
-3.39669e-09
-2.91634e-07
-7.09798e-09
-2.85791e-07
-1.09051e-08
-2.77934e-07
-1.47575e-08
-2.68077e-07
-1.85883e-08
-2.56272e-07
-2.23262e-08
-2.42608e-07
-2.58972e-08
-2.27213e-07
-2.92262e-08
-2.1025e-07
-3.22397e-08
-1.91916e-07
-3.48676e-08
-1.72443e-07
-3.7046e-08
-1.52088e-07
-3.87192e-08
-1.31132e-07
-3.98421e-08
-1.09872e-07
-4.03815e-08
-8.8616e-08
-4.03183e-08
-6.76732e-08
-3.96478e-08
-4.73496e-08
-3.83809e-08
-2.79388e-08
-3.6543e-08
-9.71509e-09
-3.41744e-08
7.07262e-09
-3.13282e-08
2.2207e-08
-2.80686e-08
3.5507e-08
-2.4469e-08
4.6831e-08
-2.06092e-08
5.60799e-08
-1.6573e-08
6.31975e-08
-1.24454e-08
6.81713e-08
-8.31017e-09
7.10309e-08
-4.24867e-09
7.18472e-08
-3.38159e-10
7.073e-08
3.34844e-09
6.78273e-08
6.7415e-09
6.33239e-08
9.77318e-09
5.74419e-08
1.23744e-08
5.04425e-08
1.44711e-08
4.26291e-08
1.59795e-08
3.4351e-08
1.68026e-08
2.60074e-08
1.68275e-08
1.80473e-08
1.59297e-08
1.09624e-08
1.399e-08
5.26576e-09
1.09313e-08
1.45568e-09
6.80332e-09
2.04798e-09
-9.53574e-11
-7.87195e-10
-1.01048e-09
3.51465e-10
-3.1001e-09
2.97648e-09
-6.53329e-09
6.30602e-09
-1.1353e-08
9.85009e-09
-1.75138e-08
1.32964e-08
-2.4915e-08
1.64652e-08
-3.34273e-08
1.92722e-08
-4.2913e-08
2.16979e-08
-5.32403e-08
2.37637e-08
-6.42916e-08
2.55146e-08
-7.59681e-08
2.70064e-08
-8.81909e-08
2.82971e-08
-1.009e-07
2.94402e-08
-1.14052e-07
3.04815e-08
-1.27616e-07
3.14561e-08
-1.41569e-07
3.2388e-08
-1.55892e-07
3.32893e-08
-1.70568e-07
3.41613e-08
-1.85573e-07
3.49947e-08
-2.00878e-07
3.57712e-08
-2.16442e-07
3.64646e-08
-2.3221e-07
3.70421e-08
-2.48113e-07
3.74658e-08
-2.64067e-07
3.7694e-08
-2.79967e-07
3.76827e-08
-2.95692e-07
3.73868e-08
-3.11105e-07
3.67616e-08
-3.2605e-07
3.57643e-08
-3.40358e-07
3.43555e-08
-3.53846e-07
3.25002e-08
-3.66323e-07
3.01698e-08
-3.77589e-07
2.73436e-08
-3.8744e-07
2.40097e-08
-3.95677e-07
2.01667e-08
-4.02103e-07
1.58247e-08
-4.06534e-07
1.10065e-08
-4.088e-07
5.74765e-09
-4.08757e-07
1.03413e-10
-4.06275e-07
-5.87781e-09
-4.01269e-07
-1.21049e-08
-3.93679e-07
-1.84946e-08
-3.8349e-07
-2.49469e-08
-3.70725e-07
-3.13531e-08
-3.55453e-07
-3.75975e-08
-3.3779e-07
-4.35605e-08
-3.17895e-07
-4.91215e-08
-2.95972e-07
-5.41623e-08
-2.72269e-07
-5.85707e-08
-2.47071e-07
-6.2244e-08
-2.20698e-07
-6.50925e-08
-1.93497e-07
-6.7043e-08
-1.65837e-07
-6.80412e-08
-1.38101e-07
-6.80546e-08
-1.10675e-07
-6.70735e-08
-8.39438e-08
-6.51121e-08
-5.82779e-08
-6.22089e-08
-3.40275e-08
-5.84248e-08
-1.15134e-08
-5.38424e-08
8.98036e-09
-4.85623e-08
2.72122e-08
-4.27008e-08
4.29884e-08
-3.63854e-08
5.61666e-08
-2.97513e-08
6.66584e-08
-2.29371e-08
7.44296e-08
-1.60814e-08
7.95006e-08
-9.31971e-09
8.19452e-08
-2.78273e-09
8.18889e-08
3.40476e-09
7.95074e-08
9.12298e-09
7.50255e-08
1.42551e-08
6.87167e-08
1.86833e-08
6.09033e-08
2.22844e-08
5.19588e-08
2.49241e-08
4.23089e-08
2.64525e-08
3.24334e-08
2.6703e-08
2.28653e-08
2.54979e-08
1.41865e-08
2.26689e-08
7.02087e-09
1.80969e-08
2.03431e-09
1.17899e-08
4.0823e-09
-4.76575e-10
-3.1064e-10
-2.3201e-09
2.19501e-09
-5.75954e-09
6.41591e-09
-1.0883e-08
1.14295e-08
-1.76775e-08
1.66445e-08
-2.60575e-08
2.16765e-08
-3.58929e-08
2.63006e-08
-4.70313e-08
3.04106e-08
-5.93162e-08
3.39827e-08
-7.25995e-08
3.7047e-08
-8.67496e-08
3.96648e-08
-1.01656e-07
4.19127e-08
-1.17229e-07
4.38703e-08
-1.33401e-07
4.56117e-08
-1.50119e-07
4.71998e-08
-1.67346e-07
4.8683e-08
-1.85052e-07
5.00938e-08
-2.03211e-07
5.14482e-08
-2.21795e-07
5.27461e-08
-2.40773e-07
5.39727e-08
-2.60102e-07
5.51002e-08
-2.79727e-07
5.6089e-08
-2.99575e-07
5.68906e-08
-3.19558e-07
5.74486e-08
-3.39566e-07
5.77018e-08
-3.59469e-07
5.75855e-08
-3.79116e-07
5.7034e-08
-3.98337e-07
5.59826e-08
-4.16942e-07
5.43697e-08
-4.34726e-07
5.2139e-08
-4.51468e-07
4.92418e-08
-4.66937e-07
4.56389e-08
-4.80896e-07
4.13027e-08
-4.93105e-07
3.62192e-08
-5.03329e-07
3.03899e-08
-5.11337e-07
2.38331e-08
-5.16916e-07
1.65853e-08
-5.1987e-07
8.70184e-09
-5.20029e-07
2.61941e-10
-5.17254e-07
-8.65262e-09
-5.11441e-07
-1.79174e-08
-5.02529e-07
-2.74072e-08
-4.90498e-07
-3.69775e-08
-4.7538e-07
-4.64716e-08
-4.57254e-07
-5.57235e-08
-4.36252e-07
-6.45619e-08
-4.12559e-07
-7.28145e-08
-3.86409e-07
-8.03125e-08
-3.58084e-07
-8.68955e-08
-3.27912e-07
-9.24163e-08
-2.96259e-07
-9.67458e-08
-2.63524e-07
-9.97777e-08
-2.30133e-07
-1.01432e-07
-1.9653e-07
-1.01658e-07
-1.63164e-07
-1.00439e-07
-1.30487e-07
-9.77898e-08
-9.89351e-08
-9.37603e-08
-6.89272e-08
-8.84327e-08
-4.08495e-08
-8.19201e-08
-1.50494e-08
-7.43624e-08
8.17278e-09
-6.5923e-08
2.85701e-08
-5.67827e-08
4.59541e-08
-4.71353e-08
6.01985e-08
-3.71814e-08
7.12407e-08
-2.71236e-08
7.9083e-08
-1.7162e-08
8.37918e-08
-7.49155e-09
8.54965e-08
1.70015e-09
8.43873e-08
1.02321e-08
8.07146e-08
1.79278e-08
7.47865e-08
2.46113e-08
6.69692e-08
3.01017e-08
5.76863e-08
3.4207e-08
4.74194e-08
3.67194e-08
3.6709e-08
3.74134e-08
2.61547e-08
3.60521e-08
1.64181e-08
3.24055e-08
8.23033e-09
2.62847e-08
2.41793e-09
1.76023e-08
6.50024e-09
-8.91492e-10
5.80855e-10
-3.76481e-09
5.06831e-09
-8.69961e-09
1.13508e-08
-1.56789e-08
1.84089e-08
-2.46136e-08
2.55792e-08
-3.53642e-08
3.24271e-08
-4.7762e-08
3.86984e-08
-6.16272e-08
4.42758e-08
-7.67837e-08
4.91392e-08
-9.3069e-08
5.33323e-08
-1.10341e-07
5.69367e-08
-1.28481e-07
6.00523e-08
-1.47393e-07
6.27823e-08
-1.67003e-07
6.5222e-08
-1.87256e-07
6.74525e-08
-2.08108e-07
6.95354e-08
-2.29525e-07
7.15112e-08
-2.51476e-07
7.33987e-08
-2.73925e-07
7.51952e-08
-2.96831e-07
7.68787e-08
-3.2014e-07
7.84091e-08
-3.43783e-07
7.97317e-08
-3.67671e-07
8.07787e-08
-3.91695e-07
8.14732e-08
-4.15725e-07
8.17311e-08
-4.39603e-07
8.14644e-08
-4.63154e-07
8.05843e-08
-4.86175e-07
7.90038e-08
-5.08446e-07
7.66407e-08
-5.29728e-07
7.34208e-08
-5.49766e-07
6.92803e-08
-5.68297e-07
6.41693e-08
-5.85048e-07
5.80538e-08
-5.99747e-07
5.09185e-08
-6.12126e-07
4.27694e-08
-6.21928e-07
3.36349e-08
-6.28911e-07
2.35678e-08
-6.32855e-07
1.26461e-08
-6.33568e-07
9.74806e-10
-6.30897e-07
-1.13233e-08
-6.24724e-07
-2.40907e-08
-6.14976e-07
-3.71548e-08
-6.01631e-07
-5.03222e-08
-5.84719e-07
-6.33838e-08
-5.64324e-07
-7.61186e-08
-5.40587e-07
-8.8299e-08
-5.13706e-07
-9.96957e-08
-4.83934e-07
-1.10084e-07
-4.51579e-07
-1.1925e-07
-4.16999e-07
-1.26997e-07
-3.80595e-07
-1.3315e-07
-3.42808e-07
-1.37564e-07
-3.04112e-07
-1.40128e-07
-2.65e-07
-1.4077e-07
-2.2598e-07
-1.39459e-07
-1.87562e-07
-1.36208e-07
-1.50247e-07
-1.31075e-07
-1.14516e-07
-1.24163e-07
-8.08219e-08
-1.15614e-07
-4.95744e-08
-1.0561e-07
-2.1135e-08
-9.43623e-08
4.19277e-09
-8.21105e-08
2.61698e-08
-6.91123e-08
4.46258e-08
-5.56374e-08
5.94629e-08
-4.19607e-08
7.06573e-08
-2.83564e-08
7.82591e-08
-1.50933e-08
8.23915e-08
-2.43227e-09
8.32492e-08
9.37437e-09
8.10962e-08
2.00808e-08
7.62636e-08
2.94439e-08
6.91481e-08
3.72173e-08
6.02106e-08
4.31445e-08
4.99763e-08
4.69537e-08
3.9035e-08
4.83547e-08
2.8045e-08
4.70422e-08
1.77409e-08
4.27096e-08
8.95198e-09
3.50736e-08
2.64068e-09
2.39136e-08
9.14091e-09
-1.32356e-09
1.9044e-09
-5.28815e-09
9.03291e-09
-1.18153e-08
1.78779e-08
-2.0768e-08
2.73616e-08
-3.19672e-08
3.67783e-08
-4.52078e-08
4.56677e-08
-6.02746e-08
5.37651e-08
-7.69556e-08
6.09569e-08
-9.5053e-08
6.72366e-08
-1.1439e-07
7.26693e-08
-1.34816e-07
7.73624e-08
-1.56206e-07
8.14425e-08
-1.78462e-07
8.50385e-08
-2.01509e-07
8.82686e-08
-2.25288e-07
9.12319e-08
-2.49756e-07
9.40034e-08
-2.74876e-07
9.66307e-08
-3.00611e-07
9.9134e-08
-3.26922e-07
1.01506e-07
-3.5376e-07
1.03716e-07
-3.81061e-07
1.0571e-07
-4.08742e-07
1.07413e-07
-4.367e-07
1.08737e-07
-4.64809e-07
1.09582e-07
-4.92916e-07
1.09838e-07
-5.20842e-07
1.0939e-07
-5.48384e-07
1.08126e-07
-5.75313e-07
1.05933e-07
-6.0138e-07
1.02708e-07
-6.26315e-07
9.83555e-08
-6.49832e-07
9.27979e-08
-6.71637e-07
8.59736e-08
-6.91425e-07
7.78423e-08
-7.08895e-07
6.83884e-08
-7.23748e-07
5.76229e-08
-7.35699e-07
4.55858e-08
-7.44479e-07
3.23479e-08
-7.49845e-07
1.80116e-08
-7.51581e-07
2.71137e-09
-7.49514e-07
-1.33905e-08
-7.43508e-07
-3.0097e-08
-7.33476e-07
-4.71869e-08
-7.19383e-07
-6.44149e-08
-7.01251e-07
-8.1516e-08
-6.79159e-07
-9.82105e-08
-6.53248e-07
-1.1421e-07
-6.2372e-07
-1.29224e-07
-5.90837e-07
-1.42967e-07
-5.54923e-07
-1.55165e-07
-5.16354e-07
-1.65565e-07
-4.75561e-07
-1.73943e-07
-4.3302e-07
-1.80106e-07
-3.89242e-07
-1.83906e-07
-3.4477e-07
-1.85242e-07
-3.00165e-07
-1.84064e-07
-2.55994e-07
-1.80379e-07
-2.12822e-07
-1.74248e-07
-1.71196e-07
-1.65789e-07
-1.31635e-07
-1.55175e-07
-9.46179e-08
-1.42627e-07
-6.05719e-08
-1.28408e-07
-2.98629e-08
-1.1282e-07
-2.78767e-09
-9.61875e-08
2.04327e-08
-7.88578e-08
3.96572e-08
-6.11853e-08
5.48281e-08
-4.35273e-08
6.59709e-08
-2.62362e-08
7.31948e-08
-9.65615e-09
7.669e-08
5.87918e-09
7.67257e-08
2.00452e-08
7.36471e-08
3.25225e-08
6.7873e-08
4.29913e-08
5.98937e-08
5.11237e-08
5.02706e-08
5.65769e-08
3.96372e-08
5.89881e-08
2.87051e-08
5.79743e-08
1.82758e-08
5.31389e-08
9.2637e-09
4.40857e-08
2.7366e-09
3.04407e-08
1.18775e-08
-1.76513e-09
3.66954e-09
-6.85953e-09
1.41273e-08
-1.50437e-08
2.60621e-08
-2.60523e-08
3.83702e-08
-3.96069e-08
5.0333e-08
-5.54287e-08
6.14894e-08
-7.32492e-08
7.15856e-08
-9.282e-08
8.05277e-08
-1.13919e-07
8.8336e-08
-1.36356e-07
9.51062e-08
-1.59972e-07
1.00978e-07
-1.84639e-07
1.06109e-07
-2.10258e-07
1.10658e-07
-2.36756e-07
1.14766e-07
-2.64077e-07
1.18552e-07
-2.92176e-07
1.22103e-07
-3.21019e-07
1.25474e-07
-3.50568e-07
1.28683e-07
-3.8078e-07
1.31719e-07
-4.11601e-07
1.34537e-07
-4.42957e-07
1.37066e-07
-4.74758e-07
1.39213e-07
-5.06885e-07
1.40865e-07
-5.39195e-07
1.41893e-07
-5.71518e-07
1.4216e-07
-6.03653e-07
1.41525e-07
-6.35372e-07
1.39846e-07
-6.66424e-07
1.36984e-07
-6.96529e-07
1.32813e-07
-7.2539e-07
1.27217e-07
-7.52693e-07
1.20101e-07
-7.78112e-07
1.11392e-07
-8.01314e-07
1.01044e-07
-8.21966e-07
8.90408e-08
-8.39741e-07
7.53981e-08
-8.54324e-07
6.01684e-08
-8.65417e-07
4.3441e-08
-8.72749e-07
2.53433e-08
-8.76079e-07
6.04124e-09
-8.75205e-07
-1.42641e-08
-8.69969e-07
-3.53333e-08
-8.6026e-07
-5.68953e-08
-8.46025e-07
-7.86507e-08
-8.27265e-07
-1.00276e-07
-8.04046e-07
-1.21429e-07
-7.76498e-07
-1.41758e-07
-7.44817e-07
-1.60905e-07
-7.09265e-07
-1.78518e-07
-6.70171e-07
-1.94259e-07
-6.27925e-07
-2.07811e-07
-5.82979e-07
-2.18889e-07
-5.35835e-07
-2.2725e-07
-4.87043e-07
-2.32697e-07
-4.37192e-07
-2.35094e-07
-3.86893e-07
-2.34363e-07
-3.36776e-07
-2.30496e-07
-2.87471e-07
-2.23552e-07
-2.39597e-07
-2.13664e-07
-1.93746e-07
-2.01026e-07
-1.50472e-07
-1.85901e-07
-1.10276e-07
-1.68604e-07
-7.35968e-08
-1.49499e-07
-4.07964e-08
-1.28988e-07
-1.21565e-08
-1.07498e-07
1.21305e-08
-8.54724e-08
3.19642e-08
-6.33609e-08
4.73377e-08
-4.16098e-08
5.83384e-08
-2.06568e-08
6.5145e-08
-9.27412e-10
6.80253e-08
1.71648e-08
6.73329e-08
3.3215e-08
6.3503e-08
4.68212e-08
5.7051e-08
5.75758e-08
4.85704e-08
6.50575e-08
3.87354e-08
6.8823e-08
2.83073e-08
6.84024e-08
1.81476e-08
6.32986e-08
9.2416e-09
5.29917e-08
2.73488e-09
3.69474e-08
1.46124e-08
-2.21281e-09
5.88236e-09
-8.46215e-09
2.03766e-08
-1.83467e-08
3.59467e-08
-3.14681e-08
5.14915e-08
-4.74429e-08
6.63078e-08
-6.59127e-08
7.99592e-08
-8.65512e-08
9.22242e-08
-1.0907e-07
1.03047e-07
-1.33223e-07
1.12488e-07
-1.58803e-07
1.20686e-07
-1.85645e-07
1.2782e-07
-2.1362e-07
1.34085e-07
-2.42633e-07
1.3967e-07
-2.72612e-07
1.44745e-07
-3.03506e-07
1.49447e-07
-3.35278e-07
1.53875e-07
-3.67894e-07
1.5809e-07
-4.01319e-07
1.62108e-07
-4.35509e-07
1.65909e-07
-4.70407e-07
1.69434e-07
-5.05934e-07
1.72593e-07
-5.4199e-07
1.75269e-07
-5.78445e-07
1.7732e-07
-6.15143e-07
1.78591e-07
-6.51895e-07
1.78912e-07
-6.88482e-07
1.78112e-07
-7.24654e-07
1.76018e-07
-7.60133e-07
1.72464e-07
-7.94618e-07
1.67297e-07
-8.27783e-07
1.60381e-07
-8.59284e-07
1.51603e-07
-8.88768e-07
1.40876e-07
-9.15871e-07
1.28147e-07
-9.40229e-07
1.13399e-07
-9.61483e-07
9.66522e-08
-9.79286e-07
7.79711e-08
-9.93307e-07
5.74628e-08
-1.00324e-06
3.52797e-08
-1.00882e-06
1.16188e-08
-1.00981e-06
-1.32799e-08
-1.006e-06
-3.91343e-08
-9.97277e-07
-6.56225e-08
-9.83539e-07
-9.23895e-08
-9.64763e-07
-1.19051e-07
-9.40992e-07
-1.45201e-07
-9.12333e-07
-1.70417e-07
-8.78966e-07
-1.94272e-07
-8.41144e-07
-2.1634e-07
-7.99192e-07
-2.36211e-07
-7.53507e-07
-2.53497e-07
-7.04552e-07
-2.67844e-07
-6.52857e-07
-2.78945e-07
-5.99005e-07
-2.86549e-07
-5.43628e-07
-2.90471e-07
-4.87395e-07
-2.90596e-07
-4.30997e-07
-2.86893e-07
-3.75137e-07
-2.79412e-07
-3.20512e-07
-2.68289e-07
-2.67797e-07
-2.53741e-07
-2.17633e-07
-2.36065e-07
-1.70605e-07
-2.15632e-07
-1.27234e-07
-1.9287e-07
-8.7961e-08
-1.68261e-07
-5.31388e-08
-1.4232e-07
-2.30223e-08
-1.15589e-07
2.23604e-09
-8.86192e-08
2.25885e-08
-6.19623e-08
3.80927e-08
-3.6161e-08
4.89096e-08
-1.17444e-08
5.53006e-08
1.07738e-08
5.76228e-08
3.08928e-08
5.63253e-08
4.81187e-08
5.19457e-08
6.19555e-08
4.51084e-08
7.18948e-08
3.65266e-08
7.74048e-08
2.70081e-08
7.79209e-08
1.74684e-08
7.28383e-08
8.95116e-09
6.15089e-08
2.65856e-09
4.324e-08
1.7271e-08
-2.66513e-09
8.54748e-09
-1.00863e-08
2.77978e-08
-2.17e-08
4.75604e-08
-3.69723e-08
6.67638e-08
-5.54114e-08
8.47469e-08
-7.65756e-08
1.01123e-07
-1.00078e-07
1.15727e-07
-1.25589e-07
1.28558e-07
-1.52835e-07
1.39734e-07
-1.81596e-07
1.49447e-07
-2.11699e-07
1.57924e-07
-2.43018e-07
1.65404e-07
-2.7546e-07
1.72113e-07
-3.08963e-07
1.78248e-07
-3.43482e-07
1.83966e-07
-3.78988e-07
1.89381e-07
-4.15452e-07
1.94554e-07
-4.52845e-07
1.99501e-07
-4.91126e-07
2.04189e-07
-5.30235e-07
2.08543e-07
-5.70092e-07
2.1245e-07
-6.10589e-07
2.15766e-07
-6.51588e-07
2.18319e-07
-6.92919e-07
2.19922e-07
-7.34378e-07
2.20372e-07
-7.75729e-07
2.19463e-07
-8.16702e-07
2.1699e-07
-8.56996e-07
2.12758e-07
-8.96283e-07
2.06585e-07
-9.34213e-07
1.98311e-07
-9.70415e-07
1.87804e-07
-1.0045e-06
1.74963e-07
-1.03608e-06
1.59726e-07
-1.06475e-06
1.42072e-07
-1.09013e-06
1.22026e-07
-1.11182e-06
9.96627e-08
-1.12946e-06
7.51049e-08
-1.14271e-06
4.85287e-08
-1.15125e-06
2.01616e-08
-1.15482e-06
-9.71853e-09
-1.15316e-06
-4.07882e-08
-1.14611e-06
-7.26732e-08
-1.13354e-06
-1.04963e-07
-1.11538e-06
-1.3721e-07
-1.09164e-06
-1.68941e-07
-1.06239e-06
-1.99661e-07
-1.0278e-06
-2.28866e-07
-9.88088e-07
-2.56053e-07
-9.43571e-07
-2.80728e-07
-8.94644e-07
-3.02424e-07
-8.4178e-07
-3.20708e-07
-7.85525e-07
-3.35199e-07
-7.26497e-07
-3.45578e-07
-6.65371e-07
-3.51597e-07
-6.02871e-07
-3.53096e-07
-5.39759e-07
-3.50006e-07
-4.76814e-07
-3.42357e-07
-4.14822e-07
-3.30281e-07
-3.54553e-07
-3.1401e-07
-2.96742e-07
-2.93876e-07
-2.42076e-07
-2.70298e-07
-1.91173e-07
-2.43774e-07
-1.44566e-07
-2.14868e-07
-1.02692e-07
-1.84194e-07
-6.58826e-08
-1.52399e-07
-3.4353e-08
-1.20149e-07
-8.20256e-09
-8.81127e-08
1.25886e-08
-5.69521e-08
2.8157e-08
-2.73128e-08
3.87524e-08
1.78419e-10
4.47323e-08
2.49129e-08
4.65576e-08
4.62934e-08
4.47873e-08
6.37258e-08
4.00764e-08
7.66057e-08
3.31763e-08
8.43048e-08
2.49399e-08
8.61573e-08
1.63319e-08
8.14464e-08
8.44559e-09
6.93953e-08
2.52529e-09
4.91603e-08
1.97963e-08
-3.12118e-09
1.16687e-08
-1.17255e-08
3.64021e-08
-2.50865e-08
6.09214e-08
-4.25335e-08
8.42108e-08
-6.34642e-08
1.05678e-07
-8.73523e-08
1.25012e-07
-1.13749e-07
1.42124e-07
-1.42282e-07
1.57091e-07
-1.72651e-07
1.70103e-07
-2.04622e-07
1.81417e-07
-2.38019e-07
1.91321e-07
-2.72718e-07
2.00102e-07
-3.08633e-07
2.08028e-07
-3.4571e-07
2.15325e-07
-3.83919e-07
2.22174e-07
-4.23237e-07
2.28699e-07
-4.63648e-07
2.34965e-07
-5.05128e-07
2.40981e-07
-5.4764e-07
2.46702e-07
-5.91129e-07
2.52032e-07
-6.35513e-07
2.56834e-07
-6.80678e-07
2.60932e-07
-7.26481e-07
2.64122e-07
-7.72741e-07
2.66181e-07
-8.19239e-07
2.6687e-07
-8.65722e-07
2.65946e-07
-9.11902e-07
2.6317e-07
-9.57457e-07
2.58312e-07
-1.00203e-06
2.51162e-07
-1.04525e-06
2.41532e-07
-1.08672e-06
2.29268e-07
-1.12601e-06
2.14254e-07
-1.1627e-06
1.96416e-07
-1.19636e-06
1.75729e-07
-1.22655e-06
1.52217e-07
-1.25285e-06
1.25963e-07
-1.27485e-06
9.71049e-08
-1.29216e-06
6.58397e-08
-1.30442e-06
3.2423e-08
-1.31131e-06
-2.82893e-09
-1.31254e-06
-3.95566e-08
-1.30788e-06
-7.73296e-08
-1.29716e-06
-1.15683e-07
-1.28027e-06
-1.54105e-07
-1.25716e-06
-1.92052e-07
-1.22786e-06
-2.28954e-07
-1.19251e-06
-2.64223e-07
-1.15129e-06
-2.97271e-07
-1.1045e-06
-3.27514e-07
-1.05253e-06
-3.54395e-07
-9.95847e-07
-3.77392e-07
-9.35013e-07
-3.96034e-07
-8.70672e-07
-4.09919e-07
-8.03542e-07
-4.18727e-07
-7.34406e-07
-4.22232e-07
-6.64096e-07
-4.20316e-07
-5.93476e-07
-4.12976e-07
-5.2343e-07
-4.00328e-07
-4.5483e-07
-3.8261e-07
-3.88527e-07
-3.60179e-07
-3.25321e-07
-3.33504e-07
-2.65944e-07
-3.03151e-07
-2.11037e-07
-2.69774e-07
-1.61142e-07
-2.34089e-07
-1.16678e-07
-1.96862e-07
-7.79421e-08
-1.58885e-07
-4.5095e-08
-1.2096e-07
-1.81655e-08
-8.38817e-08
2.95083e-09
-4.84291e-08
1.84863e-08
-1.53571e-08
2.87962e-08
1.46031e-08
3.43509e-08
4.07387e-08
3.57311e-08
6.23456e-08
3.36229e-08
7.87138e-08
2.88167e-08
8.91111e-08
2.22097e-08
9.27643e-08
1.48138e-08
8.88423e-08
7.76696e-09
7.64421e-08
2.34852e-09
5.45788e-08
2.21448e-08
-3.58016e-09
1.52488e-08
-1.33744e-08
4.61963e-08
-2.84925e-08
7.60395e-08
-4.81259e-08
1.03844e-07
-7.15617e-08
1.29113e-07
-9.81883e-08
1.51638e-07
-1.27495e-07
1.7143e-07
-1.59067e-07
1.88663e-07
-1.92578e-07
2.03614e-07
-2.27782e-07
2.16622e-07
-2.64502e-07
2.28041e-07
-3.02616e-07
2.38216e-07
-3.42049e-07
2.47461e-07
-3.82761e-07
2.56037e-07
-4.24733e-07
2.64146e-07
-4.67957e-07
2.71923e-07
-5.12428e-07
2.79436e-07
-5.58134e-07
2.86687e-07
-6.05044e-07
2.93612e-07
-6.53108e-07
3.00096e-07
-7.02244e-07
3.0597e-07
-7.52338e-07
3.11026e-07
-8.03239e-07
3.15023e-07
-8.54757e-07
3.17699e-07
-9.06662e-07
3.18775e-07
-9.58685e-07
3.17969e-07
-1.01052e-06
3.15003e-07
-1.06182e-06
3.09611e-07
-1.11221e-06
3.0155e-07
-1.16128e-06
2.90604e-07
-1.2086e-06
2.76593e-07
-1.25373e-06
2.59382e-07
-1.29619e-06
2.38882e-07
-1.33553e-06
2.1506e-07
-1.37125e-06
1.87939e-07
-1.40289e-06
1.57607e-07
-1.43e-06
1.24212e-07
-1.45213e-06
8.79698e-08
-1.46887e-06
4.91627e-08
-1.47984e-06
8.13916e-09
-1.4847e-06
-3.46971e-08
-1.48315e-06
-7.88707e-08
-1.47498e-06
-1.23857e-07
-1.46e-06
-1.69081e-07
-1.43813e-06
-2.13926e-07
-1.40934e-06
-2.57741e-07
-1.37371e-06
-2.99854e-07
-1.3314e-06
-3.39581e-07
-1.28267e-06
-3.76242e-07
-1.22789e-06
-4.09179e-07
-1.16752e-06
-4.37766e-07
-1.10212e-06
-4.61432e-07
-1.03236e-06
-4.79676e-07
-9.59e-07
-4.92087e-07
-8.82874e-07
-4.98358e-07
-8.04887e-07
-4.98303e-07
-7.25995e-07
-4.91868e-07
-6.47183e-07
-4.7914e-07
-5.69442e-07
-4.6035e-07
-4.93748e-07
-4.35873e-07
-4.21033e-07
-4.06219e-07
-3.52161e-07
-3.72023e-07
-2.87906e-07
-3.34029e-07
-2.28928e-07
-2.93067e-07
-1.7576e-07
-2.5003e-07
-1.28792e-07
-2.05853e-07
-8.82659e-08
-1.61486e-07
-5.4271e-08
-1.17877e-07
-2.6745e-08
-7.5955e-08
-5.47965e-09
-3.66225e-08
9.87319e-09
-7.49775e-10
1.97924e-08
3.08195e-08
2.488e-08
5.7258e-08
2.58543e-08
7.77395e-08
2.35464e-08
9.14191e-08
1.88993e-08
9.74113e-08
1.29724e-08
9.47692e-08
6.94772e-09
8.24668e-08
2.13852e-09
5.9388e-08
2.42833e-08
-4.04096e-09
1.92898e-08
-1.50277e-08
5.71831e-08
-3.1905e-08
9.29167e-08
-5.37262e-08
1.25665e-07
-7.9668e-08
1.55055e-07
-1.09034e-07
1.81004e-07
-1.41253e-07
2.03649e-07
-1.75868e-07
2.23278e-07
-2.12531e-07
2.40277e-07
-2.50983e-07
2.55074e-07
-2.91048e-07
2.68105e-07
-3.32611e-07
2.79779e-07
-3.7561e-07
2.9046e-07
-4.20018e-07
3.00446e-07
-4.65834e-07
3.09962e-07
-5.13066e-07
3.19156e-07
-5.61725e-07
3.28095e-07
-6.11809e-07
3.3677e-07
-6.63299e-07
3.45102e-07
-7.16149e-07
3.52946e-07
-7.70282e-07
3.60103e-07
-8.25583e-07
3.66326e-07
-8.81896e-07
3.71336e-07
-9.39022e-07
3.74825e-07
-9.96721e-07
3.76474e-07
-1.05471e-06
3.75955e-07
-1.11265e-06
3.72949e-07
-1.17019e-06
3.67152e-07
-1.22693e-06
3.58283e-07
-1.28242e-06
3.46093e-07
-1.3362e-06
3.30376e-07
-1.38779e-06
3.10972e-07
-1.43668e-06
2.87776e-07
-1.48237e-06
2.60741e-07
-1.52431e-06
2.29888e-07
-1.56201e-06
1.95303e-07
-1.59494e-06
1.57145e-07
-1.62262e-06
1.15645e-07
-1.64456e-06
7.11071e-08
-1.66034e-06
2.39111e-08
-1.66954e-06
-2.54959e-08
-1.67181e-06
-7.65961e-08
-1.66686e-06
-1.28806e-07
-1.65446e-06
-1.81485e-07
-1.63444e-06
-2.33943e-07
-1.60674e-06
-2.85446e-07
-1.57136e-06
-3.35232e-07
-1.52842e-06
-3.82518e-07
-1.47815e-06
-4.2652e-07
-1.42086e-06
-4.66467e-07
-1.357e-06
-5.01619e-07
-1.28715e-06
-5.3129e-07
-1.21196e-06
-5.54863e-07
-1.13223e-06
-5.71818e-07
-1.04884e-06
-5.81747e-07
-9.62766e-07
-5.84375e-07
-8.75056e-07
-5.79578e-07
-7.86802e-07
-5.67394e-07
-6.99123e-07
-5.48029e-07
-6.13135e-07
-5.21862e-07
-5.29917e-07
-4.89436e-07
-4.50488e-07
-4.51452e-07
-3.75774e-07
-4.08743e-07
-3.06581e-07
-3.6226e-07
-2.43576e-07
-3.13035e-07
-1.87268e-07
-2.62161e-07
-1.37997e-07
-2.10757e-07
-9.59293e-08
-1.59944e-07
-6.10592e-08
-1.10825e-07
-3.32113e-08
-6.44704e-08
-1.20508e-08
-2.19103e-08
2.90683e-09
1.58619e-08
1.22846e-08
4.78802e-08
1.68347e-08
7.31894e-08
1.74313e-08
9.08224e-08
1.50666e-08
9.9776e-08
1.08503e-08
9.89855e-08
6.0119e-09
8.73052e-08
1.90297e-09
6.34969e-08
2.61862e-08
-4.50211e-09
2.37919e-08
-1.66793e-08
6.93603e-08
-3.53101e-08
1.11547e-07
-5.93103e-08
1.49666e-07
-8.77471e-08
1.83492e-07
-1.19841e-07
2.13098e-07
-1.54962e-07
2.38769e-07
-1.92614e-07
2.6093e-07
-2.32426e-07
2.80089e-07
-2.74133e-07
2.96781e-07
-3.17558e-07
3.11531e-07
-3.62599e-07
3.2482e-07
-4.09208e-07
3.37068e-07
-4.57375e-07
3.48613e-07
-5.07118e-07
3.59705e-07
-5.58464e-07
3.70502e-07
-6.11441e-07
3.81071e-07
-6.66061e-07
3.91391e-07
-7.22318e-07
4.01359e-07
-7.80173e-07
4.10802e-07
-8.39553e-07
4.19483e-07
-9.00344e-07
4.27117e-07
-9.62384e-07
4.33377e-07
-1.02547e-06
4.37911e-07
-1.08935e-06
4.40349e-07
-1.15371e-06
4.40321e-07
-1.21822e-06
4.37458e-07
-1.28248e-06
4.31415e-07
-1.34607e-06
4.21869e-07
-1.40851e-06
4.08536e-07
-1.46931e-06
3.91178e-07
-1.52795e-06
3.69608e-07
-1.58387e-06
3.43699e-07
-1.63652e-06
3.1339e-07
-1.68533e-06
2.78693e-07
-1.72972e-06
2.39693e-07
-1.76912e-06
1.96552e-07
-1.803e-06
1.49517e-07
-1.8308e-06
9.89115e-08
-1.85203e-06
4.51443e-08
-1.86623e-06
-1.12964e-08
-1.87298e-06
-6.98528e-08
-1.8719e-06
-1.29881e-07
-1.86271e-06
-1.90677e-07
-1.84518e-06
-2.51477e-07
-1.81916e-06
-3.11464e-07
-1.78461e-06
-3.69782e-07
-1.74158e-06
-4.25547e-07
-1.69023e-06
-4.77863e-07
-1.63086e-06
-5.25839e-07
-1.56387e-06
-5.68611e-07
-1.4898e-06
-6.05362e-07
-1.40932e-06
-6.35346e-07
-1.32322e-06
-6.5791e-07
-1.23245e-06
-6.72525e-07
-1.13802e-06
-6.78805e-07
-1.04107e-06
-6.76529e-07
-9.42797e-07
-6.65662e-07
-8.44463e-07
-6.46364e-07
-7.47328e-07
-6.18997e-07
-6.52639e-07
-5.84125e-07
-5.61589e-07
-5.42501e-07
-4.75281e-07
-4.95051e-07
-3.94695e-07
-4.42846e-07
-3.20658e-07
-3.87072e-07
-2.53826e-07
-3.28993e-07
-1.94663e-07
-2.6992e-07
-1.43435e-07
-2.11172e-07
-1.00208e-07
-1.54052e-07
-6.48549e-08
-9.9824e-08
-3.70612e-08
-4.9704e-08
-1.63424e-08
-4.85693e-09
-2.05553e-09
3.35933e-08
6.587e-09
6.45468e-08
1.05058e-08
8.69036e-08
1.07466e-08
9.95352e-08
8.47553e-09
1.01257e-07
4.97612e-09
9.08046e-08
1.64738e-09
6.68257e-08
2.78336e-08
-4.96175e-09
2.87537e-08
-1.8322e-08
8.27206e-08
-3.86925e-08
1.31918e-07
-6.48525e-08
1.75826e-07
-9.57614e-08
2.14401e-07
-1.30559e-07
2.47896e-07
-1.68558e-07
2.76768e-07
-2.09227e-07
3.016e-07
-2.52176e-07
3.23038e-07
-2.97133e-07
3.41738e-07
-3.43928e-07
3.58325e-07
-3.92468e-07
3.73361e-07
-4.42724e-07
3.87324e-07
-4.94708e-07
4.00597e-07
-5.48457e-07
4.13454e-07
-6.0402e-07
4.26065e-07
-6.61442e-07
4.38493e-07
-7.20753e-07
4.50702e-07
-7.81959e-07
4.62565e-07
-8.4503e-07
4.73873e-07
-9.09899e-07
4.84351e-07
-9.76449e-07
4.93667e-07
-1.04452e-06
5.01446e-07
-1.11389e-06
5.07284e-07
-1.1843e-06
5.10759e-07
-1.25543e-06
5.1145e-07
-1.32691e-06
5.08938e-07
-1.39832e-06
5.0283e-07
-1.46921e-06
4.92759e-07
-1.53908e-06
4.78401e-07
-1.60738e-06
4.59481e-07
-1.67356e-06
4.35783e-07
-1.73701e-06
4.07155e-07
-1.79714e-06
3.73518e-07
-1.85332e-06
3.34872e-07
-1.90492e-06
2.91297e-07
-1.95133e-06
2.42961e-07
-1.99193e-06
1.90119e-07
-2.02614e-06
1.33117e-07
-2.05339e-06
7.23894e-08
-2.07314e-06
8.4627e-09
-2.08493e-06
-5.80646e-08
-2.08832e-06
-1.26491e-07
-2.08295e-06
-1.96053e-07
-2.06851e-06
-2.65912e-07
-2.04481e-06
-3.3517e-07
-2.01171e-06
-4.02878e-07
-1.96921e-06
-4.68048e-07
-1.9174e-06
-5.2967e-07
-1.85651e-06
-5.86731e-07
-1.78689e-06
-6.38232e-07
-1.70904e-06
-6.83212e-07
-1.6236e-06
-7.2078e-07
-1.53138e-06
-7.50135e-07
-1.4333e-06
-7.706e-07
-1.33046e-06
-7.81651e-07
-1.22404e-06
-7.82943e-07
-1.11537e-06
-7.74338e-07
-1.00581e-06
-7.55919e-07
-8.96801e-07
-7.28008e-07
-7.89761e-07
-6.91166e-07
-6.86078e-07