/*--------------------------------*- C++ -*----------------------------------*\
  =========                 |
  \\      /  F ield         | OpenFOAM: The Open Source CFD Toolbox
   \\    /   O peration     | Website:  https://openfoam.org
    \\  /    A nd           | Version:  7
     \\/     M anipulation  |
\*---------------------------------------------------------------------------*/
FoamFile
{
    version     2.0;
    format      ascii;
    class       surfaceScalarField;
    location    "0.825";
    object      phi;
}
// * * * * * * * * * * * * * * * * * * * * * * * * * * * * * * * * * * * * * //

dimensions      [0 3 -1 0 0 0 0];

internalField   nonuniform List<scalar> 
12640
(
2.19511e-10
-2.1948e-10
6.02142e-10
-3.82636e-10
9.07989e-10
-3.05837e-10
1.00786e-09
-9.98702e-11
8.44434e-10
1.63427e-10
3.99266e-10
4.4511e-10
-3.24339e-10
7.23643e-10
-1.31151e-09
9.87191e-10
-2.54115e-09
1.22964e-09
-3.98929e-09
1.44816e-09
-5.63108e-09
1.64177e-09
-7.44181e-09
1.81075e-09
-9.39775e-09
1.956e-09
-1.14765e-08
2.07873e-09
-1.36569e-08
2.18046e-09
-1.59196e-08
2.26268e-09
-1.82464e-08
2.32679e-09
-2.06205e-08
2.37412e-09
-2.30264e-08
2.40586e-09
-2.54494e-08
2.42299e-09
-2.78757e-08
2.42633e-09
-3.02922e-08
2.4165e-09
-3.26862e-08
2.394e-09
-3.50453e-08
2.35912e-09
-3.73573e-08
2.31205e-09
-3.96102e-08
2.25283e-09
-4.17916e-08
2.18146e-09
-4.38895e-08
2.09787e-09
-4.58914e-08
2.00194e-09
-4.7785e-08
1.89357e-09
-4.95577e-08
1.77267e-09
-5.11969e-08
1.63924e-09
-5.26903e-08
1.49334e-09
-5.40254e-08
1.33512e-09
-5.51903e-08
1.16488e-09
-5.61734e-08
9.83078e-10
-5.69637e-08
7.90322e-10
-5.75511e-08
5.87401e-10
-5.79264e-08
3.75306e-10
-5.80816e-08
1.55215e-10
-5.80101e-08
-7.14942e-11
-5.77069e-08
-3.0324e-10
-5.71686e-08
-5.38247e-10
-5.63941e-08
-7.74572e-10
-5.5384e-08
-1.01011e-09
-5.41414e-08
-1.24259e-09
-5.26717e-08
-1.46965e-09
-5.09829e-08
-1.68885e-09
-4.90852e-08
-1.89769e-09
-4.69915e-08
-2.09365e-09
-4.47173e-08
-2.27424e-09
-4.22803e-08
-2.43705e-09
-3.97004e-08
-2.5798e-09
-3.70001e-08
-2.70037e-09
-3.42032e-08
-2.79684e-09
-3.13357e-08
-2.86753e-09
-2.84247e-08
-2.91107e-09
-2.54983e-08
-2.92639e-09
-2.25855e-08
-2.91278e-09
-1.97156e-08
-2.86991e-09
-1.69177e-08
-2.79785e-09
-1.42207e-08
-2.69707e-09
-1.16522e-08
-2.56844e-09
-9.23898e-09
-2.41323e-09
-7.00583e-09
-2.23315e-09
-4.97552e-09
-2.0303e-09
-3.16833e-09
-1.80719e-09
-1.60161e-09
-1.56672e-09
-2.89317e-10
-1.31229e-09
7.58469e-10
-1.04779e-09
1.53618e-09
-7.77713e-10
2.04357e-09
-5.07399e-10
2.28692e-09
-2.43352e-10
2.28091e-09
6.0118e-12
2.05145e-09
2.29463e-10
1.63996e-09
4.11482e-10
1.11023e-09
5.29725e-10
5.59119e-10
5.51105e-10
1.32491e-10
4.26619e-10
1.32489e-10
3.84707e-10
-6.04185e-10
8.74367e-10
-8.72262e-10
1.089e-09
-5.20528e-10
7.99021e-10
1.90163e-10
-1.24374e-10
1.08682e-09
-1.73741e-09
2.05816e-09
-4.04799e-09
3.03416e-09
-7.03283e-09
3.97203e-09
-1.06498e-08
4.84668e-09
-1.4846e-08
5.64429e-09
-1.95627e-08
6.35847e-09
-2.47393e-08
6.98741e-09
-3.03157e-08
7.53228e-09
-3.6233e-08
7.99605e-09
-4.24352e-08
8.38271e-09
-4.88692e-08
8.69667e-09
-5.54848e-08
8.94241e-09
-6.22349e-08
9.12422e-09
-6.9075e-08
9.24597e-09
-7.5963e-08
9.31104e-09
-8.28589e-08
9.32226e-09
-8.97243e-08
9.28191e-09
-9.6522e-08
9.1917e-09
-1.03216e-07
9.05283e-09
-1.0977e-07
8.86607e-09
-1.16149e-07
8.63182e-09
-1.22318e-07
8.3502e-09
-1.28241e-07
8.02115e-09
-1.33883e-07
7.64451e-09
-1.3921e-07
7.22017e-09
-1.44185e-07
6.74812e-09
-1.48775e-07
6.22855e-09
-1.52943e-07
5.662e-09
-1.56658e-07
5.04937e-09
-1.59885e-07
4.39205e-09
-1.62594e-07
3.69199e-09
-1.64755e-07
2.95172e-09
-1.66342e-07
2.17443e-09
-1.67331e-07
1.364e-09
-1.67701e-07
5.25025e-10
-1.67435e-07
-3.37186e-10
-1.66522e-07
-1.21665e-09
-1.64953e-07
-2.10669e-09
-1.62728e-07
-2.99999e-09
-1.59849e-07
-3.8887e-09
-1.56327e-07
-4.76447e-09
-1.52178e-07
-5.61854e-09
-1.47425e-07
-6.4419e-09
-1.42098e-07
-7.22538e-09
-1.36231e-07
-7.95982e-09
-1.2987e-07
-8.63615e-09
-1.23061e-07
-9.24562e-09
-1.15861e-07
-9.77993e-09
-1.0833e-07
-1.02314e-08
-1.00534e-07
-1.05931e-08
-9.25421e-08
-1.0859e-08
-8.44289e-08
-1.10242e-08
-7.62704e-08
-1.10849e-08
-6.81445e-08
-1.10386e-08
-6.01301e-08
-1.08843e-08
-5.23058e-08
-1.06222e-08
-4.47487e-08
-1.02542e-08
-3.75335e-08
-9.78364e-09
-3.07312e-08
-9.21543e-09
-2.44084e-08
-8.55602e-09
-1.86253e-08
-7.81341e-09
-1.34353e-08
-6.99716e-09
-8.88348e-09
-6.11852e-09
-5.0053e-09
-5.19049e-09
-1.82503e-09
-4.22806e-09
6.45935e-10
-3.24869e-09
2.41145e-09
-2.27292e-09
3.49302e-09
-1.32494e-09
3.93488e-09
-4.35848e-10
3.8082e-09
3.56144e-10
3.21862e-09
1.00105e-09
2.31511e-09
1.43323e-09
1.29863e-09
1.56757e-09
4.2472e-10
1.30053e-09
5.5721e-10
3.12216e-10
-9.16391e-10
5.3023e-10
-1.09033e-09
2.32234e-10
-2.22538e-10
-8.44797e-10
1.26709e-09
-2.85765e-09
3.09977e-09
-5.8817e-09
5.08219e-09
-9.93206e-09
7.08452e-09
-1.49824e-08
9.02242e-09
-2.09787e-08
1.0843e-08
-2.78493e-08
1.25148e-08
-3.5512e-08
1.40213e-08
-4.38801e-08
1.53555e-08
-5.2865e-08
1.65172e-08
-6.23793e-08
1.75103e-08
-7.23378e-08
1.83413e-08
-8.2659e-08
1.90179e-08
-9.32649e-08
1.95483e-08
-1.04081e-07
1.99407e-08
-1.15038e-07
2.02024e-08
-1.26067e-07
2.03402e-08
-1.37104e-07
2.03596e-08
-1.48088e-07
2.02653e-08
-1.58957e-07
2.00609e-08
-1.69653e-07
1.97489e-08
-1.80118e-07
1.93311e-08
-1.90295e-07
1.88085e-08
-2.00126e-07
1.81817e-08
-2.09556e-07
1.74509e-08
-2.18528e-07
1.66161e-08
-2.26985e-07
1.56775e-08
-2.34872e-07
1.46354e-08
-2.42134e-07
1.34907e-08
-2.48717e-07
1.2245e-08
-2.54569e-07
1.09007e-08
-2.59638e-07
9.46116e-09
-2.63877e-07
7.93097e-09
-2.67241e-07
6.31594e-09
-2.6969e-07
4.62324e-09
-2.71187e-07
2.86147e-09
-2.71703e-07
1.04071e-09
-2.71212e-07
-8.2751e-10
-2.69699e-07
-2.7302e-09
-2.67153e-07
-4.65304e-09
-2.63572e-07
-6.58037e-09
-2.58965e-07
-8.49544e-09
-2.53349e-07
-1.03805e-08
-2.46751e-07
-1.2217e-08
-2.39207e-07
-1.3986e-08
-2.30764e-07
-1.56681e-08
-2.2148e-07
-1.7244e-08
-2.11422e-07
-1.86947e-08
-2.00665e-07
-2.00019e-08
-1.89297e-07
-2.11483e-08
-1.77411e-07
-2.21177e-08
-1.65108e-07
-2.28958e-08
-1.52497e-07
-2.34701e-08
-1.39691e-07
-2.38303e-08
-1.26807e-07
-2.39685e-08
-1.13966e-07
-2.38799e-08
-1.01288e-07
-2.3562e-08
-8.88944e-08
-2.30159e-08
-7.6903e-08
-2.22456e-08
-6.54282e-08
-2.12584e-08
-5.45788e-08
-2.00648e-08
-4.44561e-08
-1.86788e-08
-3.51519e-08
-1.71176e-08
-2.67472e-08
-1.54019e-08
-1.93097e-08
-1.3556e-08
-1.2892e-08
-1.16081e-08
-7.52946e-09
-9.59063e-09
-3.23723e-09
-7.54094e-09
-7.47279e-12
-5.50268e-09
2.19546e-09
-3.52788e-09
3.43736e-09
-1.67777e-09
3.8223e-09
-2.88082e-11
3.4978e-09
1.32553e-09
2.66296e-09
2.26805e-09
1.57432e-09
2.6562e-09
5.50371e-10
2.32448e-09
1.10758e-09
1.0816e-10
-1.02455e-09
-1.83489e-10
-7.98631e-10
-1.27226e-09
8.66157e-10
-3.41409e-09
3.40894e-09
-6.76411e-09
6.44977e-09
-1.13977e-08
9.71575e-09
-1.73285e-08
1.30153e-08
-2.45248e-08
1.62187e-08
-3.29226e-08
1.92408e-08
-4.24363e-08
2.20285e-08
-5.29663e-08
2.45513e-08
-6.44056e-08
2.67947e-08
-7.66436e-08
2.87552e-08
-8.95697e-08
3.04364e-08
-1.03075e-07
3.18466e-08
-1.17054e-07
3.29967e-08
-1.31404e-07
3.38988e-08
-1.46028e-07
3.45649e-08
-1.60833e-07
3.50066e-08
-1.75727e-07
3.52342e-08
-1.90624e-07
3.52566e-08
-2.0544e-07
3.50813e-08
-2.20093e-07
3.47141e-08
-2.34503e-07
3.41594e-08
-2.48593e-07
3.34202e-08
-2.62283e-07
3.24986e-08
-2.75497e-07
3.13958e-08
-2.88158e-07
3.01126e-08
-3.00192e-07
2.86496e-08
-3.11522e-07
2.70075e-08
-3.22074e-07
2.51876e-08
-3.31776e-07
2.31922e-08
-3.40555e-07
2.10243e-08
-3.48343e-07
1.86888e-08
-3.55074e-07
1.6192e-08
-3.60685e-07
1.35423e-08
-3.65119e-07
1.075e-08
-3.68324e-07
7.82796e-09
-3.70254e-07
4.79111e-09
-3.7087e-07
1.65696e-09
-3.70143e-07
-1.55463e-09
-3.68052e-07
-4.82142e-09
-3.64586e-07
-8.11894e-09
-3.59745e-07
-1.14206e-08
-3.53543e-07
-1.46981e-08
-3.46002e-07
-1.79214e-08
-3.37159e-07
-2.10594e-08
-3.27065e-07
-2.408e-08
-3.15783e-07
-2.69509e-08
-3.03387e-07
-2.96398e-08
-2.89967e-07
-3.21149e-08
-2.75623e-07
-3.43457e-08
-2.60468e-07
-3.63032e-08
-2.44625e-07
-3.79606e-08
-2.28227e-07
-3.92941e-08
-2.11414e-07
-4.02828e-08
-1.94335e-07
-4.09098e-08
-1.77141e-07
-4.11621e-08
-1.59989e-07
-4.10314e-08
-1.43037e-07
-4.05143e-08
-1.26441e-07
-3.96125e-08
-1.10353e-07
-3.83328e-08
-9.49239e-08
-3.66879e-08
-8.0293e-08
-3.46958e-08
-6.65917e-08
-3.23801e-08
-5.39389e-08
-2.97703e-08
-4.2439e-08
-2.69018e-08
-3.21792e-08
-2.38159e-08
-2.32267e-08
-2.05606e-08
-1.56265e-08
-1.71909e-08
-9.39743e-09
-1.377e-08
-4.52927e-09
-1.03708e-08
-9.78838e-10
-7.07832e-09
1.33547e-09
-3.99209e-09
2.5376e-09
-1.23095e-09
2.80044e-09
1.06268e-09
2.35113e-09
2.71737e-09
1.47781e-09
3.52952e-09
5.38668e-10
3.26361e-09
1.64625e-09
-1.59707e-10
-8.64842e-10
-1.10812e-09
1.49775e-10
-3.17407e-09
2.93219e-09
-6.57627e-09
6.81107e-09
-1.14465e-08
1.13199e-08
-1.78449e-08
1.61142e-08
-2.57742e-08
2.09446e-08
-3.51923e-08
2.56368e-08
-4.60241e-08
3.00726e-08
-5.81711e-08
3.41755e-08
-7.15192e-08
3.78994e-08
-8.59447e-08
4.12203e-08
-1.01319e-07
4.41298e-08
-1.17513e-07
4.66303e-08
-1.34398e-07
4.87312e-08
-1.51847e-07
5.04459e-08
-1.69739e-07
5.17902e-08
-1.87954e-07
5.278e-08
-2.06378e-07
5.3431e-08
-2.24901e-07
5.37573e-08
-2.43416e-07
5.37716e-08
-2.61819e-07
5.34841e-08
-2.80008e-07
5.29033e-08
-2.97884e-07
5.20356e-08
-3.1535e-07
5.08857e-08
-3.32308e-07
4.94569e-08
-3.48664e-07
4.77514e-08
-3.64322e-07
4.57709e-08
-3.79189e-07
4.3517e-08
-3.93173e-07
4.09916e-08
-4.06183e-07
3.81973e-08
-4.18129e-07
3.51381e-08
-4.28924e-07
3.18198e-08
-4.38486e-07
2.82502e-08
-4.46734e-07
2.44397e-08
-4.53593e-07
2.04016e-08
-4.58995e-07
1.61522e-08
-4.62878e-07
1.1711e-08
-4.65188e-07
7.10128e-09
-4.65881e-07
2.34955e-09
-4.64921e-07
-2.51407e-09
-4.62287e-07
-7.45606e-09
-4.57966e-07
-1.24397e-08
-4.51962e-07
-1.74252e-08
-4.4429e-07
-2.23702e-08
-4.34981e-07
-2.72302e-08
-4.24081e-07
-3.19588e-08
-4.11653e-07
-3.65086e-08
-3.97772e-07
-4.08318e-08
-3.82531e-07
-4.48805e-08
-3.66038e-07
-4.86079e-08
-3.48415e-07
-5.1969e-08
-3.29797e-07
-5.49211e-08
-3.10333e-07
-5.74248e-08
-2.90182e-07
-5.94449e-08
-2.69514e-07
-6.09508e-08
-2.48506e-07
-6.19176e-08
-2.27342e-07
-6.23264e-08
-2.06208e-07
-6.21651e-08
-1.85294e-07
-6.14287e-08
-1.64786e-07
-6.01198e-08
-1.4487e-07
-5.82491e-08
-1.25723e-07
-5.58351e-08
-1.07514e-07
-5.2905e-08
-9.03999e-08
-4.94941e-08
-7.45235e-08
-4.56467e-08
-6.00099e-08
-4.14155e-08
-4.69635e-08
-3.68623e-08
-3.54653e-08
-3.20588e-08
-2.55695e-08
-2.70866e-08
-1.73004e-08
-2.20392e-08
-1.06481e-08
-1.70231e-08
-5.56569e-09
-1.21608e-08
-1.96416e-09
-7.59364e-09
2.9135e-10
-3.48647e-09
1.38645e-09
-3.24208e-11
1.56239e-09
2.54143e-09
1.12243e-09
3.96948e-09
4.4195e-10
3.94409e-09
2.08819e-09
-4.56236e-10
-4.08665e-10
-2.14491e-09
1.83847e-09
-5.30547e-09
6.09275e-09
-1.00992e-08
1.16048e-08
-1.6619e-08
1.78397e-08
-2.48977e-08
2.43929e-08
-3.49179e-08
3.09648e-08
-4.66216e-08
3.73405e-08
-5.99197e-08
4.33708e-08
-7.47001e-08
4.89559e-08
-9.08347e-08
5.4034e-08
-1.08185e-07
5.85709e-08
-1.26608e-07
6.25525e-08
-1.45957e-07
6.59793e-08
-1.66086e-07
6.88608e-08
-1.86853e-07
7.12128e-08
-2.08117e-07
7.30541e-08
-2.29742e-07
7.44046e-08
-2.51595e-07
7.52837e-08
-2.73547e-07
7.57096e-08
-2.95474e-07
7.56983e-08
-3.17253e-07
7.52634e-08
-3.38766e-07
7.44158e-08
-3.59894e-07
7.31644e-08
-3.80524e-07
7.15155e-08
-4.00541e-07
6.9474e-08
-4.19833e-07
6.70434e-08
-4.38289e-07
6.42268e-08
-4.55799e-07
6.10269e-08
-4.72255e-07
5.74473e-08
-4.8755e-07
5.34926e-08
-5.01581e-07
4.91693e-08
-5.14248e-07
4.44863e-08
-5.25453e-07
3.94555e-08
-5.35106e-07
3.40922e-08
-5.4312e-07
2.84157e-08
-5.49417e-07
2.24494e-08
-5.53927e-07
1.62212e-08
-5.5659e-07
9.7637e-09
-5.57354e-07
3.11418e-09
-5.56183e-07
-3.68532e-09
-5.53051e-07
-1.05882e-08
-5.47947e-07
-1.75436e-08
-5.40875e-07
-2.44967e-08
-5.31857e-07
-3.13889e-08
-5.20928e-07
-3.81592e-08
-5.08143e-07
-4.47439e-08
-4.93573e-07
-5.10782e-08
-4.77309e-07
-5.70963e-08
-4.59456e-07
-6.2733e-08
-4.4014e-07
-6.79244e-08
-4.195e-07
-7.26091e-08
-3.97692e-07
-7.67287e-08
-3.74887e-07
-8.02296e-08
-3.51268e-07
-8.30639e-08
-3.27029e-07
-8.51898e-08
-3.02373e-07
-8.65733e-08
-2.77511e-07
-8.71887e-08
-2.52657e-07
-8.70196e-08
-2.28026e-07
-8.60591e-08
-2.03835e-07
-8.4311e-08
-1.80294e-07
-8.17899e-08
-1.57608e-07
-7.85214e-08
-1.3597e-07
-7.45428e-08
-1.15561e-07
-6.99029e-08
-9.65454e-08
-6.46624e-08
-7.90669e-08
-5.8894e-08
-6.32465e-08
-5.26827e-08
-4.91787e-08
-4.61266e-08
-3.69278e-08
-3.93375e-08
-2.65251e-08
-3.24419e-08
-1.79646e-08
-2.55836e-08
-1.12e-08
-1.89254e-08
-6.1409e-09
-1.26528e-08
-2.64923e-09
-6.97814e-09
-5.35669e-10
-2.14598e-09
4.4462e-10
1.56115e-09
5.96834e-10
3.81727e-09
2.94592e-10
4.24632e-09
2.38277e-09
-7.62873e-10
3.54243e-10
-3.2341e-09
4.30965e-09
-7.55672e-09
1.04154e-08
-1.3824e-08
1.78721e-08
-2.2079e-08
2.60947e-08
-3.2318e-08
3.46319e-08
-4.4496e-08
4.31428e-08
-5.85337e-08
5.13783e-08
-7.43244e-08
5.91614e-08
-9.17403e-08
6.63718e-08
-1.10639e-07
7.29327e-08
-1.30868e-07
7.88e-08
-1.5227e-07
8.39542e-08
-1.74684e-07
8.83931e-08
-1.97949e-07
9.21266e-08
-2.21908e-07
9.51719e-08
-2.46405e-07
9.75509e-08
-2.71288e-07
9.9287e-08
-2.96407e-07
1.00403e-07
-3.2162e-07
1.00922e-07
-3.46783e-07
1.00862e-07
-3.7176e-07
1.00241e-07
-3.96416e-07
9.90711e-08
-4.20616e-07
9.73648e-08
-4.44231e-07
9.51301e-08
-4.6713e-07
9.23734e-08
-4.89187e-07
8.91e-08
-5.10274e-07
8.53144e-08
-5.30269e-07
8.10211e-08
-5.49047e-07
7.62257e-08
-5.6649e-07
7.09352e-08
-5.8248e-07
6.51593e-08
-5.96904e-07
5.89109e-08
-6.09655e-07
5.22066e-08
-6.20631e-07
4.50676e-08
-6.29735e-07
3.75201e-08
-6.36881e-07
2.95958e-08
-6.41992e-07
2.1332e-08
-6.45e-07
1.2772e-08
-6.45852e-07
3.96541e-09
-6.44505e-07
-5.03251e-09
-6.40932e-07
-1.41605e-08
-6.35124e-07
-2.33519e-08
-6.27086e-07
-3.2535e-08
-6.16841e-07
-4.16337e-08
-6.04432e-07
-5.05682e-08
-5.8992e-07
-5.92559e-08
-5.73386e-07
-6.76125e-08
-5.54929e-07
-7.55529e-08
-5.3467e-07
-8.29925e-08
-5.12745e-07
-8.98486e-08
-4.89313e-07
-9.60414e-08
-4.64546e-07
-1.01496e-07
-4.38634e-07
-1.06142e-07
-4.11781e-07
-1.09917e-07
-3.84201e-07
-1.12769e-07
-3.56123e-07
-1.14652e-07
-3.27778e-07
-1.15533e-07
-2.99406e-07
-1.15391e-07
-2.71249e-07
-1.14217e-07
-2.43544e-07
-1.12015e-07
-2.16529e-07
-1.08805e-07
-1.90431e-07
-1.04619e-07
-1.65468e-07
-9.95064e-08
-1.41841e-07
-9.35299e-08
-1.19735e-07
-8.67684e-08
-9.93123e-08
-7.93166e-08
-8.07104e-08
-7.12846e-08
-6.40375e-08
-6.27995e-08
-4.93698e-08
-5.40052e-08
-3.67475e-08
-4.50643e-08
-2.61715e-08
-3.61595e-08
-1.76007e-08
-2.74962e-08
-1.09481e-08
-1.93054e-08
-6.07865e-09
-1.18476e-08
-2.80625e-09
-5.41837e-09
-8.90859e-10
-3.54242e-10
-3.54511e-11
2.96185e-09
1.18485e-10
4.09238e-09
2.50125e-09
-1.06999e-09
1.42424e-09
-4.34004e-09
7.57968e-09
-9.85802e-09
1.59334e-08
-1.76443e-08
2.56583e-08
-2.76856e-08
3.61361e-08
-3.99351e-08
4.68814e-08
-5.43144e-08
5.75222e-08
-7.0718e-08
6.77818e-08
-8.90179e-08
7.74612e-08
-1.09069e-07
8.64225e-08
-1.30712e-07
9.45761e-08
-1.53782e-07
1.0187e-07
-1.78106e-07
1.08278e-07
-2.0351e-07
1.13798e-07
-2.29822e-07
1.18438e-07
-2.56869e-07
1.22219e-07
-2.84482e-07
1.25164e-07
-3.12495e-07
1.273e-07
-3.40745e-07
1.28654e-07
-3.69075e-07
1.29251e-07
-3.97328e-07
1.29115e-07
-4.25352e-07
1.28265e-07
-4.52998e-07
1.26717e-07
-4.80118e-07
1.24485e-07
-5.06567e-07
1.21579e-07
-5.32202e-07
1.18008e-07
-5.56881e-07
1.13779e-07
-5.80465e-07
1.08898e-07
-6.02815e-07
1.03372e-07
-6.23798e-07
9.72079e-08
-6.43279e-07
9.04169e-08
-6.61132e-07
8.30118e-08
-6.77231e-07
7.50102e-08
-6.91459e-07
6.64342e-08
-7.03703e-07
5.73117e-08
-7.13859e-07
4.76767e-08
-7.21834e-07
3.75699e-08
-7.27541e-07
2.70395e-08
-7.30909e-07
1.61405e-08
-7.3188e-07
4.93566e-09
-7.30407e-07
-6.50487e-09
-7.26464e-07
-1.8104e-08
-7.20038e-07
-2.97778e-08
-7.11137e-07
-4.14362e-08
-6.99786e-07
-5.2984e-08
-6.86033e-07
-6.43214e-08
-6.69944e-07
-7.5345e-08
-6.51607e-07
-8.59496e-08
-6.31131e-07
-9.6029e-08
-6.08646e-07
-1.05478e-07
-5.84302e-07
-1.14192e-07
-5.5827e-07
-1.22074e-07
-5.30738e-07
-1.29027e-07
-5.01912e-07
-1.34967e-07
-4.72015e-07
-1.39815e-07
-4.41281e-07
-1.43503e-07
-4.09956e-07
-1.45977e-07
-3.78297e-07
-1.47193e-07
-3.46562e-07
-1.47126e-07
-3.15016e-07
-1.45763e-07
-2.83921e-07
-1.4311e-07
-2.53536e-07
-1.3919e-07
-2.24111e-07
-1.34044e-07
-1.95885e-07
-1.27733e-07
-1.6908e-07
-1.20334e-07
-1.43903e-07
-1.11946e-07
-1.20532e-07
-1.02687e-07
-9.91233e-08
-9.26935e-08
-7.97994e-08
-8.21234e-08
-6.26499e-08
-7.11547e-08
-4.77265e-08
-5.99877e-08
-3.50402e-08
-4.88458e-08
-2.45585e-08
-3.7978e-08
-1.62025e-08
-2.76614e-08
-9.84497e-09
-1.82051e-08
-5.3086e-09
-9.95473e-09
-2.36442e-09
-3.29843e-09
-7.30741e-10
1.32817e-09
-7.2469e-11
3.4341e-09
2.42878e-09
-1.37257e-09
2.79682e-09
-5.442e-09
1.16491e-08
-1.21656e-08
2.26569e-08
-2.14897e-08
3.49825e-08
-3.33419e-08
4.79882e-08
-4.76276e-08
6.11672e-08
-6.4231e-08
7.41255e-08
-8.30163e-08
8.65672e-08
-1.03831e-07
9.82762e-08
-1.2651e-07
1.09102e-07
-1.50878e-07
1.18944e-07
-1.76754e-07
1.27745e-07
-2.03951e-07
1.35475e-07
-2.32283e-07
1.4213e-07
-2.61565e-07
1.4772e-07
-2.91612e-07
1.52266e-07
-3.22242e-07
1.55794e-07
-3.53278e-07
1.58336e-07
-3.84544e-07
1.5992e-07
-4.1587e-07
1.60577e-07
-4.47088e-07
1.60333e-07
-4.78032e-07
1.59209e-07
-5.0854e-07
1.57225e-07
-5.38453e-07
1.54398e-07
-5.67613e-07
1.50739e-07
-5.95863e-07
1.46258e-07
-6.23049e-07
1.40966e-07
-6.49021e-07
1.3487e-07
-6.73628e-07
1.27979e-07
-6.96723e-07
1.20303e-07
-7.18163e-07
1.11857e-07
-7.37809e-07
1.02658e-07
-7.55527e-07
9.27278e-08
-7.71188e-07
8.20955e-08
-7.84672e-07
7.07958e-08
-7.95867e-07
5.88716e-08
-8.04671e-07
4.63737e-08
-8.10993e-07
3.33612e-08
-8.14755e-07
1.99025e-08
-8.15894e-07
6.07438e-09
-8.14361e-07
-8.03725e-09
-8.10127e-07
-2.23381e-08
-8.03179e-07
-3.67261e-08
-7.93523e-07
-5.10914e-08
-7.81189e-07
-6.53184e-08
-7.66225e-07
-7.92857e-08
-7.48702e-07
-9.28682e-08
-7.28713e-07
-1.05938e-07
-7.06376e-07
-1.18367e-07
-6.81828e-07
-1.30026e-07
-6.5523e-07
-1.4079e-07
-6.26763e-07
-1.5054e-07
-5.96631e-07
-1.5916e-07
-5.65053e-07
-1.66545e-07
-5.32267e-07
-1.72601e-07
-4.98525e-07
-1.77245e-07
-4.64092e-07
-1.8041e-07
-4.29242e-07
-1.82043e-07
-3.94257e-07
-1.82111e-07
-3.5942e-07
-1.806e-07
-3.25016e-07
-1.77514e-07
-2.91325e-07
-1.72881e-07
-2.58619e-07
-1.66751e-07
-2.27158e-07
-1.59194e-07
-1.97186e-07
-1.50305e-07
-1.68928e-07
-1.40204e-07
-1.42585e-07
-1.29031e-07
-1.18327e-07
-1.16951e-07
-9.62952e-08
-1.04155e-07
-7.65945e-08
-9.08555e-08
-5.92904e-08
-7.72918e-08
-4.4407e-08
-6.37293e-08
-3.19236e-08
-5.04613e-08
-2.17732e-08
-3.78118e-08
-1.38404e-08
-2.61378e-08
-7.96102e-09
-1.58341e-08
-3.92165e-09
-7.3378e-09
-1.46054e-09
-1.13295e-09
-2.69846e-10
2.2434e-09
2.15893e-09
-1.66814e-09
4.46498e-09
-6.52808e-09
1.6509e-08
-1.44521e-08
3.05809e-08
-2.53142e-08
4.58446e-08
-3.89815e-08
6.16554e-08
-5.53096e-08
7.74953e-08
-7.41421e-08
9.2958e-08
-9.53104e-08
1.07735e-07
-1.18635e-07
1.21601e-07
-1.43929e-07
1.34395e-07
-1.70998e-07
1.46013e-07
-1.99645e-07
1.56391e-07
-2.2967e-07
1.655e-07
-2.60873e-07
1.73334e-07
-2.93058e-07
1.79905e-07
-3.26028e-07
1.85236e-07
-3.59591e-07
1.89357e-07
-3.93558e-07
1.92302e-07
-4.27742e-07
1.94105e-07
-4.61963e-07
1.94798e-07
-4.9604e-07
1.9441e-07
-5.29798e-07
1.92967e-07
-5.63064e-07
1.90491e-07
-5.95665e-07
1.86999e-07
-6.27434e-07
1.82507e-07
-6.58202e-07
1.77027e-07
-6.87805e-07
1.70569e-07
-7.16081e-07
1.63145e-07
-7.42868e-07
1.54766e-07
-7.6801e-07
1.45445e-07
-7.91353e-07
1.352e-07
-8.12749e-07
1.24053e-07
-8.32053e-07
1.12032e-07
-8.49129e-07
9.91714e-08
-8.63848e-07
8.55148e-08
-8.7609e-07
7.11138e-08
-8.85746e-07
5.603e-08
-8.9272e-07
4.03347e-08
-8.96927e-07
2.41097e-08
-8.983e-07
7.44721e-09
-8.96787e-07
-9.55049e-09
-8.92354e-07
-2.67711e-08
-8.84987e-07
-4.40929e-08
-8.74693e-07
-6.13859e-08
-8.61499e-07
-7.85124e-08
-8.45456e-07
-9.53287e-08
-8.26638e-07
-1.11686e-07
-8.05142e-07
-1.27434e-07
-7.8109e-07
-1.42418e-07
-7.54628e-07
-1.56488e-07
-7.25923e-07
-1.69495e-07
-6.95168e-07
-1.81295e-07
-6.62576e-07
-1.91753e-07
-6.28379e-07
-2.00742e-07
-5.92829e-07
-2.08151e-07
-5.56194e-07
-2.1388e-07
-5.18757e-07
-2.17847e-07
-4.80808e-07
-2.19991e-07
-4.42649e-07
-2.2027e-07
-4.04583e-07
-2.18665e-07
-3.66916e-07
-2.15181e-07
-3.29949e-07
-2.09848e-07
-2.93975e-07
-2.02724e-07
-2.59277e-07
-1.93892e-07
-2.26121e-07
-1.83462e-07
-1.94751e-07
-1.71574e-07
-1.65388e-07
-1.58394e-07
-1.38224e-07
-1.44116e-07
-1.13417e-07
-1.28962e-07
-9.10903e-08
-1.13183e-07
-7.13253e-08
-9.70568e-08
-5.41619e-08
-8.08926e-08
-3.95948e-08
-6.50284e-08
-2.75717e-08
-4.98349e-08
-1.79925e-08
-3.5717e-08
-1.07094e-08
-2.31172e-08
-5.52743e-09
-1.25198e-08
-2.20714e-09
-4.45324e-09
-4.68812e-10
5.05073e-10
1.69012e-09
-1.95563e-09
6.42059e-09
-7.59148e-09
2.21449e-08
-1.67007e-08
3.96901e-08
-2.90876e-08
5.82315e-08
-4.4559e-08
7.71269e-08
-6.29202e-08
9.58564e-08
-8.39722e-08
1.1401e-07
-1.07512e-07
1.31275e-07
-1.33331e-07
1.4742e-07
-1.61218e-07
1.62283e-07
-1.9096e-07
1.75755e-07
-2.22341e-07
1.87773e-07
-2.5515e-07
1.98309e-07
-2.89172e-07
2.07357e-07
-3.242e-07
2.14932e-07
-3.60025e-07
2.21061e-07
-3.96447e-07
2.25778e-07
-4.33265e-07
2.2912e-07
-4.70284e-07
2.31124e-07
-5.07312e-07
2.31826e-07
-5.44161e-07
2.31259e-07
-5.80644e-07
2.2945e-07
-6.16579e-07
2.26425e-07
-6.51783e-07
2.22204e-07
-6.8608e-07
2.16803e-07
-7.1929e-07
2.10237e-07
-7.5124e-07
2.0252e-07
-7.81758e-07
1.93662e-07
-8.10672e-07
1.8368e-07
-8.37817e-07
1.7259e-07
-8.6303e-07
1.60413e-07
-8.86153e-07
1.47176e-07
-9.07034e-07
1.32913e-07
-9.25528e-07
1.17665e-07
-9.41498e-07
1.01485e-07
-9.54817e-07
8.44325e-08
-9.65368e-07
6.65816e-08
-9.73049e-07
4.80158e-08
-9.77771e-07
2.8831e-08
-9.79459e-07
9.13531e-09
-9.78057e-07
-1.09518e-08
-9.73529e-07
-3.12991e-08
-9.65857e-07
-5.1765e-08
-9.55045e-07
-7.21977e-08
-9.41121e-07
-9.24372e-08
-9.24133e-07
-1.12316e-07
-9.04158e-07
-1.31661e-07
-8.81295e-07
-1.50297e-07
-8.55669e-07
-1.68044e-07
-8.27431e-07
-1.84727e-07
-7.96754e-07
-2.00172e-07
-7.63839e-07
-2.1421e-07
-7.28907e-07
-2.26684e-07
-6.92203e-07
-2.37446e-07
-6.53992e-07
-2.46362e-07
-6.14554e-07
-2.53317e-07
-5.74188e-07
-2.58214e-07
-5.33202e-07
-2.60977e-07
-4.91916e-07
-2.61557e-07
-4.50653e-07
-2.59928e-07
-4.09739e-07
-2.56095e-07
-3.69497e-07
-2.50091e-07
-3.30242e-07
-2.41979e-07
-2.92278e-07
-2.31855e-07
-2.55895e-07
-2.19845e-07
-2.21359e-07
-2.0611e-07
-1.88913e-07
-1.90839e-07
-1.5877e-07
-1.74258e-07
-1.3111e-07
-1.56622e-07
-1.06074e-07
-1.38218e-07
-8.37645e-08
-1.19366e-07
-6.42391e-08
-1.00418e-07
-4.75105e-08
-8.17571e-08
-3.35439e-08
-6.38015e-08
-2.22572e-08
-4.70037e-08
-1.35211e-08
-3.18533e-08
-7.1611e-09
-1.88798e-08
-2.9606e-09
-8.65374e-09
-6.66888e-10
-1.78864e-09
1.02323e-09
-2.23454e-09
8.65513e-09
-8.62845e-09
2.85388e-08
-1.89011e-08
4.99628e-08
-3.279e-08
7.21205e-08
-5.00435e-08
9.43803e-08
-7.0416e-08
1.16229e-07
-9.3666e-08
1.3726e-07
-1.19554e-07
1.57163e-07
-1.47842e-07
1.75708e-07
-1.78293e-07
1.92734e-07
-2.10673e-07
2.08135e-07
-2.44751e-07
2.21851e-07
-2.80298e-07
2.33855e-07
-3.17088e-07
2.44147e-07
-3.54901e-07
2.52745e-07
-3.93521e-07
2.59681e-07
-4.32734e-07
2.64992e-07
-4.72333e-07
2.68719e-07
-5.12113e-07
2.70904e-07
-5.51875e-07
2.71587e-07
-5.9142e-07
2.70804e-07
-6.30554e-07
2.68585e-07
-6.69086e-07
2.64957e-07
-7.06826e-07
2.59944e-07
-7.43586e-07
2.53563e-07
-7.79181e-07
2.45832e-07
-8.13427e-07
2.36766e-07
-8.46143e-07
2.26379e-07
-8.7715e-07
2.14688e-07
-9.06275e-07
2.01714e-07
-9.33344e-07
1.87483e-07
-9.58193e-07
1.72025e-07
-9.80661e-07
1.55381e-07
-1.0006e-06
1.376e-07
-1.01785e-06
1.18741e-07
-1.0323e-06
9.88759e-08
-1.0438e-06
7.80891e-08
-1.05226e-06
5.64774e-08
-1.05758e-06
3.41512e-08
-1.05968e-06
1.12346e-08
-1.0585e-06
-1.2135e-08
-1.05399e-06
-3.58071e-08
-1.04614e-06
-5.96192e-08
-1.03494e-06
-8.33975e-08
-1.02042e-06
-1.06958e-07
-1.00262e-06
-1.3011e-07
-9.8163e-07
-1.52654e-07
-9.57538e-07
-1.74389e-07
-9.30474e-07
-1.95109e-07
-9.0059e-07
-2.14611e-07
-8.68066e-07
-2.32695e-07
-8.33108e-07
-2.49169e-07
-7.95945e-07
-2.63847e-07
-7.5683e-07
-2.7656e-07
-7.1604e-07
-2.87153e-07
-6.73868e-07
-2.95489e-07
-6.30628e-07
-3.01454e-07
-5.86644e-07
-3.04961e-07
-5.42254e-07
-3.05947e-07
-4.978e-07
-3.04381e-07
-4.5363e-07
-3.00265e-07
-4.10088e-07
-2.93633e-07
-3.67513e-07
-2.84554e-07
-3.26232e-07
-2.73135e-07
-2.86559e-07
-2.59519e-07
-2.48783e-07
-2.43885e-07
-2.13173e-07
-2.2645e-07
-1.79964e-07
-2.07467e-07
-1.4936e-07
-1.87227e-07
-1.21524e-07
-1.66054e-07
-9.6581e-08
-1.4431e-07
-7.46089e-08
-1.2239e-07
-5.56411e-08
-1.00725e-07
-3.96629e-08
-7.97796e-08
-2.66123e-08
-6.00543e-08
-1.638e-08
-4.20855e-08
-8.81276e-09
-2.64471e-08
-3.71648e-09
-1.375e-08
-8.63159e-10
-4.64197e-09
1.60065e-10
-2.50479e-09
1.11599e-08
-9.63697e-09
3.56709e-08
-2.10468e-08
6.13726e-08
-3.64085e-08
8.74821e-08
-5.54133e-08
1.13385e-07
-7.7766e-08
1.38582e-07
-1.03182e-07
1.62676e-07
-1.31386e-07
1.85366e-07
-1.62108e-07
2.0643e-07
-1.95087e-07
2.25713e-07
-2.30066e-07
2.43115e-07
-2.66797e-07
2.58582e-07
-3.05035e-07
2.72093e-07
-3.44541e-07
2.83654e-07
-3.85085e-07
2.93289e-07
-4.2644e-07
3.01035e-07
-4.68384e-07
3.06935e-07
-5.107e-07
3.11035e-07
-5.53177e-07
3.13382e-07
-5.95607e-07
3.14017e-07
-6.37785e-07
3.12981e-07
-6.79508e-07
3.10308e-07
-7.20578e-07
3.06027e-07
-7.60798e-07
3.00164e-07
-7.99973e-07
2.92738e-07
-8.37909e-07
2.83768e-07
-8.74415e-07
2.73272e-07
-9.09303e-07
2.61267e-07
-9.42387e-07
2.47772e-07
-9.73484e-07
2.32811e-07
-1.00241e-06
2.16414e-07
-1.02901e-06
1.98616e-07
-1.05309e-06
1.79464e-07
-1.0745e-06
1.59015e-07
-1.0931e-06
1.37336e-07
-1.10873e-06
1.14509e-07
-1.12127e-06
9.06299e-08
-1.1306e-06
6.58084e-08
-1.13662e-06
4.017e-08
-1.13924e-06
1.3855e-08
-1.1384e-06
-1.2981e-08
-1.13404e-06
-4.01681e-08
-1.12613e-06
-6.75222e-08
-1.11468e-06
-9.48471e-08
-1.09971e-06
-1.21935e-07
-1.08125e-06
-1.48569e-07
-1.05938e-06
-1.74523e-07
-1.0342e-06
-1.9957e-07
-1.00583e-06
-2.23476e-07
-9.7443e-07
-2.46011e-07
-9.40179e-07
-2.66946e-07
-9.03287e-07
-2.8606e-07
-8.6399e-07
-3.03144e-07
-8.2255e-07
-3.18001e-07
-7.7925e-07
-3.30452e-07
-7.34398e-07
-3.4034e-07
-6.88321e-07
-3.47532e-07
-6.41359e-07
-3.51922e-07
-5.93868e-07
-3.53438e-07
-5.46211e-07
-3.52039e-07
-4.98755e-07
-3.47721e-07
-4.51868e-07
-3.4052e-07
-4.05913e-07
-3.30509e-07
-3.61243e-07
-3.17805e-07
-3.18197e-07
-3.02566e-07
-2.77091e-07
-2.84991e-07
-2.38218e-07
-2.65322e-07
-2.01842e-07
-2.43843e-07
-1.68191e-07
-2.20878e-07
-1.37454e-07
-1.96791e-07
-1.0978e-07
-1.71984e-07
-8.52708e-08
-1.46899e-07
-6.39829e-08
-1.22013e-07
-4.59238e-08
-9.78388e-08
-3.10529e-08
-7.49252e-08
-1.92825e-08
-5.38559e-08
-1.04804e-08
-3.52491e-08
-4.47428e-09
-1.97562e-08
-1.05777e-09
-8.05848e-09
-8.97706e-10
-2.76642e-09
1.39264e-08
-1.06159e-08
4.35204e-08
-2.31338e-08
7.38905e-08
-3.99338e-08
1.04282e-07
-6.06528e-08
1.34104e-07
-8.49469e-08
1.62876e-07
-1.12489e-07
1.90219e-07
-1.42968e-07
2.15845e-07
-1.76082e-07
2.39545e-07
-2.11545e-07
2.61175e-07
-2.49078e-07
2.80648e-07
-2.88413e-07
2.97917e-07
-3.29291e-07
3.12971e-07
-3.71462e-07
3.25825e-07
-4.14682e-07
3.36509e-07
-4.58715e-07
3.45068e-07
-5.03331e-07
3.51552e-07
-5.48307e-07
3.56011e-07
-5.93422e-07
3.58497e-07
-6.38462e-07
3.59057e-07
-6.83216e-07
3.57735e-07
-7.27476e-07
3.54568e-07
-7.71036e-07
3.49587e-07
-8.13692e-07
3.4282e-07
-8.55244e-07
3.3429e-07
-8.95492e-07
3.24016e-07
-9.34237e-07
3.12017e-07
-9.71285e-07
2.98314e-07
-1.00644e-06
2.82929e-07
-1.03952e-06
2.65888e-07
-1.07033e-06
2.47225e-07
-1.09869e-06
2.2698e-07
-1.12444e-06
2.05206e-07
-1.14739e-06
1.81967e-07
-1.16739e-06
1.57338e-07
-1.18429e-06
1.31412e-07
-1.19796e-06
1.04296e-07
-1.20826e-06
7.61123e-08
-1.21509e-06
4.70012e-08
-1.21836e-06
1.71198e-08
-1.21798e-06
-1.33585e-08
-1.21391e-06
-4.42436e-08
-1.2061e-06
-7.53302e-08
-1.19455e-06
-1.06399e-07
-1.17926e-06
-1.37217e-07
-1.16029e-06
-1.67542e-07
-1.13769e-06
-1.97121e-07
-1.11157e-06
-2.25698e-07
-1.08203e-06
-2.53011e-07
-1.04924e-06
-2.78799e-07
-1.01338e-06
-3.02805e-07
-9.74665e-07
-3.24779e-07
-9.33326e-07
-3.44483e-07
-8.89636e-07
-3.61691e-07
-8.43888e-07
-3.762e-07
-7.964e-07
-3.87828e-07
-7.47511e-07
-3.96421e-07
-6.97578e-07
-4.01855e-07
-6.46975e-07
-4.04042e-07
-5.96084e-07
-4.0293e-07
-5.45295e-07
-3.9851e-07
-4.95001e-07
-3.90814e-07
-4.4559e-07
-3.7992e-07
-3.97441e-07
-3.65954e-07
-3.50921e-07
-3.49086e-07
-3.06376e-07
-3.29536e-07
-2.64128e-07
-3.0757e-07
-2.24469e-07
-2.83503e-07
-1.87655e-07
-2.57692e-07
-1.53904e-07
-2.30541e-07
-1.23392e-07
-2.02496e-07
-9.6248e-08
-1.74043e-07
-7.25527e-08
-1.45708e-07
-5.23383e-08
-1.18053e-07
-3.55874e-08
-9.16762e-08
-2.22344e-08
-6.72089e-08
-1.21681e-08
-4.53154e-08
-5.2363e-09
-2.6688e-08
-1.2516e-09
-1.20432e-08
-2.1493e-09
-3.01945e-09
1.69458e-08
-1.15643e-08
5.20653e-08
-2.51589e-08
8.74851e-08
-4.33594e-08
1.22483e-07
-6.57503e-08
1.56495e-07
-9.19406e-08
1.89066e-07
-1.21562e-07
2.1984e-07
-1.54267e-07
2.48549e-07
-1.89724e-07
2.75002e-07
-2.2762e-07
2.99071e-07
-2.67655e-07
3.20683e-07
-3.09543e-07
3.39804e-07
-3.53008e-07
3.56437e-07
-3.97787e-07
3.70604e-07
-4.43627e-07
3.82349e-07
-4.90282e-07
3.91723e-07
-5.37514e-07
3.98784e-07
-5.85092e-07
4.03589e-07
-6.32791e-07
4.06195e-07
-6.80389e-07
4.06656e-07
-7.2767e-07
4.05017e-07
-7.74421e-07
4.01318e-07
-8.2043e-07
3.95596e-07
-8.65488e-07
3.87879e-07
-9.0939e-07
3.78191e-07
-9.51929e-07
3.66555e-07
-9.92902e-07
3.52991e-07
-1.03211e-06
3.37521e-07
-1.06935e-06
3.20169e-07
-1.10443e-06
3.00966e-07
-1.13715e-06
2.79948e-07
-1.16733e-06
2.57161e-07
-1.19479e-06
2.32663e-07
-1.21935e-06
2.06524e-07
-1.24084e-06
1.78829e-07
-1.2591e-06
1.49679e-07
-1.274e-06
1.19193e-07
-1.28539e-06
8.75052e-08
-1.29316e-06
5.47714e-08
-1.29721e-06
2.11645e-08
-1.29744e-06
-1.31238e-08
-1.2938e-06
-4.78838e-08
-1.28624e-06
-8.28886e-08
-1.27475e-06
-1.17895e-07
-1.25932e-06
-1.52646e-07
-1.23999e-06
-1.86872e-07
-1.21682e-06
-2.20294e-07
-1.18989e-06
-2.52623e-07
-1.15933e-06
-2.8357e-07
-1.12529e-06
-3.12843e-07
-1.08794e-06
-3.40153e-07
-1.0475e-06