/*--------------------------------*- C++ -*----------------------------------*\
  =========                 |
  \\      /  F ield         | OpenFOAM: The Open Source CFD Toolbox
   \\    /   O peration     | Website:  https://openfoam.org
    \\  /    A nd           | Version:  7
     \\/     M anipulation  |
\*---------------------------------------------------------------------------*/
FoamFile
{
    version     2.0;
    format      ascii;
    class       volVectorField;
    location    "2.75";
    object      U;
}
// * * * * * * * * * * * * * * * * * * * * * * * * * * * * * * * * * * * * * //

dimensions      [0 1 -1 0 0 0 0];

internalField   nonuniform List<vector> 
6400
(
(1.08407e-05 -1.04364e-05 0)
(7.15951e-05 -3.75731e-05 0)
(0.000183246 -4.90836e-05 0)
(0.000301772 -4.79165e-05 0)
(0.000402292 -3.99374e-05 0)
(0.000472596 -2.88752e-05 0)
(0.000506853 -1.68283e-05 0)
(0.000503064 -4.90251e-06 0)
(0.000461424 6.40519e-06 0)
(0.000383137 1.69586e-05 0)
(0.000269679 2.68222e-05 0)
(0.000122384 3.61557e-05 0)
(-5.77699e-05 4.51599e-05 0)
(-0.000270232 5.40322e-05 0)
(-0.000514861 6.29451e-05 0)
(-0.000791848 7.20345e-05 0)
(-0.0011016 8.13912e-05 0)
(-0.00144463 9.10595e-05 0)
(-0.00182138 0.000101038 0)
(-0.00223212 0.000111279 0)
(-0.00267682 0.000121696 0)
(-0.00315499 0.000132158 0)
(-0.00366562 0.000142503 0)
(-0.00420701 0.000152529 0)
(-0.00477675 0.000162007 0)
(-0.00537163 0.000170679 0)
(-0.00598754 0.000178262 0)
(-0.00661948 0.000184454 0)
(-0.00726152 0.000188943 0)
(-0.00790682 0.000191408 0)
(-0.00854764 0.000191534 0)
(-0.00917545 0.000189016 0)
(-0.00978096 0.000183579 0)
(-0.0103543 0.000174981 0)
(-0.0108852 0.000163036 0)
(-0.0113632 0.000147616 0)
(-0.0117777 0.000128675 0)
(-0.0121184 0.000106256 0)
(-0.0123757 8.05e-05 0)
(-0.0125406 5.16512e-05 0)
(-0.0126055 2.00808e-05 0)
(-0.0125638 -1.36346e-05 0)
(-0.012411 -4.90389e-05 0)
(-0.0121445 -8.54082e-05 0)
(-0.0117638 -0.000121939 0)
(-0.011271 -0.00015777 0)
(-0.0106706 -0.000192002 0)
(-0.00996954 -0.000223717 0)
(-0.00917744 -0.000252017 0)
(-0.00830624 -0.000276064 0)
(-0.00737003 -0.000295111 0)
(-0.00638477 -0.000308546 0)
(-0.00536782 -0.00031592 0)
(-0.0043375 -0.000316977 0)
(-0.00331257 -0.00031167 0)
(-0.0023116 -0.00030017 0)
(-0.00135245 -0.000282863 0)
(-0.000451576 -0.000260345 0)
(0.000376146 -0.000233449 0)
(0.00111821 -0.000202907 0)
(0.00176482 -0.0001698 0)
(0.00230882 -0.000135159 0)
(0.00274597 -9.99802e-05 0)
(0.00307489 -6.52135e-05 0)
(0.00329688 -3.17096e-05 0)
(0.00341566 -1.84241e-07 0)
(0.00343702 2.88e-05 0)
(0.00336847 5.48382e-05 0)
(0.00321882 7.76698e-05 0)
(0.00299787 9.71427e-05 0)
(0.00271621 0.000113159 0)
(0.00238512 0.000125588 0)
(0.00201679 0.000134144 0)
(0.0016248 0.000138216 0)
(0.00122504 0.000136646 0)
(0.000837073 0.000127489 0)
(0.000485606 0.000107907 0)
(0.000201088 7.43002e-05 0)
(1.90653e-05 2.50196e-05 0)
(-2.07981e-05 -2.09292e-05 0)
(3.85658e-05 -7.161e-05 0)
(0.00017634 -0.000174705 0)
(0.000388487 -0.000211474 0)
(0.000597753 -0.000196994 0)
(0.000757646 -0.000151004 0)
(0.000842276 -8.78486e-05 0)
(0.000836655 -1.68594e-05 0)
(0.000733479 5.63345e-05 0)
(0.000530504 0.000128695 0)
(0.000228275 0.000198909 0)
(-0.00017147 0.00026674 0)
(-0.000666785 0.000332558 0)
(-0.00125608 0.000397025 0)
(-0.00193838 0.000460869 0)
(-0.00271331 0.00052474 0)
(-0.00358096 0.000589118 0)
(-0.00454165 0.000654258 0)
(-0.00559564 0.000720162 0)
(-0.00674278 0.000786576 0)
(-0.00798221 0.000852987 0)
(-0.009312 0.000918642 0)
(-0.0107289 0.000982562 0)
(-0.012228 0.00104356 0)
(-0.0138026 0.00110028 0)
(-0.0154439 0.00115121 0)
(-0.0171411 0.00119471 0)
(-0.0188809 0.00122905 0)
(-0.0206479 0.00125249 0)
(-0.0224243 0.00126324 0)
(-0.0241904 0.00125961 0)
(-0.0259243 0.00123999 0)
(-0.0276025 0.00120295 0)
(-0.0292001 0.00114728 0)
(-0.0306914 0.00107208 0)
(-0.03205 0.000976808 0)
(-0.0332498 0.000861325 0)
(-0.0342651 0.000725971 0)
(-0.0350717 0.000571596 0)
(-0.0356472 0.000399589 0)
(-0.0359719 0.00021188 0)
(-0.0360294 1.09836e-05 0)
(-0.0358069 -0.000199772 0)
(-0.0352963 -0.000417062 0)
(-0.0344943 -0.000636841 0)
(-0.0334031 -0.000854689 0)
(-0.0320304 -0.00106595 0)
(-0.0303895 -0.00126583 0)
(-0.0284998 -0.00144957 0)
(-0.0263861 -0.00161257 0)
(-0.0240782 -0.00175058 0)
(-0.021611 -0.00185988 0)
(-0.019023 -0.00193741 0)
(-0.0163559 -0.00198093 0)
(-0.0136537 -0.00198917 0)
(-0.0109609 -0.00196187 0)
(-0.0083222 -0.00189985 0)
(-0.00578047 -0.00180498 0)
(-0.00337601 -0.00168017 0)
(-0.0011453 -0.00152929 0)
(0.000879971 -0.00135667 0)
(0.00267382 -0.00116737 0)
(0.0042165 -0.000966857 0)
(0.00549481 -0.000760497 0)
(0.00650214 -0.000553547 0)
(0.00723839 -0.000350899 0)
(0.00770951 -0.000156905 0)
(0.00792689 2.47323e-05 0)
(0.00790675 0.000191003 0)
(0.00766932 0.000339546 0)
(0.00723825 0.0004685 0)
(0.00664015 0.000576265 0)
(0.00590439 0.000661137 0)
(0.00506341 0.000720824 0)
(0.00415344 0.000751865 0)
(0.00321568 0.000748998 0)
(0.00229794 0.000704773 0)
(0.00145504 0.00060997 0)
(0.00074694 0.000455555 0)
(0.000242818 0.000241485 0)
(2.56562e-05 1.92666e-05 0)
(5.10026e-05 -0.000185692 0)
(0.000214432 -0.00038793 0)
(0.000442724 -0.000442282 0)
(0.000641723 -0.000387764 0)
(0.000755768 -0.000261826 0)
(0.000752822 -9.35334e-05 0)
(0.000612921 9.6724e-05 0)
(0.000325104 0.000295731 0)
(-0.00011532 0.000495782 0)
(-0.000709309 0.000693059 0)
(-0.00145599 0.000886305 0)
(-0.00235389 0.00107581 0)
(-0.00340164 0.00126265 0)
(-0.00459828 0.00144813 0)
(-0.0059433 0.0016334 0)
(-0.00743642 0.00181922 0)
(-0.00907725 0.0020058 0)
(-0.0108649 0.0021927 0)
(-0.0127975 0.00237883 0)
(-0.0148716 0.00256244 0)
(-0.0170821 0.00274115 0)
(-0.0194215 0.002912 0)
(-0.0218795 0.00307154 0)
(-0.024443 0.00321588 0)
(-0.0270959 0.00334081 0)
(-0.0298184 0.00344186 0)
(-0.0325878 0.00351447 0)
(-0.0353779 0.00355404 0)
(-0.0381596 0.00355614 0)
(-0.0409008 0.00351661 0)
(-0.0435674 0.0034317 0)
(-0.0461228 0.00329827 0)
(-0.0485297 0.00311391 0)
(-0.0507498 0.00287707 0)
(-0.0527449 0.00258725 0)
(-0.0544778 0.00224507 0)
(-0.055913 0.00185238 0)
(-0.0570178 0.00141233 0)
(-0.0577626 0.000929395 0)
(-0.0581226 0.000409381 0)
(-0.0580774 -0.000140622 0)
(-0.0576129 -0.000712082 0)
(-0.0567213 -0.00129565 0)
(-0.0554017 -0.00188099 0)
(-0.0536605 -0.002457 0)
(-0.0515116 -0.00301213 0)
(-0.0489766 -0.00353467 0)
(-0.0460845 -0.00401309 0)
(-0.0428717 -0.00443636 0)
(-0.0393811 -0.00479437 0)
(-0.0356616 -0.00507826 0)
(-0.0317674 -0.0052808 0)
(-0.0277564 -0.00539667 0)
(-0.0236896 -0.00542279 0)
(-0.0196292 -0.00535843 0)
(-0.0156371 -0.00520541 0)
(-0.0117739 -0.004968 0)
(-0.00809662 -0.00465292 0)
(-0.00465788 -0.00426903 0)
(-0.00150408 -0.00382702 0)
(0.00132541 -0.00333894 0)
(0.00379945 -0.00281787 0)
(0.00589569 -0.00227726 0)
(0.0076007 -0.0017304 0)
(0.00891013 -0.00118996 0)
(0.00982839 -0.000667557 0)
(0.0103681 -0.000173481 0)
(0.0105492 0.000283466 0)
(0.0103985 0.000695903 0)
(0.00994855 0.0010576 0)
(0.0092371 0.00136298 0)
(0.00830694 0.00160637 0)
(0.00720582 0.00178106 0)
(0.00598699 0.00187831 0)
(0.0047101 0.00188643 0)
(0.00344222 0.00179064 0)
(0.00225695 0.0015747 0)
(0.00123147 0.00122566 0)
(0.000460122 0.000746998 0)
(7.58998e-05 0.000203352 0)
(5.00963e-05 -0.000306933 0)
(0.000195966 -0.000595029 0)
(0.000372291 -0.000638663 0)
(0.000480778 -0.000508547 0)
(0.000463705 -0.000262408 0)
(0.000287497 5.49561e-05 0)
(-6.93016e-05 0.000411379 0)
(-0.000619165 0.000785471 0)
(-0.0013682 0.00116429 0)
(-0.00231868 0.00154103 0)
(-0.00347088 0.00191302 0)
(-0.0048242 0.00228015 0)
(-0.00637786 0.00264363 0)
(-0.00813119 0.00300503 0)
(-0.0100835 0.00336568 0)
(-0.0122339 0.0037262 0)
(-0.0145807 0.00408621 0)
(-0.0171212 0.00444422 0)
(-0.0198507 0.00479754 0)
(-0.0227623 0.00514231 0)
(-0.0258464 0.00547359 0)
(-0.02909 0.00578543 0)
(-0.0324764 0.00607106 0)
(-0.0359851 0.00632299 0)
(-0.0395914 0.00653328 0)
(-0.0432668 0.0066937 0)
(-0.0469783 0.00679596 0)
(-0.0506897 0.00683199 0)
(-0.0543609 0.00679415 0)
(-0.0579492 0.00667554 0)
(-0.0614096 0.00647025 0)
(-0.0646954 0.00617362 0)
(-0.0677593 0.00578248 0)
(-0.0705542 0.00529537 0)
(-0.0730341 0.00471276 0)
(-0.0751548 0.00403718 0)
(-0.0768754 0.0032733 0)
(-0.0781589 0.00242806 0)
(-0.0789731 0.00151063 0)
(-0.0792916 0.0005323 0)
(-0.0790941 -0.000493599 0)
(-0.0783676 -0.00155173 0)
(-0.0771068 -0.00262512 0)
(-0.0753143 -0.00369553 0)
(-0.0730011 -0.0047437 0)
(-0.0701867 -0.00574981 0)
(-0.0668989 -0.00669392 0)
(-0.0631739 -0.00755655 0)
(-0.059056 -0.00831917 0)
(-0.0545965 -0.00896479 0)
(-0.0498536 -0.00947855 0)
(-0.0448912 -0.00984826 0)
(-0.0397777 -0.0100649 0)
(-0.0345849 -0.010123 0)
(-0.0293865 -0.0100212 0)
(-0.0242562 -0.0097619 0)
(-0.0192668 -0.00935204 0)
(-0.0144875 -0.00880237 0)
(-0.00998312 -0.00812743 0)
(-0.00581197 -0.00734497 0)
(-0.00202466 -0.00647541 0)
(0.00133713 -0.00554087 0)
(0.00424169 -0.00456465 0)
(0.00666776 -0.00357014 0)
(0.00860481 -0.00258002 0)
(0.0100531 -0.0016156 0)
(0.011023 -0.000696231 0)
(0.011535 0.00016097 0)
(0.0116181 0.000941128 0)
(0.0113098 0.00163128 0)
(0.0106549 0.00221965 0)
(0.00970527 0.00269459 0)
(0.0085193 0.00304332 0)
(0.00716233 0.00325055 0)
(0.00570695 0.00329741 0)
(0.00423357 0.00316155 0)
(0.00282903 0.00281944 0)
(0.00158401 0.00225222 0)
(0.000616669 0.00145893 0)
(0.00011022 0.000491912 0)
(4.06792e-05 -0.000406534 0)
(0.000135944 -0.000738721 0)
(0.000203561 -0.00072809 0)
(0.000153776 -0.000478868 0)
(-6.69982e-05 -6.98567e-05 0)
(-0.000490476 0.000438716 0)
(-0.00113679 0.0010035 0)
(-0.00201791 0.00159552 0)
(-0.00314021 0.00219695 0)
(-0.00450672 0.00279811 0)
(-0.00611865 0.00339487 0)
(-0.00797632 0.00398652 0)
(-0.0100796 0.00457403 0)
(-0.0124281 0.00515883 0)
(-0.0150209 0.00574183 0)
(-0.017856 0.00632287 0)
(-0.02093 0.00690025 0)
(-0.0242375 0.00747058 0)
(-0.0277704 0.00802869 0)
(-0.0315174 0.0085677 0)
(-0.0354632 0.00907911 0)
(-0.0395885 0.00955305 0)
(-0.0438693 0.00997849 0)
(-0.0482772 0.0103435 0)
(-0.0527787 0.0106358 0)
(-0.0573359 0.0108427 0)
(-0.0619066 0.0109518 0)
(-0.0664448 0.0109514 0)
(-0.0709011 0.0108308 0)
(-0.0752238 0.0105806 0)
(-0.0793592 0.0101932 0)
(-0.0832532 0.00966313 0)
(-0.0868518 0.00898748 0)
(-0.0901023 0.00816594 0)
(-0.0929542 0.00720113 0)
(-0.0953602 0.00609874 0)
(-0.0972773 0.0048676 0)
(-0.0986677 0.00351965 0)
(-0.0994993 0.00206995 0)
(-0.0997466 0.000536417 0)
(-0.0993913 -0.00106054 0)
(-0.0984225 -0.00269764 0)
(-0.096838 -0.00434972 0)
(-0.0946436 -0.00599001 0)
(-0.0918541 -0.00759059 0)
(-0.0884925 -0.00912292 0)
(-0.0845908 -0.0105585 0)
(-0.0801893 -0.0118695 0)
(-0.0753368 -0.0130295 0)
(-0.0700892 -0.0140144 0)
(-0.06451 -0.0148028 0)
(-0.0586685 -0.0153771 0)
(-0.0526393 -0.0157241 0)
(-0.046501 -0.0158355 0)
(-0.0403345 -0.0157085 0)
(-0.0342219 -0.0153459 0)
(-0.0282446 -0.0147565 0)
(-0.0224813 -0.013955 0)
(-0.0170065 -0.0129612 0)
(-0.0118889 -0.0118001 0)
(-0.00718924 -0.0105006 0)
(-0.00295911 -0.00909451 0)
(0.000760197 -0.00761584 0)
(0.00393875 -0.0060992 0)
(0.00655853 -0.00457876 0)
(0.00861362 -0.00308724 0)
(0.0101102 -0.001655 0)
(0.0110659 -0.000309556 0)
(0.0115096 0.000924568 0)
(0.0114803 0.00202554 0)
(0.0110264 0.00297336 0)
(0.0102051 0.0037487 0)
(0.00908213 0.00433129 0)
(0.00773089 0.00469831 0)
(0.00623309 0.00482321 0)
(0.00467895 0.00467563 0)
(0.00316574 0.00422351 0)
(0.0017963 0.00343838 0)
(0.000709884 0.00230575 0)
(0.000129521 0.000847981 0)
(2.57016e-05 -0.000465918 0)
(4.50546e-05 -0.000777329 0)
(-4.28014e-05 -0.000655646 0)
(-0.000308163 -0.000236063 0)
(-0.00079477 0.000382372 0)
(-0.00152944 0.00112521 0)
(-0.00252857 0.00193935 0)
(-0.00380184 0.00278942 0)
(-0.00535472 0.00365361 0)
(-0.00719028 0.00451996 0)
(-0.0093103 0.00538308 0)
(-0.0117158 0.00624158 0)
(-0.0144072 0.00709588 0)
(-0.0173841 0.00794672 0)
(-0.020645 0.00879394 0)
(-0.0241865 0.00963574 0)
(-0.028003 0.0104682 0)
(-0.0320857 0.0112852 0)
(-0.0364223 0.012078 0)
(-0.0409961 0.0128357 0)
(-0.0457858 0.0135454 0)
(-0.0507651 0.0141924 0)
(-0.0559021 0.0147606 0)
(-0.0611602 0.0152333 0)
(-0.0664974 0.0155931 0)
(-0.0718671 0.0158228 0)
(-0.0772184 0.0159061 0)
(-0.082497 0.0158279 0)
(-0.0876459 0.0155746 0)
(-0.0926066 0.0151353 0)
(-0.0973195 0.0145016 0)
(-0.101726 0.0136684 0)
(-0.105767 0.0126339 0)
(-0.109389 0.0114003 0)
(-0.112539 0.00997343 0)
(-0.11517 0.00836339 0)
(-0.117238 0.00658409 0)
(-0.118708 0.00465341 0)
(-0.119549 0.00259304 0)
(-0.119738 0.000428045 0)
(-0.119258 -0.00181404 0)
(-0.1181 -0.00410135 0)
(-0.116266 -0.00640049 0)
(-0.113761 -0.00867621 0)
(-0.110604 -0.010892 0)
(-0.106818 -0.0130106 0)
(-0.102437 -0.0149949 0)
(-0.0975024 -0.0168089 0)
(-0.0920643 -0.0184181 0)
(-0.0861804 -0.0197909 0)
(-0.079916 -0.020899 0)
(-0.073343 -0.0217191 0)
(-0.066539 -0.0222329 0)
(-0.0595867 -0.0224286 0)
(-0.0525721 -0.0223011 0)
(-0.045583 -0.0218527 0)
(-0.0387079 -0.0210936 0)
(-0.0320333 -0.0200412 0)
(-0.0256427 -0.0187204 0)
(-0.0196138 -0.0171627 0)
(-0.0140175 -0.0154054 0)
(-0.00891521 -0.0134903 0)
(-0.0043582 -0.0114624 0)
(-0.000385761 -0.00936825 0)
(0.00297546 -0.00725462 0)
(0.00571206 -0.00516697 0)
(0.00782408 -0.00314833 0)
(0.00932481 -0.0012384 0)
(0.0102403 0.000526724 0)
(0.0106088 0.00211435 0)
(0.0104798 0.00349448 0)
(0.00991323 0.00463841 0)
(0.00897904 0.005517 0)
(0.00775628 0.00609891 0)
(0.00633318 0.00634902 0)
(0.00480748 0.00622795 0)
(0.00328525 0.00569328 0)
(0.00188011 0.00470326 0)
(0.000747835 0.00322353 0)
(0.00013706 0.00123848 0)
(6.81401e-06 -0.000471217 0)
(-6.98623e-05 -0.000676933 0)
(-0.000351767 -0.000374395 0)
(-0.000880749 0.00027425 0)
(-0.00168614 0.00115222 0)
(-0.0027868 0.00217323 0)
(-0.00419317 0.00327659 0)
(-0.00591105 0.0044223 0)
(-0.00794392 0.00558597 0)
(-0.0102942 0.00675421 0)
(-0.0129637 0.00792085 0)
(-0.0159539 0.00908382 0)
(-0.0192653 0.0102427 0)
(-0.0228973 0.0113969 0)
(-0.0268474 0.0125445 0)
(-0.0311103 0.0136811 0)
(-0.0356776 0.0147997 0)
(-0.0405366 0.0158902 0)
(-0.04567 0.0169393 0)
(-0.0510554 0.0179315 0)
(-0.0566648 0.0188483 0)
(-0.0624645 0.0196696 0)
(-0.0684152 0.0203739 0)
(-0.074472 0.0209391 0)
(-0.080585 0.0213429 0)
(-0.0866999 0.0215639 0)
(-0.0927587 0.0215821 0)
(-0.0987006 0.0213795 0)
(-0.104463 0.020941 0)
(-0.109983 0.0202549 0)
(-0.115198 0.0193131 0)
(-0.120046 0.018112 0)
(-0.124469 0.0166523 0)
(-0.128411 0.0149395 0)
(-0.131822 0.0129839 0)
(-0.134654 0.0108005 0)
(-0.136868 0.00840903 0)
(-0.138428 0.00583356 0)
(-0.139307 0.00310262 0)
(-0.139483 0.000248478 0)
(-0.138941 -0.00269462 0)
(-0.137673 -0.00568623 0)
(-0.135681 -0.0086852 0)
(-0.132971 -0.0116483 0)
(-0.129561 -0.0145306 0)
(-0.125473 -0.0172868 0)
(-0.12074 -0.0198712 0)
(-0.115403 -0.0222396 0)
(-0.109509 -0.0243493 0)
(-0.103116 -0.0261608 0)
(-0.096288 -0.0276388 0)
(-0.0890977 -0.028753 0)
(-0.0816239 -0.0294795 0)
(-0.0739514 -0.0298018 0)
(-0.0661697 -0.0297117 0)
(-0.0583714 -0.0292096 0)
(-0.050651 -0.0283058 0)
(-0.0431025 -0.0270197 0)
(-0.0358177 -0.0253801 0)
(-0.0288838 -0.0234246 0)
(-0.0223817 -0.0211984 0)
(-0.0163834 -0.0187529 0)
(-0.0109506 -0.0161444 0)
(-0.0061329 -0.013432 0)
(-0.00196651 -0.0106758 0)
(0.00152647 -0.00793519 0)
(0.00433864 -0.00526724 0)
(0.00647734 -0.0027255 0)
(0.00796433 -0.000359365 0)
(0.00883524 0.00178588 0)
(0.00913879 0.00366845 0)
(0.00893582 0.00524868 0)
(0.00829853 0.00648721 0)
(0.00730966 0.00734293 0)
(0.00606231 0.00777106 0)
(0.00466022 0.00772194 0)
(0.00321677 0.00714108 0)
(0.00185467 0.00597086 0)
(0.000740801 0.00415399 0)
(0.000135838 0.00163598 0)
(-1.52188e-05 -0.000411493 0)
(-0.000204136 -0.000409529 0)
(-0.000712012 0.000155315 0)
(-0.00154517 0.00109843 0)
(-0.00271402 0.00228926 0)
(-0.00422684 0.00363304 0)
(-0.00608621 0.00506434 0)
(-0.00829264 0.00654091 0)
(-0.0108466 0.00803751 0)
(-0.0137493 0.0095405 0)
(-0.017002 0.0110435 0)
(-0.0206061 0.0125439 0)
(-0.024562 0.01404 0)
(-0.0288684 0.0155296 0)
(-0.0335213 0.0170077 0)
(-0.038513 0.0184667 0)
(-0.0438317 0.0198953 0)
(-0.0494603 0.0212784 0)
(-0.0553762 0.0225976 0)
(-0.0615508 0.0238313 0)
(-0.0679493 0.0249553 0)
(-0.0745308 0.0259436 0)
(-0.0812487 0.0267689 0)
(-0.0880509 0.0274039 0)
(-0.0948805 0.0278219 0)
(-0.101677 0.0279974 0)
(-0.108377 0.0279078 0)
(-0.114916 0.0275334 0)
(-0.121227 0.0268584 0)
(-0.127246 0.0258715 0)
(-0.132908 0.0245662 0)
(-0.138153 0.0229413 0)
(-0.142923 0.0210012 0)
(-0.147165 0.0187553 0)
(-0.150828 0.0162189 0)
(-0.15387 0.0134124 0)
(-0.156252 0.0103611 0)
(-0.157941 0.00709524 0)
(-0.158911 0.0036494 0)
(-0.159143 6.24424e-05 0)
(-0.15862 -0.00362148 0)
(-0.157335 -0.00735828 0)
(-0.155286 -0.0110991 0)
(-0.152481 -0.014793 0)
(-0.148933 -0.0183873 0)
(-0.144661 -0.0218286 0)
(-0.139696 -0.0250633 0)
(-0.134072 -0.0280386 0)
(-0.127836 -0.0307036 0)
(-0.121042 -0.0330107 0)
(-0.113751 -0.0349163 0)
(-0.106034 -0.0363827 0)
(-0.0979708 -0.037379 0)
(-0.089646 -0.0378829 0)
(-0.0811519 -0.0378812 0)
(-0.0725855 -0.0373716 0)
(-0.0640468 -0.0363626 0)
(-0.0556372 -0.0348744 0)
(-0.0474571 -0.0329388 0)
(-0.0396037 -0.0305983 0)
(-0.0321684 -0.0279052 0)
(-0.0252348 -0.0249206 0)
(-0.0188759 -0.021712 0)
(-0.0131528 -0.0183513 0)
(-0.00811253 -0.0149129 0)
(-0.00378689 -0.011471 0)
(-0.000191997 -0.00809818 0)
(0.00267231 -0.00486321 0)
(0.00482222 -0.00183051 0)
(0.00628951 0.000940356 0)
(0.00712071 0.00339412 0)
(0.00737621 0.00547861 0)
(0.00712923 0.00714278 0)
(0.00646496 0.00833448 0)
(0.00548014 0.00899805 0)
(0.00428333 0.00907236 0)
(0.00299385 0.00848956 0)
(0.00174145 0.00717506 0)
(0.00069912 0.00504831 0)
(0.000128405 0.00201929 0)
(-3.98924e-05 -0.000277705 0)
(-0.000354607 4.82829e-05 0)
(-0.00111509 0.000966376 0)
(-0.00228615 0.00227509 0)
(-0.00385544 0.0038348 0)
(-0.00581841 0.00554638 0)
(-0.00816806 0.00734317 0)
(-0.0108984 0.00918352 0)
(-0.0140061 0.0110434 0)
(-0.0174904 0.0129104 0)
(-0.0213517 0.0147784 0)
(-0.0255908 0.0166446 0)
(-0.0302077 0.0185058 0)
(-0.0351996 0.020357 0)
(-0.0405608 0.0221899 0)
(-0.0462806 0.0239924 0)
(-0.0523433 0.0257478 0)
(-0.0587271 0.0274354 0)
(-0.0654036 0.0290305 0)
(-0.0723381 0.0305052 0)
(-0.0794892 0.031829 0)
(-0.0868094 0.0329696 0)
(-0.0942453 0.0338946 0)
(-0.101739 0.0345715 0)
(-0.109228 0.0349698 0)
(-0.116647 0.0350613 0)
(-0.123931 0.0348215 0)
(-0.13101 0.0342301 0)
(-0.137819 0.0332719 0)
(-0.144292 0.0319372 0)
(-0.150367 0.030222 0)
(-0.155985 0.0281286 0)
(-0.16109 0.0256653 0)
(-0.165631 0.0228463 0)
(-0.169562 0.0196916 0)
(-0.172842 0.0162269 0)
(-0.175434 0.012483 0)
(-0.177308 0.00849567 0)
(-0.178438 0.00430487 0)
(-0.178801 -4.46181e-05 0)
(-0.178385 -0.00450133 0)
(-0.177178 -0.0090167 0)
(-0.175177 -0.0135352 0)
(-0.172384 -0.0179989 0)
(-0.168807 -0.0223481 0)
(-0.164462 -0.0265217 0)
(-0.159372 -0.0304584 0)
(-0.15357 -0.034097 0)
(-0.147094 -0.037378 0)
(-0.139993 -0.0402447 0)
(-0.132327 -0.0426449 0)
(-0.124162 -0.044532 0)
(-0.115575 -0.045867 0)
(-0.106653 -0.04662 0)
(-0.0974879 -0.0467715 0)
(-0.0881813 -0.0463141 0)
(-0.0788382 -0.0452534 0)
(-0.0695674 -0.0436086 0)
(-0.0604784 -0.0414128 0)
(-0.0516789 -0.0387122 0)
(-0.0432721 -0.035566 0)
(-0.0353541 -0.0320439 0)
(-0.0280109 -0.0282247 0)
(-0.0213161 -0.0241937 0)
(-0.015329 -0.02004 0)
(-0.0100927 -0.015854 0)
(-0.00563326 -0.0117249 0)
(-0.00195897 -0.00773833 0)
(0.000939652 -0.00397541 0)
(0.00308942 -0.000511723 0)
(0.00453373 0.00258232 0)
(0.00533155 0.0052404 0)
(0.00555624 0.00739832 0)
(0.00529459 0.00899156 0)
(0.00464618 0.00995241 0)
(0.00372337 0.0102073 0)
(0.00265016 0.00967435 0)
(0.00156145 0.00826205 0)
(0.000632236 0.00586822 0)
(0.000116844 0.00237289 0)
(-6.68818e-05 -6.21489e-05 0)
(-0.000518868 0.00071595 0)
(-0.00155403 0.00208611 0)
(-0.00309049 0.00383604 0)
(-0.00508995 0.00582245 0)
(-0.0075331 0.00794672 0)
(-0.0104019 0.0101451 0)
(-0.0136829 0.0123798 0)
(-0.0173684 0.0146303 0)
(-0.0214549 0.0168869 0)
(-0.0259416 0.0191448 0)
(-0.0308285 0.0214006 0)
(-0.0361141 0.0236496 0)
(-0.0417944 0.0258834 0)
(-0.0478609 0.0280894 0)
(-0.0542997 0.0302499 0)
(-0.0610909 0.0323423 0)
(-0.0682074 0.0343392 0)
(-0.0756156 0.0362091 0)
(-0.0832744 0.0379173 0)
(-0.0911365 0.039427 0)
(-0.0991485 0.0407 0)
(-0.107252 0.0416987 0)
(-0.115383 0.0423868 0)
(-0.123477 0.0427306 0)
(-0.131466 0.0427003 0)
(-0.139281 0.0422707 0)
(-0.146855 0.0414222 0)
(-0.154123 0.0401412 0)
(-0.16102 0.0384205 0)
(-0.167487 0.0362596 0)
(-0.173467 0.0336646 0)
(-0.178909 0.0306481 0)
(-0.183763 0.0272288 0)
(-0.187988 0.0234315 0)
(-0.191544 0.0192865 0)
(-0.194396 0.0148295 0)
(-0.196515 0.0101008 0)
(-0.197873 0.00514573 0)
(-0.198447 1.37251e-05 0)
(-0.198222 -0.00524181 0)
(-0.197185 -0.0105637 0)
(-0.195326 -0.0158913 0)
(-0.192643 -0.0211612 0)
(-0.189139 -0.026307 0)
(-0.184822 -0.0312609 0)
(-0.17971 -0.0359536 0)
(-0.173828 -0.0403155 0)
(-0.167207 -0.0442784 0)
(-0.159891 -0.0477761 0)
(-0.151932 -0.0507463 0)
(-0.143394 -0.0531328 0)
(-0.134349 -0.0548867 0)
(-0.124883 -0.0559688 0)
(-0.115088 -0.0563513 0)
(-0.105069 -0.0560199 0)
(-0.0949343 -0.054975 0)
(-0.084801 -0.0532327 0)
(-0.0747876 -0.0508257 0)
(-0.065013 -0.0478027 0)
(-0.0555933 -0.0442279 0)
(-0.0466384 -0.0401797 0)
(-0.0382489 -0.0357477 0)
(-0.0305128 -0.0310308 0)
(-0.0235036 -0.0261339 0)
(-0.0172773 -0.0211645 0)
(-0.0118715 -0.0162298 0)
(-0.00730459 -0.0114342 0)
(-0.00357498 -0.00687728 0)
(-0.000661893 -0.00265245 0)
(0.00147402 0.00115292 0)
(0.00288952 0.00445663 0)
(0.00365751 0.00717984 0)
(0.00386579 0.00924427 0)
(0.00361616 0.0105691 0)
(0.00302406 0.0110676 0)
(0.00221708 0.0106438 0)
(0.00133381 0.00919011 0)
(0.000548385 0.00658541 0)
(0.000102839 0.00268614 0)
(-9.59205e-05 0.000241827 0)
(-0.000694763 0.00160962 0)
(-0.00202244 0.00353672 0)
(-0.00394592 0.00580655 0)
(-0.00639831 0.00827834 0)
(-0.0093439 0.0108595 0)
(-0.0127525 0.0134937 0)
(-0.0166024 0.0161507 0)
(-0.0208809 0.0188161 0)
(-0.0255815 0.0214844 0)
(-0.0307019 0.0241528 0)
(-0.0362403 0.0268179 0)
(-0.0421941 0.0294725 0)
(-0.0485568 0.0321045 0)
(-0.0553172 0.0346959 0)
(-0.0624578 0.0372229 0)
(-0.0699538 0.039656 0)
(-0.0777735 0.0419604 0)
(-0.0858775 0.0440978 0)
(-0.0942194 0.0460264 0)
(-0.102747 0.0477031 0)
(-0.111401 0.0490847 0)
(-0.120119 0.050129 0)
(-0.128835 0.0507967 0)
(-0.137482 0.0510522 0)
(-0.145991 0.0508652 0)
(-0.154294 0.0502111 0)
(-0.162325 0.0490719 0)
(-0.17002 0.0474366 0)
(-0.177319 0.0453014 0)
(-0.184164 0.0426693 0)
(-0.190505 0.0395507 0)
(-0.19629 0.0359621 0)
(-0.201476 0.0319267 0)
(-0.206022 0.0274732 0)
(-0.209891 0.022636 0)
(-0.213048 0.0174545 0)
(-0.215464 0.011973 0)
(-0.217111 0.00624062 0)
(-0.217964 0.000310417 0)
(-0.218004 -0.00576114 0)
(-0.217215 -0.0119116 0)
(-0.215582 -0.0180758 0)
(-0.213097 -0.0241851 0)
(-0.209756 -0.0301677 0)
(-0.205562 -0.0359488 0)
(-0.200524 -0.0414519 0)
(-0.194657 -0.0465993 0)
(-0.187986 -0.0513134 0)
(-0.180547 -0.0555182 0)
(-0.172384 -0.0591408 0)
(-0.163554 -0.0621137 0)
(-0.154126 -0.0643768 0)
(-0.144179 -0.0658797 0)
(-0.133806 -0.0665841 0)
(-0.123112 -0.0664664 0)
(-0.11221 -0.0655192 0)
(-0.101223 -0.0637533 0)
(-0.0902781 -0.0611985 0)
(-0.0795062 -0.0579041 0)
(-0.0690371 -0.053938 0)
(-0.058996 -0.0493856 0)
(-0.0494998 -0.0443474 0)
(-0.0406534 -0.0389361 0)
(-0.0325463 -0.0332727 0)
(-0.0252501 -0.0274833 0)
(-0.0188161 -0.0216949 0)
(-0.0132744 -0.0160325 0)
(-0.00863323 -0.010616 0)
(-0.00487901 -0.00555903 0)
(-0.00197753 -0.000967797 0)
(0.000125039 0.00305776 0)
(0.00150058 0.00642244 0)
(0.00223746 0.0090329 0)
(0.00243928 0.0107942 0)
(0.00222402 0.0116059 0)
(0.00172218 0.0113581 0)
(0.00107509 0.00992856 0)
(0.000454505 0.00718036 0)
(8.77441e-05 0.00295243 0)
(-0.000126754 0.000639802 0)
(-0.000880158 0.00274231 0)
(-0.00251401 0.00533544 0)
(-0.0048404 0.00820558 0)
(-0.00776157 0.0112213 0)
(-0.0112242 0.0143021 0)
(-0.0151851 0.0174043 0)
(-0.0196137 0.0205087 0)
(-0.0244918 0.0236101 0)
(-0.02981 0.0267085 0)
(-0.0355633 0.0298043 0)
(-0.0417488 0.0328936 0)
(-0.0483613 0.0359668 0)
(-0.0553922 0.0390072 0)
(-0.0628267 0.0419909 0)
(-0.0706435 0.0448869 0)
(-0.0788134 0.0476583 0)
(-0.0872995 0.050263 0)
(-0.0960576 0.052655 0)
(-0.105036 0.0547863 0)
(-0.114179 0.0566079 0)
(-0.123423 0.0580719 0)
(-0.132703 0.0591329 0)
(-0.141953 0.0597495 0)
(-0.151102 0.0598857 0)
(-0.160085 0.0595114 0)
(-0.168834 0.0586037 0)
(-0.177287 0.0571474 0)
(-0.185381 0.0551344 0)
(-0.193062 0.0525647 0)
(-0.200275 0.0494452 0)
(-0.206971 0.04579 0)
(-0.213105 0.0416196 0)
(-0.218634 0.0369608 0)
(-0.22352 0.0318458 0)
(-0.227727 0.0263121 0)
(-0.231221 0.0204021 0)
(-0.233973 0.014163 0)
(-0.235953 0.00764647 0)
(-0.237136 0.000908577 0)
(-0.237498 -0.00599092 0)
(-0.237019 -0.0129866 0)
(-0.23568 -0.0200098 0)
(-0.233468 -0.0269873 0)
(-0.230373 -0.0338422 0)
(-0.226388 -0.0404942 0)
(-0.221514 -0.0468597 0)
(-0.215759 -0.0528531 0)
(-0.209138 -0.0583879 0)
(-0.201676 -0.0633778 0)
(-0.193408 -0.0677387 0)
(-0.184383 -0.0713909 0)
(-0.174662 -0.0742616 0)
(-0.164318 -0.0762872 0)
(-0.15344 -0.0774167 0)
(-0.142131 -0.0776144 0)
(-0.130507 -0.0768623 0)
(-0.118694 -0.0751628 0)
(-0.106829 -0.0725401 0)
(-0.0950532 -0.069041 0)
(-0.0835112 -0.0647352 0)
(-0.0723447 -0.0597138 0)
(-0.0616889 -0.054087 0)
(-0.0516677 -0.0479809 0)
(-0.0423898 -0.0415338 0)
(-0.0339449 -0.0348914 0)
(-0.0264009 -0.0282023 0)
(-0.0198022 -0.0216143 0)
(-0.014169 -0.0152702 0)
(-0.00949693 -0.00930607 0)
(-0.00575807 -0.00384952 0)
(-0.00290253 0.000979674 0)
(-0.000860125 0.00506809 0)
(0.000457693 0.00830583 0)
(0.00115603 0.0105828 0)
(0.00135514 0.0117845 0)
(0.00118814 0.0117874 0)
(0.000798812 0.0104563 0)
(0.000356167 0.00764103 0)
(7.26124e-05 0.00316852 0)
(-0.000159029 0.00113622 0)
(-0.00107269 0.00412379 0)
(-0.00302214 0.00749454 0)
(-0.00576152 0.0110458 0)
(-0.00916051 0.0146629 0)
(-0.0131472 0.0182841 0)
(-0.0176649 0.0218837 0)
(-0.0226737 0.0254579 0)
(-0.0281499 0.0290129 0)
(-0.0340802 0.0325565 0)
(-0.0404577 0.0360922 0)
(-0.0472769 0.0396164 0)
(-0.0545306 0.0431164 0)
(-0.062207 0.0465704 0)
(-0.0702881 0.0499476 0)
(-0.0787481 0.0532098 0)
(-0.0875536 0.056312 0)
(-0.0966632 0.0592045 0)
(-0.106028 0.0618343 0)
(-0.115593 0.064147 0)
(-0.125297 0.0660889 0)
(-0.135077 0.0676084 0)
(-0.144866 0.0686577 0)
(-0.154595 0.0691946 0)
(-0.164198 0.0691835 0)
(-0.173609 0.0685959 0)
(-0.182763 0.0674114 0)
(-0.191601 0.0656177 0)
(-0.200066 0.0632105 0)
(-0.208103 0.0601934 0)
(-0.215665 0.056577 0)
(-0.222705 0.0523792 0)
(-0.229179 0.0476237 0)
(-0.235049 0.0423404 0)
(-0.240278 0.0365643 0)
(-0.24483 0.0303354 0)
(-0.248674 0.0236983 0)
(-0.251779 0.0167024 0)
(-0.254116 0.00940121 0)
(-0.255657 0.0018528 0)
(-0.256377 -0.00588058 0)
(-0.256253 -0.0137316 0)
(-0.255262 -0.0216287 0)
(-0.253385 -0.0294954 0)
(-0.250606 -0.037251 0)
(-0.24691 -0.0448101 0)
(-0.242291 -0.0520833 0)
(-0.236746 -0.0589778 0)
(-0.23028 -0.0653985 0)
(-0.222906 -0.0712491 0)
(-0.214649 -0.0764342 0)
(-0.205546 -0.0808611 0)
(-0.195645 -0.084443 0)
(-0.185014 -0.0871014 0)
(-0.173732 -0.0887703 0)
(-0.161898 -0.0893987 0)
(-0.149626 -0.088955 0)
(-0.137046 -0.0874295 0)
(-0.124299 -0.0848371 0)
(-0.111538 -0.081219 0)
(-0.0989215 -0.0766434 0)
(-0.0866083 -0.0712046 0)
(-0.0747537 -0.0650209 0)
(-0.0635033 -0.0582315 0)
(-0.0529879 -0.0509919 0)
(-0.0433188 -0.0434686 0)
(-0.0345843 -0.0358341 0)
(-0.0268464 -0.0282612 0)
(-0.0201402 -0.0209185 0)
(-0.0144728 -0.0139676 0)
(-0.00982482 -0.00756027 0)
(-0.00615156 -0.00183875 0)
(-0.00338539 0.00306313 0)
(-0.00143809 0.00701722 0)
(-0.000203276 0.00989713 0)
(0.000441537 0.0115737 0)
(0.000632178 0.0119103 0)
(0.000515172 0.0107596 0)
(0.000257521 0.0079612 0)
(5.82104e-05 0.00333374 0)
(-0.000192334 0.00173432 0)
(-0.00126976 0.00576049 0)
(-0.00353979 0.0100212 0)
(-0.00669638 0.0143335 0)
(-0.0105754 0.0186075 0)
(-0.0150857 0.0228074 0)
(-0.0201568 0.026931 0)
(-0.0257394 0.030994 0)
(-0.0318038 0.035017 0)
(-0.0383331 0.0390168 0)
(-0.0453176 0.0430014 0)
(-0.0527494 0.0469668 0)
(-0.0606185 0.0508972 0)
(-0.0689101 0.0547649 0)
(-0.0776023 0.0585321 0)
(-0.0866656 0.0621524 0)
(-0.096062 0.0655731 0)
(-0.105746 0.0687368 0)
(-0.115665 0.071584 0)
(-0.125761 0.0740547 0)
(-0.135971 0.0760911 0)
(-0.14623 0.0776389 0)
(-0.15647 0.0786493 0)
(-0.166625 0.0790802 0)
(-0.176629 0.0788972 0)
(-0.186419 0.0780743 0)
(-0.195933 0.0765942 0)
(-0.205116 0.0744478 0)
(-0.213913 0.0716347 0)
(-0.222274 0.0681619 0)
(-0.230154 0.0640439 0)
(-0.237509 0.0593014 0)
(-0.2443 0.0539614 0)
(-0.250489 0.0480563 0)
(-0.256041 0.0416234 0)
(-0.260924 0.0347047 0)
(-0.265106 0.0273467 0)
(-0.268558 0.0196001 0)
(-0.271251 0.01152 0)
(-0.273158 0.00316553 0)
(-0.274252 -0.00539954 0)
(-0.274508 -0.0141067 0)
(-0.273901 -0.0228827 0)
(-0.272407 -0.031649 0)
(-0.270005 -0.0403223 0)
(-0.266673 -0.0488135 0)
(-0.262397 -0.0570286 0)
(-0.257162 -0.0648691 0)
(-0.250963 -0.0722321 0)
(-0.2438 -0.0790121 0)
(-0.235686 -0.0851026 0)
(-0.22664 -0.0903978 0)
(-0.216701 -0.094796 0)
(-0.205921 -0.0982025 0)
(-0.194369 -0.100534 0)
(-0.182135 -0.101721 0)
(-0.169327 -0.101714 0)
(-0.156074 -0.100489 0)
(-0.14252 -0.0980459 0)
(-0.128826 -0.0944162 0)
(-0.115163 -0.0896624 0)
(-0.101708 -0.0838785 0)
(-0.0886365 -0.0771886 0)
(-0.0761187 -0.0697431 0)
(-0.0643107 -0.0617144 0)
(-0.0533495 -0.0532912 0)
(-0.0433476 -0.0446711 0)
(-0.0343892 -0.036055 0)
(-0.0265281 -0.0276408 0)
(-0.0197865 -0.0196188 0)
(-0.014156 -0.0121686 0)
(-0.00959917 -0.0054581 0)
(-0.00605229 0.000355756 0)
(-0.00342818 0.0051244 0)
(-0.00161941 0.00870368 0)
(-0.000501152 0.0109491 0)
(6.55805e-05 0.0117109 0)
(0.000230895 0.0108306 0)
(0.00016128 0.0081389 0)
(4.5024e-05 0.00344921 0)
(-0.000226187 0.00243592 0)
(-0.00146849 0.0076552 0)
(-0.00405945 0.0129174 0)
(-0.00763147 0.0180686 0)
(-0.0119859 0.0230525 0)
(-0.0170122 0.0278663 0)
(-0.0226258 0.0325373 0)
(-0.0287679 0.0371048 0)
(-0.0354029 0.0416067 0)
(-0.0425101 0.0460705 0)
(-0.0500768 0.0505086 0)
(-0.0580922 0.0549175 0)
(-0.0665436 0.0592772 0)