/*--------------------------------*- C++ -*----------------------------------*\
  =========                 |
  \\      /  F ield         | OpenFOAM: The Open Source CFD Toolbox
   \\    /   O peration     | Website:  https://openfoam.org
    \\  /    A nd           | Version:  7
     \\/     M anipulation  |
\*---------------------------------------------------------------------------*/
FoamFile
{
    version     2.0;
    format      ascii;
    class       surfaceScalarField;
    location    "0.075";
    object      phi;
}
// * * * * * * * * * * * * * * * * * * * * * * * * * * * * * * * * * * * * * //

dimensions      [0 3 -1 0 0 0 0];

internalField   nonuniform List<scalar> 
12640
(
1.13911e-10
-1.13989e-10
-1.31473e-11
1.27062e-10
-4.34096e-10
4.20951e-10
-1.10622e-09
6.72123e-10
-1.95956e-09
8.53349e-10
-2.93074e-09
9.71182e-10
-3.97086e-09
1.04012e-09
-5.04574e-09
1.07488e-09
-6.1332e-09
1.08746e-09
-7.21968e-09
1.08648e-09
-8.29731e-09
1.07762e-09
-9.36158e-09
1.06427e-09
-1.04099e-08
1.04829e-09
-1.14404e-08
1.03056e-09
-1.24519e-08
1.01146e-09
-1.3443e-08
9.91092e-10
-1.44124e-08
9.69444e-10
-1.53589e-08
9.46478e-10
-1.6281e-08
9.22152e-10
-1.71775e-08
8.96434e-10
-1.80468e-08
8.69308e-10
-1.88875e-08
8.40771e-10
-1.96984e-08
8.1083e-10
-2.04778e-08
7.79498e-10
-2.12246e-08
7.46792e-10
-2.19374e-08
7.12735e-10
-2.26147e-08
6.77351e-10
-2.32554e-08
6.4067e-10
-2.38581e-08
6.02724e-10
-2.44216e-08
5.63547e-10
-2.49448e-08
5.23176e-10
-2.54265e-08
4.81648e-10
-2.58655e-08
4.39006e-10
-2.62608e-08
3.95292e-10
-2.66113e-08
3.50555e-10
-2.69162e-08
3.04845e-10
-2.71744e-08
2.58216e-10
-2.73851e-08
2.10724e-10
-2.75475e-08
1.6243e-10
-2.76609e-08
1.13398e-10
-2.77246e-08
6.36963e-11
-2.7738e-08
1.33998e-11
-2.77006e-08
-3.74224e-11
-2.76119e-08
-8.86825e-11
-2.74717e-08
-1.40297e-10
-2.72795e-08
-1.92175e-10
-2.70353e-08
-2.44223e-10
-2.67389e-08
-2.96343e-10
-2.63905e-08
-3.4843e-10
-2.59901e-08
-4.00377e-10
-2.5538e-08
-4.52071e-10
-2.50346e-08
-5.03397e-10
-2.44804e-08
-5.54233e-10
-2.3876e-08
-6.04457e-10
-2.3222e-08
-6.53941e-10
-2.25195e-08
-7.02557e-10
-2.17693e-08
-7.50176e-10
-2.09726e-08
-7.96669e-10
-2.01307e-08
-8.41907e-10
-1.9245e-08
-8.85766e-10
-1.83168e-08
-9.28127e-10
-1.73479e-08
-9.68879e-10
-1.634e-08
-1.00792e-09
-1.52948e-08
-1.04517e-09
-1.42143e-08
-1.08053e-09
-1.31004e-08
-1.11392e-09
-1.19552e-08
-1.14519e-09
-1.07812e-08
-1.17403e-09
-9.58131e-09
-1.19985e-09
-8.35989e-09
-1.22143e-09
-7.12337e-09
-1.23653e-09
-5.88208e-09
-1.24129e-09
-4.65255e-09
-1.22952e-09
-3.46058e-09
-1.19197e-09
-2.34463e-09
-1.11594e-09
-1.35877e-09
-9.85855e-10
-5.7255e-10
-7.86214e-10
-6.3967e-11
-5.08582e-10
1.0919e-10
-1.73158e-10
1.09188e-10
-1.23443e-10
9.45556e-12
-7.98959e-10
8.02594e-10
-2.09019e-09
1.7122e-09
-3.90804e-09
2.48997e-09
-6.13033e-09
3.07563e-09
-8.63465e-09
3.4755e-09
-1.13176e-08
3.72304e-09
-1.41006e-08
3.85793e-09
-1.69287e-08
3.91551e-09
-1.97652e-08
3.92296e-09
-2.25867e-08
3.89918e-09
-2.53787e-08
3.85625e-09
-2.81317e-08
3.80129e-09
-3.08392e-08
3.73815e-09
-3.34965e-08
3.66873e-09
-3.60992e-08
3.59383e-09
-3.86436e-08
3.51375e-09
-4.11256e-08
3.42855e-09
-4.35417e-08
3.33822e-09
-4.5888e-08
3.24272e-09
-4.81607e-08
3.14208e-09
-5.03562e-08
3.0363e-09
-5.24708e-08
2.92545e-09
-5.45009e-08
2.80959e-09
-5.64429e-08
2.68881e-09
-5.82934e-08
2.56322e-09
-6.0049e-08
2.43292e-09
-6.17063e-08
2.29803e-09
-6.32623e-08
2.15869e-09
-6.47138e-08
2.01502e-09
-6.60578e-08
1.86719e-09
-6.72914e-08
1.71533e-09
-6.84121e-08
1.55962e-09
-6.9417e-08
1.40022e-09
-7.03038e-08
1.23732e-09
-7.107e-08
1.07111e-09
-7.17136e-08
9.01794e-10
-7.22325e-08
7.29582e-10
-7.26247e-08
5.54699e-10
-7.28887e-08
3.77384e-10
-7.30229e-08
1.97882e-10
-7.3026e-08
1.64838e-11
-7.28968e-08
-1.66594e-10
-7.26345e-08
-3.51001e-10
-7.22384e-08
-5.36456e-10
-7.17079e-08
-7.22636e-10
-7.1043e-08
-9.09208e-10
-7.02435e-08
-1.09582e-09
-6.93098e-08
-1.28212e-09
-6.82425e-08
-1.46771e-09
-6.70423e-08
-1.65222e-09
-6.57105e-08
-1.83522e-09
-6.42484e-08
-2.01632e-09
-6.26578e-08
-2.19507e-09
-6.09407e-08
-2.37104e-09
-5.90995e-08
-2.54379e-09
-5.71368e-08
-2.71288e-09
-5.50556e-08
-2.87785e-09
-5.28592e-08
-3.03827e-09
-5.05513e-08
-3.19371e-09
-4.81357e-08
-3.34374e-09
-4.56166e-08
-3.48796e-09
-4.29985e-08
-3.626e-09
-4.02862e-08
-3.75748e-09
-3.74847e-08
-3.88201e-09
-3.45995e-08
-3.99906e-09
-3.16369e-08
-4.10782e-09
-2.86041e-08
-4.20683e-09
-2.55106e-08
-4.29341e-09
-2.23693e-08
-4.36268e-09
-1.91996e-08
-4.40629e-09
-1.60302e-08
-4.41068e-09
-1.29045e-08
-4.35525e-09
-9.88549e-09
-4.21095e-09
-7.06102e-09
-3.9404e-09
-4.5453e-09
-3.50157e-09
-2.47335e-09
-2.85817e-09
-9.8211e-10
-1.99982e-09
-1.72459e-10
-9.82812e-10
-6.32702e-11
-4.21816e-10
4.31275e-10
-1.71719e-09
2.09797e-09
-3.8292e-09
3.82422e-09
-6.63318e-09
5.29395e-09
-9.97301e-09
6.41546e-09
-1.36949e-08
7.19741e-09
-1.76665e-08
7.69458e-09
-2.17838e-08
7.97531e-09
-2.59713e-08
8.10298e-09
-3.01765e-08
8.12812e-09
-3.43643e-08
8.08705e-09
-3.85119e-08
8.0038e-09
-4.26037e-08
7.89309e-09
-4.66289e-08
7.76333e-09
-5.05791e-08
7.61894e-09
-5.44473e-08
7.46209e-09
-5.82273e-08
7.29372e-09
-6.1913e-08
7.11423e-09
-6.54985e-08
6.92378e-09
-6.89783e-08
6.72245e-09
-7.23465e-08
6.51034e-09
-7.55977e-08
6.28754e-09
-7.87265e-08
6.05423e-09
-8.17275e-08
5.81058e-09
-8.45954e-08
5.5568e-09
-8.73254e-08
5.29313e-09
-8.99123e-08
5.01983e-09
-9.23514e-08
4.73717e-09
-9.46382e-08
4.44544e-09
-9.67681e-08
4.14494e-09
-9.87369e-08
3.836e-09
-1.0054e-07
3.51895e-09
-1.02175e-07
3.19415e-09
-1.03637e-07
2.86198e-09
-1.04922e-07
2.52282e-09
-1.06028e-07
2.17709e-09
-1.06952e-07
1.82522e-09
-1.0769e-07
1.46766e-09
-1.0824e-07
1.10487e-09
-1.086e-07
7.37366e-10
-1.08768e-07
3.65663e-10
-1.08742e-07
-9.68805e-12
-1.0852e-07
-3.88125e-10
-1.08102e-07
-7.69034e-10
-1.07487e-07
-1.15179e-09
-1.06674e-07
-1.53574e-09
-1.05663e-07
-1.92021e-09
-1.04454e-07
-2.30447e-09
-1.03048e-07
-2.68779e-09
-1.01447e-07
-3.06941e-09
-9.96503e-08
-3.44853e-09
-9.76612e-08
-3.82433e-09
-9.54815e-08
-4.19597e-09
-9.3114e-08
-4.56259e-09
-9.05617e-08
-4.92332e-09
-8.78282e-08
-5.27726e-09
-8.49176e-08
-5.62353e-09
-8.18342e-08
-5.96122e-09
-7.85831e-08
-6.28944e-09
-7.51694e-08
-6.60732e-09
-7.15992e-08
-6.91401e-09
-6.78785e-08
-7.20866e-09
-6.4014e-08
-7.49046e-09
-6.00129e-08
-7.75858e-09
-5.58829e-08
-8.01204e-09
-5.16324e-08
-8.24957e-09
-4.7271e-08
-8.46919e-09
-4.28103e-08
-8.6675e-09
-3.82652e-08
-8.8385e-09
-3.3656e-08
-8.97188e-09
-2.90118e-08
-9.05056e-09
-2.43747e-08
-9.04774e-09
-1.9806e-08
-8.92394e-09
-1.53917e-08
-8.62525e-09
-1.12474e-08
-8.08474e-09
-7.5188e-09
-7.23013e-09
-4.37488e-09
-6.00211e-09
-1.98854e-09
-4.38616e-09
-5.0344e-10
-2.46791e-09
-5.66708e-10
-6.79722e-10
1.11101e-09
-2.51595e-09
3.9342e-09
-5.33774e-09
6.64601e-09
-8.96218e-09
8.9184e-09
-1.32006e-08
1.06538e-08
-1.78774e-08
1.18742e-08
-2.28435e-08
1.26607e-08
-2.79813e-08
1.31131e-08
-3.32036e-08
1.33253e-08
-3.84487e-08
1.33732e-08
-4.36741e-08
1.33124e-08
-4.8851e-08
1.31807e-08
-5.39596e-08
1.30017e-08
-5.89855e-08
1.27892e-08
-6.39175e-08
1.2551e-08
-6.87463e-08
1.22909e-08
-7.34635e-08
1.20109e-08
-7.80614e-08
1.17121e-08
-8.25324e-08
1.13948e-08
-8.68692e-08
1.10593e-08
-9.10648e-08
1.07059e-08
-9.51122e-08
1.0335e-08
-9.90046e-08
9.94667e-09
-1.02735e-07
9.54142e-09
-1.06298e-07
9.1196e-09
-1.09687e-07
8.68164e-09
-1.12895e-07
8.228e-09
-1.15917e-07
7.75914e-09
-1.18747e-07
7.27558e-09
-1.2138e-07
6.77784e-09
-1.2381e-07
6.26649e-09
-1.26034e-07
5.74209e-09
-1.28045e-07
5.20527e-09
-1.29839e-07
4.65664e-09
-1.31413e-07
4.09688e-09
-1.32763e-07
3.52667e-09
-1.33885e-07
2.94674e-09
-1.34775e-07
2.35783e-09
-1.35431e-07
1.76074e-09
-1.35849e-07
1.15628e-09
-1.36029e-07
5.45332e-10
-1.35968e-07
-7.12154e-11
-1.35663e-07
-6.92419e-10
-1.35115e-07
-1.3173e-09
-1.34322e-07
-1.94482e-09
-1.33284e-07
-2.57392e-09
-1.32001e-07
-3.2035e-09
-1.30473e-07
-3.83239e-09
-1.28701e-07
-4.4594e-09
-1.26687e-07
-5.08328e-09
-1.24433e-07
-5.70277e-09
-1.21941e-07
-6.31654e-09
-1.19214e-07
-6.92323e-09
-1.16255e-07
-7.52147e-09
-1.13068e-07
-8.10985e-09
-1.09658e-07
-8.68694e-09
-1.06031e-07
-9.25131e-09
-1.0219e-07
-9.8015e-09
-9.81437e-08
-1.03361e-08
-9.38974e-08
-1.08536e-08
-8.94586e-08
-1.13528e-08
-8.48352e-08
-1.18321e-08
-8.00354e-08
-1.22902e-08
-7.50683e-08
-1.27257e-08
-6.99435e-08
-1.31368e-08
-6.46719e-08
-1.35212e-08
-5.92658e-08
-1.38753e-08
-5.37399e-08
-1.41933e-08
-4.81133e-08
-1.44651e-08
-4.24114e-08
-1.46738e-08
-3.66698e-08
-1.47922e-08
-3.0939e-08
-1.47785e-08
-2.52907e-08
-1.45723e-08
-1.98234e-08
-1.40925e-08
-1.46677e-08
-1.32405e-08
-9.98721e-09
-1.19107e-08
-5.97369e-09
-1.00156e-08
-2.83455e-09
-7.5253e-09
-7.75199e-10
-4.52726e-09
-1.3419e-09
-8.71084e-10
1.9821e-09
-3.13535e-09
6.19846e-09
-6.52492e-09
1.00356e-08
-1.07994e-08
1.31928e-08
-1.57373e-08
1.55918e-08
-2.11448e-08
1.72817e-08
-2.68612e-08
1.83771e-08
-3.27611e-08
1.90131e-08
-3.87513e-08
1.93155e-08
-4.47651e-08
1.93869e-08
-5.07558e-08
1.93032e-08
-5.66912e-08
1.91162e-08
-6.25486e-08
1.88591e-08
-6.83112e-08
1.85518e-08
-7.39657e-08
1.82054e-08
-7.9501e-08
1.78262e-08
-8.49072e-08
1.74171e-08
-9.01751e-08
1.698e-08
-9.52959e-08
1.65156e-08
-1.00261e-07
1.60247e-08
-1.05063e-07
1.55076e-08
-1.09693e-07
1.49649e-08
-1.14143e-07
1.43971e-08
-1.18407e-07
1.38048e-08
-1.22476e-07
1.31886e-08
-1.26343e-07
1.25492e-08
-1.30002e-07
1.18872e-08
-1.33447e-07
1.12034e-08
-1.3667e-07
1.04986e-08
-1.39665e-07
9.77355e-09
-1.42428e-07
9.02907e-09
-1.44952e-07
8.26604e-09
-1.47232e-07
7.48537e-09
-1.49263e-07
6.688e-09
-1.51041e-07
5.8749e-09
-1.52562e-07
5.04709e-09
-1.53821e-07
4.20562e-09
-1.54814e-07
3.35161e-09
-1.5554e-07
2.48619e-09
-1.55994e-07
1.61057e-09
-1.56175e-07
7.26003e-10
-1.5608e-07
-1.66209e-10
-1.55708e-07
-1.06471e-09
-1.55057e-07
-1.96808e-09
-1.54127e-07
-2.87484e-09
-1.52917e-07
-3.78346e-09
-1.51428e-07
-4.69236e-09
-1.49661e-07
-5.59986e-09
-1.47616e-07
-6.50427e-09
-1.45296e-07
-7.40382e-09
-1.42702e-07
-8.29667e-09
-1.39837e-07
-9.18095e-09
-1.36706e-07
-1.00547e-08
-1.33311e-07
-1.09161e-08
-1.29658e-07
-1.17629e-08
-1.25752e-07
-1.25933e-08
-1.21598e-07
-1.34051e-08
-1.17203e-07
-1.41964e-08
-1.12574e-07
-1.49649e-08
-1.07719e-07
-1.57088e-08
-1.02646e-07
-1.6426e-08
-9.73634e-08
-1.71145e-08
-9.18815e-08
-1.77721e-08
-8.62104e-08
-1.83968e-08
-8.03613e-08
-1.89858e-08
-7.43468e-08
-1.95357e-08
-6.81812e-08
-2.0041e-08
-6.18814e-08
-2.0493e-08
-5.54693e-08
-2.08772e-08
-4.89734e-08
-2.11696e-08
-4.24333e-08
-2.13323e-08
-3.59042e-08
-2.13077e-08
-2.94629e-08
-2.10135e-08
-2.32149e-08
-2.03406e-08
-1.7299e-08
-1.91564e-08
-1.18909e-08
-1.73188e-08
-7.20179e-09
-1.47047e-08
-3.47316e-09
-1.12539e-08
-9.70758e-10
-7.02965e-09
-2.31266e-09
-1.00211e-09
2.98421e-09
-3.58082e-09
8.77717e-09
-7.39808e-09
1.38528e-08
-1.21648e-08
1.79596e-08
-1.76301e-08
2.10571e-08
-2.35829e-08
2.32345e-08
-2.98536e-08
2.46477e-08
-3.63113e-08
2.54708e-08
-4.28595e-08
2.58637e-08
-4.9429e-08
2.59564e-08
-5.59714e-08
2.58455e-08
-6.24525e-08
2.55973e-08
-6.88479e-08
2.52545e-08
-7.51393e-08
2.48432e-08
-8.13121e-08
2.43783e-08
-8.7354e-08
2.38681e-08
-9.3254e-08
2.33172e-08
-9.90019e-08
2.27279e-08
-1.04588e-07
2.21017e-08
-1.10003e-07
2.14396e-08
-1.15238e-07
2.07423e-08
-1.20284e-07
2.00107e-08
-1.25132e-07
1.92456e-08
-1.29775e-07
1.84477e-08
-1.34204e-07
1.7618e-08
-1.38412e-07
1.67573e-08
-1.42392e-07
1.58667e-08
-1.46136e-07
1.49472e-08
-1.49637e-07
1.39999e-08
-1.52889e-07
1.30257e-08
-1.55886e-07
1.2026e-08
-1.58622e-07
1.10018e-08
-1.61091e-07
9.95438e-09
-1.63288e-07
8.88506e-09
-1.65208e-07
7.79515e-09
-1.66847e-07
6.68602e-09
-1.682e-07
5.55908e-09
-1.69265e-07
4.41584e-09
-1.70036e-07
3.25783e-09
-1.70512e-07
2.08666e-09
-1.7069e-07
9.04006e-10
-1.70568e-07
-2.88392e-10
-1.70144e-07
-1.48872e-09
-1.69417e-07
-2.6951e-09
-1.68387e-07
-3.90556e-09
-1.67052e-07
-5.11808e-09
-1.65414e-07
-6.33054e-09
-1.63473e-07
-7.54075e-09
-1.61231e-07
-8.74645e-09
-1.58689e-07
-9.94529e-09
-1.55851e-07
-1.11349e-08
-1.52719e-07
-1.23127e-08
-1.49298e-07
-1.34763e-08
-1.45591e-07
-1.4623e-08
-1.41604e-07
-1.57502e-08
-1.37342e-07
-1.68551e-08
-1.32812e-07
-1.79352e-08
-1.2802e-07
-1.89877e-08
-1.22975e-07
-2.00098e-08
-1.17685e-07
-2.09989e-08
-1.12159e-07
-2.19522e-08
-1.06406e-07
-2.28671e-08
-1.00438e-07
-2.37407e-08
-9.42646e-08
-2.457e-08
-8.78991e-08
-2.53514e-08
-8.1355e-08
-2.60798e-08
-7.46479e-08
-2.67481e-08
-6.77963e-08
-2.73445e-08
-6.08237e-08
-2.78498e-08
-5.37605e-08
-2.82329e-08
-4.66481e-08
-2.84447e-08
-3.95442e-08
-2.84116e-08
-3.25283e-08
-2.80294e-08
-2.57094e-08
-2.71594e-08
-1.92322e-08
-2.56336e-08
-1.32823e-08
-2.32688e-08
-8.08837e-09
-1.98986e-08
-3.92274e-09
-1.54195e-08
-1.10128e-09
-9.85111e-09
-3.41393e-09
-1.08694e-09
4.07116e-09
-3.88465e-09
1.15749e-08
-8.00992e-09
1.79781e-08
-1.31368e-08
2.30865e-08
-1.89896e-08
2.69099e-08
-2.53422e-08
2.95871e-08
-3.20166e-08
3.13222e-08
-3.88778e-08
3.23321e-08
-4.58271e-08
3.2813e-08
-5.2794e-08
3.29234e-08
-5.97292e-08
3.27807e-08
-6.65977e-08
3.24658e-08
-7.33745e-08
3.20313e-08
-8.00404e-08
3.1509e-08
-8.658e-08
3.09179e-08
-9.29802e-08
3.02683e-08
-9.92293e-08
2.95662e-08
-1.05316e-07
2.88149e-08
-1.11231e-07
2.80163e-08
-1.16963e-07
2.71719e-08
-1.22504e-07
2.62827e-08
-1.27843e-07
2.535e-08
-1.32972e-07
2.43747e-08
-1.37882e-07
2.3358e-08
-1.42566e-07
2.23012e-08
-1.47013e-07
2.12053e-08
-1.51218e-07
2.00717e-08
-1.55173e-07
1.89017e-08
-1.5887e-07
1.76967e-08
-1.62302e-07
1.64581e-08
-1.65464e-07
1.51874e-08
-1.68348e-07
1.38862e-08
-1.7095e-07
1.2556e-08
-1.73263e-07
1.11984e-08
-1.75283e-07
9.81517e-09
-1.77005e-07
8.40804e-09
-1.78425e-07
6.97884e-09
-1.79538e-07
5.52944e-09
-1.80342e-07
4.06181e-09
-1.80834e-07
2.57799e-09
-1.8101e-07
1.08009e-09
-1.80868e-07
-4.29682e-10
-1.80408e-07
-1.94905e-09
-1.79628e-07
-3.47564e-09
-1.78526e-07
-5.00697e-09
-1.77104e-07
-6.5405e-09
-1.75361e-07
-8.07356e-09
-1.73298e-07
-9.60341e-09
-1.70917e-07
-1.11272e-08
-1.68221e-07
-1.2642e-08
-1.65211e-07
-1.41448e-08
-1.61891e-07
-1.56325e-08
-1.58265e-07
-1.71019e-08
-1.54339e-07
-1.85497e-08
-1.50116e-07
-1.99727e-08
-1.45604e-07
-2.13674e-08
-1.40808e-07
-2.27306e-08
-1.35737e-07
-2.40587e-08
-1.30399e-07
-2.53483e-08
-1.24802e-07
-2.65961e-08
-1.18955e-07
-2.77985e-08
-1.1287e-07
-2.89522e-08
-1.06558e-07
-3.00535e-08
-1.00029e-07
-3.10985e-08
-9.32979e-08
-3.20825e-08
-8.63786e-08
-3.29991e-08
-7.92876e-08
-3.38391e-08
-7.20444e-08
-3.45877e-08
-6.46732e-08
-3.52211e-08
-5.72053e-08
-3.57007e-08
-4.96834e-08
-3.59666e-08
-4.21658e-08
-3.59292e-08
-3.4734e-08
-3.54612e-08
-2.74993e-08
-3.43941e-08
-2.06113e-08
-3.25216e-08
-1.42643e-08
-2.96157e-08
-8.70298e-09
-2.54599e-08
-4.2251e-09
-1.98974e-08
-1.18408e-09
-1.28921e-08
-4.598e-09
-1.14003e-09
5.21118e-09
-4.08572e-09
1.45206e-08
-8.42727e-09
2.23196e-08
-1.38128e-08
2.84721e-08
-1.99471e-08
3.30442e-08
-2.65915e-08
3.62314e-08
-3.35602e-08
3.82909e-08
-4.07145e-08
3.94863e-08
-4.79536e-08
4.00521e-08
-5.52064e-08
4.01761e-08
-6.24231e-08
3.99973e-08
-6.95685e-08
3.96113e-08
-7.66172e-08
3.90799e-08
-8.35496e-08
3.84415e-08
-9.03501e-08
3.77183e-08
-9.7005e-08
3.69232e-08
-1.03502e-07
3.60634e-08
-1.0983e-07
3.51429e-08
-1.15978e-07
3.41644e-08
-1.21936e-07
3.31297e-08
-1.27694e-07
3.20404e-08
-1.33242e-07
3.08978e-08
-1.3857e-07
2.97034e-08
-1.43671e-07
2.84587e-08
-1.48535e-07
2.7165e-08
-1.53154e-07
2.5824e-08
-1.57519e-07
2.44372e-08
-1.61624e-07
2.30064e-08
-1.6546e-07
2.15332e-08
-1.69022e-07
2.00194e-08
-1.72301e-07
1.84669e-08
-1.75292e-07
1.68775e-08
-1.7799e-07
1.52531e-08
-1.80387e-07
1.35958e-08
-1.8248e-07
1.19077e-08
-1.84262e-07
1.0191e-08
-1.85731e-07
8.4477e-09
-1.86882e-07
6.68029e-09
-1.87711e-07
4.8911e-09
-1.88216e-07
3.08262e-09
-1.88393e-07
1.25741e-09
-1.88241e-07
-5.81847e-10
-1.87758e-07
-2.43239e-09
-1.86942e-07
-4.29134e-09
-1.85794e-07
-6.1557e-09
-1.84312e-07
-8.02239e-09
-1.82497e-07
-9.88818e-09
-1.80351e-07
-1.17498e-08
-1.77874e-07
-1.36037e-08
-1.7507e-07
-1.54464e-08
-1.7194e-07
-1.72743e-08
-1.68489e-07
-1.90836e-08
-1.6472e-07
-2.08705e-08
-1.60639e-07
-2.26309e-08
-1.56251e-07
-2.4361e-08
-1.51562e-07
-2.60567e-08
-1.46579e-07
-2.77137e-08
-1.41309e-07
-2.93281e-08
-1.35762e-07
-3.08956e-08
-1.29946e-07
-3.2412e-08
-1.23871e-07
-3.38733e-08
-1.17548e-07
-3.5275e-08
-1.10989e-07
-3.66129e-08
-1.04206e-07
-3.78819e-08
-9.72118e-08
-3.90764e-08
-9.00223e-08
-4.01886e-08
-8.26543e-08
-4.12071e-08
-7.51277e-08
-4.21143e-08
-6.74673e-08
-4.28815e-08
-5.97048e-08
-4.34631e-08
-5.18834e-08
-4.37881e-08
-4.40621e-08
-4.37504e-08
-3.63235e-08
-4.31998e-08
-2.87813e-08
-4.19362e-08
-2.15897e-08
-3.97133e-08
-1.49511e-08
-3.62543e-08
-9.12366e-09
-3.12873e-08
-4.42534e-09
-2.45957e-08
-1.23566e-09
-1.60818e-08
-5.83366e-09
-1.1733e-09
6.38447e-09
-4.21908e-09
1.75663e-08
-8.71291e-09
2.68135e-08
-1.42855e-08
3.40446e-08
-2.06268e-08
3.93856e-08
-2.74878e-08
4.30924e-08
-3.46761e-08
4.54792e-08
-4.20491e-08
4.68593e-08
-4.9504e-08
4.75071e-08
-5.69691e-08
4.76412e-08
-6.43942e-08
4.74224e-08
-7.17441e-08
4.69611e-08
-7.89932e-08
4.6329e-08
-8.61219e-08
4.55702e-08
-9.31142e-08
4.47107e-08
-9.99563e-08
4.37654e-08
-1.06636e-07
4.27429e-08
-1.13141e-07
4.16481e-08
-1.19461e-07
4.04843e-08
-1.25585e-07
3.92537e-08
-1.31503e-07
3.79582e-08
-1.37204e-07
3.65996e-08
-1.42681e-07
3.51796e-08
-1.47922e-07
3.37001e-08
-1.5292e-07
3.21627e-08
-1.57665e-07
3.05696e-08
-1.6215e-07
2.89224e-08
-1.66367e-07
2.72234e-08
-1.70309e-07
2.54744e-08
-1.73967e-07
2.36777e-08
-1.77335e-07
2.18355e-08
-1.80408e-07
1.995e-08
-1.83178e-07
1.80234e-08
-1.85641e-07
1.60583e-08
-1.8779e-07
1.40571e-08
-1.89621e-07
1.20223e-08
-1.9113e-07
9.95653e-09
-1.92313e-07
7.86258e-09
-1.93165e-07
5.74323e-09
-1.93683e-07
3.60141e-09
-1.93866e-07
1.44016e-09
-1.93711e-07
-7.37393e-10
-1.93215e-07
-2.92797e-09
-1.92378e-07
-5.12819e-09
-1.91199e-07
-7.33454e-09
-1.89678e-07
-9.54338e-09
-1.87816e-07
-1.17509e-08
-1.85612e-07
-1.39533e-08
-1.83069e-07
-1.61464e-08
-1.8019e-07
-1.83261e-08
-1.76976e-07
-2.04881e-08
-1.73432e-07
-2.2628e-08
-1.69561e-07
-2.47413e-08
-1.65368e-07
-2.68233e-08
-1.6086e-07
-2.88693e-08
-1.56042e-07
-3.08745e-08
-1.50922e-07
-3.28341e-08
-1.45507e-07
-3.47431e-08
-1.39806e-07
-3.65967e-08
-1.33828e-07
-3.83898e-08
-1.27584e-07
-4.01176e-08
-1.21084e-07
-4.1775e-08
-1.1434e-07
-4.33566e-08
-1.07365e-07
-4.48566e-08
-1.00174e-07
-4.62682e-08
-9.278e-08
-4.75822e-08
-8.5202e-08
-4.87851e-08
-7.74599e-08
-4.98564e-08
-6.95787e-08
-5.07627e-08
-6.15905e-08
-5.14513e-08
-5.35387e-08
-5.18399e-08
-4.54832e-08
-5.18059e-08
-3.75077e-08
-5.11752e-08
-2.97285e-08
-4.97154e-08
-2.23042e-08
-4.71376e-08
-1.54447e-08
-4.31138e-08
-9.41957e-09
-3.73124e-08
-4.56192e-09
-2.94534e-08
-1.26901e-09
-1.93747e-08
-7.10266e-09
-1.19551e-09
7.57998e-09
-4.31218e-09
2.0683e-08
-8.9177e-09
3.1419e-08
-1.4631e-08
3.9758e-08
-2.11313e-08
4.58859e-08
-2.81608e-08
5.01219e-08
-3.55214e-08
5.28398e-08
-4.30666e-08
5.44045e-08
-5.06919e-08
5.51324e-08
-5.83246e-08
5.52738e-08
-6.5914e-08
5.50118e-08
-7.34248e-08
5.4472e-08
-8.08315e-08
5.37357e-08
-8.81144e-08
5.2853e-08
-9.52574e-08
5.18536e-08
-1.02247e-07
5.07546e-08
-1.09069e-07
4.95657e-08
-1.15714e-07
4.82927e-08
-1.22169e-07
4.69393e-08
-1.28424e-07
4.55085e-08
-1.34468e-07
4.40023e-08
-1.40291e-07
4.2423e-08
-1.45884e-07
4.07726e-08
-1.51238e-07
3.90533e-08
-1.56342e-07
3.72672e-08
-1.61189e-07
3.54166e-08
-1.6577e-07
3.35037e-08
-1.70078e-07
3.15308e-08
-1.74104e-07
2.95005e-08
-1.77841e-07
2.74152e-08
-1.81283e-07
2.52774e-08
-1.84423e-07
2.30898e-08
-1.87255e-07
2.08551e-08
-1.89773e-07
1.8576e-08
-1.91971e-07
1.62554e-08
-1.93845e-07
1.38963e-08
-1.9539e-07
1.15017e-08
-1.96602e-07
9.07469e-09
-1.97478e-07
6.6186e-09
-1.98013e-07
4.13679e-09
-1.98206e-07
1.63275e-09
-1.98053e-07
-8.8992e-10
-1.97554e-07
-3.42745e-09
-1.96706e-07
-5.97594e-09
-1.95509e-07
-8.53135e-09
-1.93963e-07
-1.10895e-08
-1.92068e-07
-1.3646e-08
-1.89825e-07
-1.61965e-08
-1.87235e-07
-1.87361e-08
-1.84301e-07
-2.12602e-08
-1.81025e-07
-2.37639e-08
-1.77411e-07
-2.62419e-08
-1.73464e-07
-2.86891e-08
-1.69187e-07
-3.11001e-08
-1.64587e-07
-3.34695e-08
-1.59669e-07
-3.57917e-08
-1.54442e-07
-3.80612e-08
-1.48913e-07
-4.02723e-08
-1.43091e-07
-4.24191e-08
-1.36984e-07
-4.44961e-08
-1.30605e-07
-4.64974e-08
-1.23962e-07
-4.8417e-08
-1.1707e-07
-5.02489e-08
-1.0994e-07
-5.19862e-08
-1.02588e-07
-5.36209e-08
-9.50275e-08
-5.51424e-08
-8.72773e-08
-5.65354e-08
-7.93576e-08
-5.7776e-08
-7.12939e-08
-5.88265e-08
-6.31185e-08
-5.96267e-08
-5.48752e-08
-6.00831e-08
-4.6625e-08
-6.00562e-08
-3.8453e-08
-5.93473e-08
-3.04782e-08
-5.76902e-08
-2.28636e-08
-5.47522e-08
-1.5826e-08
-5.01513e-08
-9.64443e-09
-4.3494e-08
-4.66367e-09
-3.44341e-08
-1.29323e-09
-2.27451e-08
-8.39589e-09
-1.21254e-09
8.79253e-09
-4.38453e-09
2.3855e-08
-9.07895e-09
3.61134e-08
-1.49065e-08
4.55855e-08
-2.15379e-08
5.25173e-08
-2.87083e-08
5.72923e-08
-3.62142e-08
6.03457e-08
-4.3906e-08
6.20962e-08
-5.1677e-08
6.29034e-08
-5.94531e-08
6.30499e-08
-6.71834e-08
6.27421e-08
-7.48324e-08
6.21209e-08
-8.23742e-08
6.12776e-08
-8.97894e-08
6.02682e-08
-9.70617e-08
5.91259e-08
-1.04177e-07
5.787e-08
-1.11123e-07
5.65115e-08
-1.17887e-07
5.5057e-08
-1.24459e-07
5.35108e-08
-1.30826e-07
5.18761e-08
-1.3698e-07
5.01556e-08
-1.42909e-07
4.83518e-08
-1.48603e-07
4.64671e-08
-1.54054e-07
4.4504e-08
-1.59252e-07
4.2465e-08
-1.64188e-07
4.03527e-08
-1.68854e-07
3.81696e-08
-1.73241e-07
3.59186e-08
-1.77343e-07
3.36024e-08
-1.81152e-07
3.12238e-08
-1.8466e-07
2.87858e-08
-1.87862e-07
2.62913e-08
-1.9075e-07
2.37434e-08
-1.93319e-07
2.11454e-08
-1.95564e-07
1.85004e-08
-1.9748e-07
1.58118e-08
-1.99061e-07
1.3083e-08
-2.00304e-07
1.03176e-08
-2.01205e-07
7.51933e-09
-2.0176e-07
4.69196e-09
-2.01966e-07
1.83944e-09
-2.01822e-07
-1.03413e-09
-2.01325e-07
-3.92451e-09
-2.00474e-07
-6.82728e-09
-1.99267e-07
-9.73789e-09
-1.97705e-07
-1.26516e-08
-1.95788e-07
-1.55635e-08
-1.93516e-07
-1.84685e-08
-1.90891e-07
-2.13613e-08
-1.87914e-07
-2.42365e-08
-1.8459e-07
-2.70885e-08
-1.8092e-07
-2.99114e-08
-1.7691e-07
-3.26995e-08
-1.72563e-07
-3.54465e-08
-1.67886e-07
-3.81464e-08
-1.62885e-07
-4.07927e-08
-1.57568e-07
-4.33791e-08
-1.51941e-07
-4.58992e-08
-1.46013e-07
-4.83463e-08
-1.39796e-07
-5.07139e-08
-1.33297e-07
-5.29954e-08
-1.2653e-07
-5.5184e-08
-1.19507e-07
-5.72726e-08
-1.1224e-07
-5.92535e-08
-1.04743e-07
-6.11173e-08
-9.70334e-08
-6.28522e-08
-8.91282e-08
-6.44406e-08
-8.10482e-08
-6.58559e-08
-7.28191e-08
-6.70556e-08
-6.44739e-08
-6.79719e-08
-5.6057e-08
-6.85001e-08
-4.76303e-08
-6.84829e-08
-3.92809e-08
-6.76967e-08
-3.11307e-08
-6.58404e-08
-2.33471e-08
-6.25358e-08
-1.61533e-08
-5.73452e-08
-9.83625e-09
-4.98111e-08
-4.75033e-09
-3.952e-08
-1.31413e-09
-2.61813e-08
-9.71002e-09
-1.22805e-09
1.00206e-08
-4.44893e-09
2.70758e-08
-9.22192e-09
4.08864e-08
-1.51511e-08
5.15147e-08
-2.19004e-08
5.92665e-08
-2.91987e-08
6.45906e-08
-3.68379e-08
6.7985e-08
-4.46649e-08
6.99232e-08
-5.2571e-08
7.08094e-08
-6.04807e-08
7.09597e-08
-6.83426e-08
7.0604e-08
-7.61208e-08
6.98991e-08
-8.37893e-08
6.89461e-08
-9.13283e-08
6.78072e-08
-9.87218e-08
6.65194e-08
-1.05956e-07
6.51038e-08
-1.13017e-07
6.35729e-08
-1.19894e-07
6.19339e-08
-1.26575e-07
6.01918e-08
-1.33049e-07
5.83501e-08
-1.39305e-07
5.64121e-08
-1.45334e-07
5.43804e-08
-1.51125e-07
5.22579e-08
-1.56668e-07
5.00474e-08
-1.61955e-07
4.77518e-08
-1.66976e-07
4.5374e-08
-1.71723e-07
4.2917e-08
-1.76189e-07
4.03838e-08
-1.80364e-07
3.77777e-08
-1.84242e-07
3.51017e-08
-1.87815e-07
3.23592e-08
-1.91078e-07
2.95536e-08
-1.94023e-07
2.66883e-08
-1.96644e-07
2.37669e-08
-1.98937e-07
2.07929e-08
-2.00895e-07
1.77702e-08
-2.02514e-07
1.47025e-08
-2.03791e-07
1.15939e-08
-2.0472e-07
8.44843e-09
-2.05298e-07
5.2704e-09
-2.05523e-07
2.06418e-09
-2.05392e-07
-1.16565e-09
-2.04902e-07
-4.41438e-09
-2.04052e-07
-7.67709e-09
-2.02841e-07
-1.09487e-08
-2.01269e-07
-1.42239e-08
-1.99335e-07
-1.74973e-08
-1.9704e-07
-2.0763e-08
-1.94386e-07
-2.40154e-08
-1.91375e-07
-2.72482e-08
-1.88008e-07
-3.04552e-08
-1.84289e-07
-3.363e-08
-1.80223e-07
-3.67658e-08
-1.75814e-07
-3.98559e-08
-1.71067e-07
-4.28933e-08
-1.65989e-07
-4.58708e-08
-1.60586e-07
-4.87814e-08
-1.54868e-07
-5.16176e-08
-1.48842e-07
-5.43721e-08
-1.42519e-07
-5.70375e-08
-1.35908e-07
-5.96063e-08
-1.29021e-07
-6.20707e-08
-1.21871e-07
-6.44228e-08
-1.14471e-07
-6.66537e-08
-1.06835e-07
-6.87531e-08
-9.89797e-08
-7.07074e-08
-9.0923e-08
-7.24973e-08
-8.26861e-08
-7.40929e-08
-7.42949e-08
-7.54467e-08
-6.57831e-08
-7.64838e-08
-5.7196e-08
-7.70872e-08
-4.85968e-08
-7.70821e-08
-4.00747e-08
-7.62188e-08
-3.17547e-08
-7.41604e-08
-2.38086e-08
-7.04819e-08
-1.64656e-08
-6.46882e-08
-1.00199e-08
-5.62567e-08
-4.83433e-09
-4.47057e-08
-1.33518e-09
-2.96805e-08
-1.10452e-08
-1.24411e-09
1.12647e-08
-4.5132e-09
3.03449e-08
-9.36257e-09
4.57357e-08
-1.53904e-08
5.75425e-08
-2.22542e-08
6.61304e-08
-2.96775e-08
7.20139e-08
-3.74476e-08
7.5755e-08
-4.54081e-08
7.78837e-08
-5.34481e-08
7.88494e-08
-6.1491e-08
7.90026e-08
-6.94843e-08
7.85973e-08
-7.73917e-08
7.78064e-08
-8.5187e-08
7.67414e-08
-9.28504e-08
7.54706e-08
-1.00366e-07
7.40345e-08
-1.07718e-07
7.24566e-08
-1.14896e-07
7.07504e-08
-1.21886e-07
6.8924e-08
-1.28677e-07
6.6983e-08
-1.35258e-07
6.49313e-08
-1.41619e-07
6.27725e-08
-1.47748e-07
6.05096e-08
-1.53636e-07
5.8146e-08
-1.59273e-07
5.56847e-08
-1.64651e-07
5.3129e-08
-1.69759e-07
5.04821e-08
-1.74589e-07
4.77474e-08
-1.79134e-07
4.49284e-08
-1.83384e-07
4.20284e-08
-1.87334e-07
3.90512e-08
-1.90975e-07
3.60003e-08
-1.94301e-07
3.28795e-08
-1.97305e-07
2.96925e-08
-1.99981e-07
2.64434e-08
-2.02325e-07
2.3136e-08
-2.04329e-07
1.97747e-08
-2.0599e-07
1.63635e-08
-2.07303e-07
1.29069e-08
-2.08264e-07
9.40941e-09
-2.08869e-07
5.87571e-09
-2.09116e-07
2.31063e-09
-2.09001e-07
-1.28079e-09
-2.08522e-07
-4.89336e-09
-2.07677e-07
-8.52167e-09
-2.06466e-07
-1.21601e-08
-2.04887e-07
-1.58029e-08
-2.0294e-07
-1.94439e-08
-2.00626e-07
-2.30768e-08
-1.97947e-07
-2.66953e-08
-1.94902e-07
-3.02925e-08
-1.91496e-07
-3.38615e-08
-1.87731e-07
-3.73951e-08
-1.83611e-07
-4.08859e-08
-1.7914e-07
-4.43264e-08
-1.74325e-07
-4.77088e-08
-1.6917e-07
-5.10252e-08
-1.63684e-07
-5.42675e-08
-1.57874e-07
-5.74276e-08
-1.51749e-07
-6.04972e-08
-1.45318e-07
-6.3468e-08
-1.38593e-07
-6.63316e-08
-1.31585e-07
-6.90793e-08
-1.24305e-07
-7.17022e-08
-1.16768e-07
-7.41904e-08
-1.08989e-07
-7.65323e-08
-1.00984e-07
-7.87128e-08
-9.27707e-08
-8.07104e-08
-8.43715e-08
-8.24921e-08
-7.58126e-08
-8.40056e-08
-6.71284e-08
-8.5168e-08
-5.83653e-08
-8.58503e-08
-4.95881e-08
-8.58592e-08
-4.08884e-08
-8.49185e-08
-3.23944e-08
-8.26544e-08
-2.42824e-08
-7.85939e-08
-1.67874e-08
-7.21832e-08
-1.02108e-08
-6.28333e-08
-4.92299e-09
-4.99934e-08
-1.3582e-09
-3.32453e-08
-1.24034e-08
-1.26181e-09
1.25265e-08
-4.58178e-09
3.36649e-08
-9.51037e-09
5.06643e-08
-1.56397e-08
6.36718e-08
-2.26212e-08
7.31119e-08
-3.01729e-08
7.95656e-08
-3.80779e-08
8.366e-08
-4.61764e-08
8.59822e-08
-5.43554e-08
8.70284e-08
-6.25366e-08
8.71839e-08
-7.06669e-08
8.67275e-08
-7.87091e-08
8.58487e-08
-8.6637e-08
8.46693e-08
-9.44304e-08
8.3264e-08
-1.02073e-07
8.1677e-08
-1.0955e-07
7.9934e-08
-1.16849e-07
7.80496e-08
-1.23958e-07
7.60329e-08
-1.30865e-07
7.38898e-08
-1.37559e-07
7.16249e-08
-1.44028e-07
6.92421e-08
-1.50263e-07
6.67447e-08
-1.56254e-07
6.41365e-08
-1.6199e-07
6.14209e-08
-1.67463e-07
5.86014e-08
-1.72662e-07
5.56818e-08
-1.77581e-07
5.26657e-08
-1.82209e-07
4.9557e-08
-1.8654e-07
4.63593e-08
-1.90566e-07
4.30768e-08
-1.94279e-07
3.97134e-08
-1.97673e-07
3.62732e-08
-2.0074e-07
3.27603e-08
-2.03476e-07
2.91791e-08
-2.05874e-07
2.5534e-08
-2.07929e-07
2.18294e-08
-2.09635e-07
1.807e-08
-2.10989e-07
1.42606e-08
-2.11986e-07
1.0406e-08
-2.12621e-07
6.51151e-09
-2.12893e-07
2.58225e-09
-2.12797e-07
-1.37628e-09
-2.12332e-07
-5.3584e-09
-2.11496e-07
-9.35821e-09
-2.10286e-07
-1.33696e-08
-2.08703e-07
-1.73862e-08
-2.06746e-07
-2.14014e-08
-2.04414e-07
-2.54083e-08
-2.0171e-07
-2.93999e-08
-1.98633e-07
-3.33686e-08
-1.95188e-07
-3.7307e-08
-1.91376e-07
-4.12071e-08
-1.87201e-07
-4.50607e-08
-1.82668e-07
-4.88596e-08
-1.77782e-07
-5.25951e-08
-1.72548e-07
-5.62585e-08
-1.66975e-07
-5.98409e-08
-1.6107e-07
-6.33332e-08
-1.54841e-07
-6.67263e-08
-1.48298e-07
-7.00108e-08
-1.41452e-07
-7.31776e-08
-1.34314e-07
-7.62168e-08
-1.26898e-07
-7.91186e-08
-1.19216e-07
-8.18719e-08
-1.11285e-07
-8.44639e-08
-1.0312e-07
-8.68779e-08
-9.47397e-08
-8.90902e-08
-8.61673e-08
-9.10645e-08
-7.74294e-08
-9.27435e-08
-6.85613e-08
-9.40361e-08
-5.96107e-08
-9.48009e-08
-5.06442e-08
-9.48257e-08
-4.17558e-08
-9.38069e-08
-3.30773e-08
-9.13329e-08
-2.47895e-08
-8.68817e-08
-1.71334e-08
-7.98393e-08
-1.04176e-08
-6.95491e-08
-5.02035e-09
-5.53907e-08
-1.38411e-09
-3.68815e-08
-1.37875e-08
-1.28167e-09
1.38082e-08
-4.65702e-09
3.70403e-08
-9.6706e-09
5.56779e-08
-1.5908e-08
6.99092e-08
-2.30143e-08
8.02182e-08
-3.07021e-08
8.72534e-08
-3.87499e-08
9.17078e-08
-4.69948e-08
9.42271e-08
-5.53213e-08
9.53549e-08
-6.36498e-08
9.55124e-08
-7.19259e-08
9.50036e-08
-8.01121e-08
9.40349e-08
-8.81816e-08
9.27387e-08
-9.61139e-08
9.11963e-08
-1.03893e-07
8.94557e-08
-1.11503e-07
8.75445e-08
-1.18932e-07
8.54789e-08
-1.26168e-07
8.32687e-08
-1.33199e-07
8.09204e-08
-1.40013e-07
7.84389e-08
-1.46599e-07
7.58285e-08
-1.52948e-07
7.30932e-08
-1.59048e-07
7.02367e-08
-1.6489e-07
6.7263e-08
-1.70465e-07
6.41761e-08
-1.75763e-07
6.09799e-08
-1.80775e-07
5.76784e-08
-1.85494e-07
5.42759e-08
-1.89911e-07
5.07765e-08
-1.94019e-07
4.71845e-08
-1.9781e-07
4.35042e-08
-2.01277e-07
3.97403e-08
-2.04414e-07
3.5897e-08
-2.07214e-07
3.19792e-08
-2.09672e-07
2.79916e-08
-2.11781e-07
2.3939e-08
-2.13538e-07
1.98265e-08
-2.14936e-07
1.56591e-08
-2.15972e-07
1.14423e-08
-2.16642e-07
7.18147e-09
-2.16943e-07
2.88239e-09
-2.1687e-07
-1.44907e-09
-2.16421e-07
-5.80677e-09
-2.15595e-07
-1.01844e-08
-2.1439e-07
-1.45752e-08
-2.12803e-07
-1.89724e-08
-2.10836e-07
-2.33688e-08
-2.08488e-07