/*--------------------------------*- C++ -*----------------------------------*\
  =========                 |
  \\      /  F ield         | OpenFOAM: The Open Source CFD Toolbox
   \\    /   O peration     | Website:  https://openfoam.org
    \\  /    A nd           | Version:  7
     \\/     M anipulation  |
\*---------------------------------------------------------------------------*/
FoamFile
{
    version     2.0;
    format      ascii;
    class       volScalarField;
    location    "1.475";
    object      p;
}
// * * * * * * * * * * * * * * * * * * * * * * * * * * * * * * * * * * * * * //

dimensions      [0 2 -2 0 0 0 0];

internalField   nonuniform List<scalar> 
6400
(
1.92703e-06
-3.5278e-08
-6.38776e-05
-0.000186001
-0.000351358
-0.000546576
-0.000760021
-0.000981862
-0.00120402
-0.00142007
-0.00162494
-0.00181472
-0.00198641
-0.00213773
-0.002267
-0.00237301
-0.00245488
-0.00251199
-0.00254393
-0.00255041
-0.00253125
-0.00248633
-0.0024156
-0.00231904
-0.00219668
-0.0020486
-0.00187494
-0.00167592
-0.00145186
-0.00120318
-0.000930452
-0.000634409
-0.000315958
2.3787e-05
0.00038349
0.000761582
0.00115625
0.00156542
0.00198679
0.00241777
0.00285556
0.00329711
0.00373919
0.00417837
0.00461109
0.00503368
0.00544242
0.00583357
0.00620346
0.00654851
0.00686531
0.00715069
0.00740175
0.00761595
0.00779117
0.00792572
0.00801844
0.0080687
0.00807645
0.00804223
0.00796723
0.00785323
0.00770262
0.00751842
0.00730425
0.00706426
0.00680317
0.00652619
0.00623904
0.00594784
0.00565919
0.00538005
0.00511774
0.0048799
0.00467435
0.00450882
0.00439021
0.00432364
0.00431109
0.00433984
6.33726e-06
3.32623e-06
-5.31429e-05
-0.000156672
-0.000295123
-0.00045902
-0.000639462
-0.00082857
-0.00101949
-0.00120655
-0.00138511
-0.00155146
-0.00170265
-0.00183638
-0.00195089
-0.00204483
-0.00211721
-0.00216726
-0.00219444
-0.00219836
-0.00217873
-0.00213535
-0.00206812
-0.00197696
-0.00186186
-0.0017229
-0.00156018
-0.00137394
-0.00116447
-0.000932202
-0.000677695
-0.000401656
-0.000104964
0.000211313
0.000545904
0.000897321
0.00126386
0.00164358
0.00203431
0.00243367
0.00283904
0.00324762
0.00365641
0.00406226
0.00446191
0.00485199
0.00522909
0.00558983
0.00593084
0.00624889
0.00654089
0.00680397
0.00703555
0.00723335
0.00739548
0.00752049
0.00760736
0.0076556
0.00766523
0.00763686
0.0075716
0.00747119
0.00733788
0.00717451
0.00698442
0.00677148
0.00654003
0.00629485
0.00604113
0.00578444
0.00553066
0.00528593
0.00505661
0.00484913
0.00466987
0.00452484
0.00441894
0.00435567
0.00433958
0.00436851
7.09082e-05
5.98446e-05
2.87125e-06
-9.28724e-05
-0.000217384
-0.000363186
-0.000523235
-0.000690995
-0.000860683
-0.00102737
-0.00118692
-0.00133594
-0.00147168
-0.00159194
-0.00169499
-0.00177948
-0.00184436
-0.00188884
-0.00191231
-0.00191431
-0.00189451
-0.00185265
-0.00178858
-0.00170218
-0.00159343
-0.00146235
-0.00130904
-0.00113371
-0.000936633
-0.000718214
-0.000478979
-0.0002196
5.90873e-05
0.000356071
0.00067015
0.000999919
0.00134377
0.00169988
0.00206621
0.00244051
0.00282035
0.00320309
0.00358594
0.00396594
0.00434005
0.00470514
0.00505802
0.00539554
0.00571459
0.00601215
0.00628536
0.00653159
0.00674844
0.00693382
0.00708602
0.0072037
0.00728598
0.00733243
0.00734315
0.00731872
0.00726027
0.00716944
0.00704839
0.00689979
0.00672682
0.00653308
0.00632262
0.00609989
0.00586966
0.00563704
0.00540734
0.0051861
0.00497891
0.00479139
0.00462901
0.00449683
0.00439894
0.00433861
0.00432308
0.00435648
0.000194461
0.000163865
9.76255e-05
9.00047e-07
-0.00011922
-0.00025653
-0.000405191
-0.000559792
-0.000715485
-0.000868052
-0.00101391
-0.00115007
-0.00127405
-0.00138385
-0.00147787
-0.00155484
-0.00161375
-0.00165381
-0.00167441
-0.00167507
-0.00165544
-0.00161524
-0.00155427
-0.00147239
-0.00136954
-0.00124572
-0.001101
-0.000935544
-0.000749596
-0.000543517
-0.000317789
-7.30335e-05
0.000189973
0.000470283
0.000766771
0.00107812
0.00140282
0.00173914
0.00208517
0.0024388
0.00279771
0.00315942
0.00352129
0.00388053
0.00423425
0.00457949
0.00491324
0.00523252
0.00553437
0.00581596
0.00607458
0.00630772
0.00651315
0.00668889
0.00683332
0.00694521
0.00702374
0.00706854
0.00707972
0.00705786
0.00700406
0.0069199
0.00680746
0.00666928
0.00650838
0.00632817
0.00613246
0.00592542
0.00571149
0.00549538
0.00528198
0.00507632
0.00488344
0.00470837
0.00455596
0.00443081
0.00433664
0.00427687
0.0042598
0.00429166
0.000363363
0.00030406
0.00022173
0.00011814
-3.39815e-06
-0.000137795
-0.00028022
-0.000426314
-0.000572109
-0.000714101
-0.000849282
-0.000975097
-0.00108941
-0.00119048
-0.00127688
-0.00134747
-0.00140132
-0.00143769
-0.00145601
-0.00145581
-0.00143673
-0.00139848
-0.00134084
-0.00126364
-0.00116678
-0.00105024
-0.000914048
-0.000758312
-0.000583238
-0.000389131
-0.000176418
5.43415e-05
0.000302442
0.000567014
0.000847014
0.00114122
0.00144821
0.00176637
0.00209391
0.00242882
0.00276892
0.00311185
0.0034551
0.00379604
0.00413189
0.00445985
0.00477704
0.0050806
0.00536771
0.00563565
0.00588184
0.00610389
0.00629962
0.00646718
0.00660501
0.00671192
0.00678714
0.00683034
0.00684162
0.00682155
0.0067712
0.0066921
0.00658622
0.00645603
0.00630437
0.00613449
0.00595
0.00575481
0.00555307
0.00534917
0.0051476
0.00495296
0.00476985
0.00460277
0.00445612
0.00433404
0.00424005
0.00417751
0.00415424
0.00417623
0.000565246
0.000471499
0.000368029
0.000252898
0.000125243
-1.08418e-05
-0.000151387
-0.000292987
-0.000432511
-0.000567149
-0.000694463
-0.00081236
-0.000919074
-0.00101315
-0.00109338
-0.0011588
-0.00120859
-0.00124211
-0.00125884
-0.00125834
-0.00124027
-0.00120432
-0.00115028
-0.00107794
-0.000987188
-0.000877945
-0.000750201
-0.000604015
-0.000439535
-0.000257004
-5.67812e-05
0.000160648
0.000394655
0.000644459
0.000909105
0.00118746
0.00147822
0.00177986
0.0020907
0.00240885
0.00273223
0.00305862
0.0033856
0.00371065
0.00403113
0.00434432
0.00464746
0.00493777
0.00521255
0.00546915
0.00570506
0.00591796
0.00610575
0.0062666
0.006399
0.0065018
0.00657423
0.00661597
0.00662711
0.0066082
0.00656027
0.00648477
0.00638363
0.00625919
0.00611417
0.00595169
0.00577517
0.00558828
0.00539497
0.00519929
0.00500544
0.00481765
0.00464011
0.00447693
0.00433209
0.00420933
0.00411196
0.00404318
0.0040093
0.00401485
0.000789127
0.000657602
0.000529581
0.000399325
0.000261779
0.000120205
-2.21509e-05
-0.000162747
-0.000299231
-0.000429451
-0.000551518
-0.000663803
-0.000764929
-0.000853749
-0.000929311
-0.000990826
-0.00103764
-0.00106922
-0.00108512
-0.00108496
-0.00106841
-0.00103519
-0.000985048
-0.000917798
-0.000833271
-0.000731354
-0.000611984
-0.000475166
-0.000320981
-0.000149601
3.86908e-05
0.00024349
0.000464257
0.000700301
0.000950762
0.00121461
0.00149063
0.00177742
0.00207339
0.00237675
0.00268554
0.00299761
0.00331067
0.00362227
0.00392985
0.00423079
0.00452239
0.00480195
0.0050668
0.00531437
0.00554217
0.00574792
0.00592955
0.00608523
0.00621346
0.0063131
0.00638338
0.00642393
0.00643483
0.0064166
0.0063702
0.00629706
0.006199
0.00607829
0.00593754
0.00577975
0.00560816
0.00542629
0.00523786
0.0050467
0.00485673
0.00467187
0.00449599
0.00433288
0.00418613
0.00405916
0.00395507
0.00387681
0.00382867
0.00381316
0.00102532
0.000854372
0.000699599
0.00055164
0.000401375
0.000251376
0.000104277
-3.81637e-05
-0.000174307
-0.00030261
-0.000421713
-0.000530447
-0.000627824
-0.000713018
-0.000785335
-0.000844195
-0.000889118
-0.000919695
-0.00093557
-0.000936424
-0.000921965
-0.000891931
-0.00084608
-0.000784193
-0.000706075
-0.000611568
-0.000500556
-0.000372981
-0.00022885
-6.82614e-05
0.000108588
0.000301384
0.000509681
0.000732884
0.000970234
0.0012208
0.00148347
0.00175695
0.00203974
0.00233014
0.0026263
0.00292614
0.00322746
0.00352787
0.0038249
0.00411595
0.00439838
0.00466953
0.00492676
0.0051675
0.00538929
0.00558984
0.00576705
0.0059191
0.00604447
0.00614198
0.00621081
0.00625058
0.00626131
0.00624347
0.00619798
0.00612619
0.00602987
0.00591118
0.00577267
0.0056172
0.00544791
0.00526817
0.0050815
0.00489157
0.00470206
0.00451666
0.00433897
0.00417248
0.00402051
0.00388616
0.00377232
0.00368179
0.00361654
0.00357684
0.0012654
0.00105446
0.000871661
0.000704249
0.000539227
0.000378594
0.000224467
7.79001e-05
-6.01121e-05
-0.000188595
-0.000306699
-0.0004137
-0.000508989
-0.000592054
-0.000662471
-0.000719882
-0.000763984
-0.000794502
-0.000811179
-0.000813768
-0.000802023
-0.000775703
-0.000734568
-0.000678381
-0.000606914
-0.000519965
-0.000417358
-0.000298965
-0.000164719
-1.46322e-05
0.00015119
0.000332529
0.000529038
0.000740223
0.000965432
0.00120384
0.00145443
0.00171601
0.00198717
0.00226632
0.00255167
0.00284122
0.00313284
0.00342419
0.00371285
0.00399624
0.00427176
0.00453675
0.00478856
0.00502462
0.00524244
0.0054397
0.00561427
0.00576427
0.00588813
0.00598461
0.00605285
0.00609239
0.00610321
0.0060857
0.00604072
0.00596956
0.0058739
0.00575586
0.00561788
0.00546273
0.00529346
0.00511331
0.00492569
0.00473408
0.00454202
0.00435298
0.00417038
0.00399747
0.00383732
0.00369277
0.0035666
0.00346141
0.00337684
0.00331097
0.00150209
0.00125124
0.0010398
0.000851817
0.000670619
0.000497727
0.000334825
0.000182335
4.06609e-05
-8.97572e-05
-0.000208548
-0.000315409
-0.000410093
-0.000492404
-0.000562186
-0.000619307
-0.000663638
-0.000695042
-0.000713368
-0.000718445
-0.000710076
-0.000688043
-0.000652107
-0.000602013
-0.000537502
-0.000458319
-0.000364226
-0.000255023
-0.000130559
9.24398e-06
0.000164377
0.000334722
0.000520039
0.000719942
0.000933884
0.00116115
0.00140082
0.0016518
0.00191278
0.00218225
0.00245849
0.00273958
0.00302342
0.00330773
0.0035901
0.00386798
0.00413875
0.00439974
0.0046483
0.00488178
0.00509767
0.00529358
0.0054673
0.00561689
0.00574069
0.00583738
0.00590603
0.00594609
0.00595744
0.00594042
0.00589581
0.0058248
0.00572904
0.00561055
0.0054717
0.0053152
0.005144
0.00496126
0.00477028
0.00457444
0.00437714
0.00418172
0.00399143
0.00380937
0.00363841
0.0034812
0.00334043
0.0032186
0.00311306
0.00301977
0.00172894
0.00143867
0.00119844
0.000989271
0.000790969
0.00060467
0.000431695
0.000271893
0.000125117
-8.68696e-06
-0.000129592
-0.000237693
-0.000333094
-0.000415908
-0.00048624
-0.000544173
-0.000589754
-0.000622982
-0.000643816
-0.000652161
-0.000647868
-0.000630739
-0.000600538
-0.00055699
-0.000499798
-0.000428654
-0.000343254
-0.000243318
-0.00012861
1.04514e-06
0.000145742
0.000305471
0.000480099
0.000669354
0.000872801
0.00108983
0.00131963
0.00156121
0.00181333
0.00207458
0.0023433
0.00261763
0.00289551
0.00317469
0.00345277
0.00372719
0.00399532
0.00425446
0.00450189
0.00473491
0.00495092
0.00514744
0.00532218
0.00547309
0.00559841
0.0056967
0.00576692
0.00580842
0.00582098
0.00580485
0.0057607
0.00568967
0.0055933
0.00547356
0.00533275
0.00517352
0.00499875
0.00481154
0.00461513
0.00441281
0.00420789
0.00400363
0.00380319
0.00360954
0.00342543
0.00325336
0.00309603
0.0029559
0.00282813
0.00270666
0.00194021
0.00161126
0.00134242
0.0011118
0.000895843
0.000695376
0.000511398
0.000343229
0.000190215
5.18453e-05
-7.23688e-05
-0.000182901
-0.000280194
-0.000364653
-0.000436634
-0.000496426
-0.000544245
-0.000580228
-0.000604438
-0.000616851
-0.000617365
-0.000605802
-0.000581923
-0.000545432
-0.000495987
-0.000433224
-0.00035677
-0.000266261
-0.000161366
-4.18091e-05
9.26133e-05
0.000242003
0.000406345
0.000585482
0.000779096
0.000986686
0.00120755
0.00144079
0.00168528
0.00193965
0.00220232
0.0024715
0.00274513
0.00302101
0.00329671
0.00356968
0.00383723
0.00409661
0.00434502
0.0045797
0.00479793
0.00499711
0.00517484
0.00532892
0.00545746
0.0055589
0.00563205
0.00567613
0.0056908
0.0056762
0.00563289
0.0055619
0.00546472
0.00534323
0.00519967
0.00503663
0.00485695
0.0046637
0.00446006
0.00424929
0.00403466
0.00381939
0.00360657
0.00339915
0.00319978
0.0030109
0.00283528
0.00267543
0.00252442
0.00237425
0.00213064
0.00176394
0.00146689
0.00121482
0.000980968
0.000765872
0.000570254
0.000392943
0.000232815
8.89327e-05
-3.95868e-05
-0.000153577
-0.000253802
-0.000340944
-0.000415592
-0.000478233
-0.000529248
-0.000568905
-0.000597362
-0.000614664
-0.00062075
-0.000615459
-0.000598543
-0.000569677
-0.000528476
-0.000474513
-0.000407339
-0.0003265
-0.000231567
-0.000122155
2.05115e-06
0.000141274
0.00029562
0.000465055
0.000649378
0.000848205
0.00106095
0.0012868
0.00152473
0.00177345
0.00203145
0.00229695
0.00256797
0.00284228
0.00311746
0.00339091
0.00365991
0.00392162
0.00417317
0.00441166
0.00463425
0.00483823
0.00502101
0.00518025
0.0053139
0.00542022
0.00549787
0.0055459
0.00556385
0.00555168
0.00550985
0.00543928
0.00534137
0.00521791
0.0050711
0.00490347
0.00471784
0.00451724
0.00430485
0.00408393
0.00385775
0.00362952
0.00340235
0.00317917
0.00296264
0.00275519
0.00255973
0.00237889
0.00220374
0.00202446
0.00229542
0.00189198
0.00156729
0.00129398
0.00104221
0.000812269
0.000604611
0.000417615
0.000249715
9.95668e-05
-3.40879e-05
-0.000152422
-0.000256499
-0.000347261
-0.00042552
-0.000491953
-0.000547094
-0.000591332
-0.000624915
-0.000647948
-0.000660405
-0.000662135
-0.000652877
-0.000632272
-0.000599884
-0.000555219
-0.000497745
-0.000426914
-0.000342192
-0.00024308
-0.000129143
-3.25903e-08
0.000144486
0.000304505
0.000479951
0.00067056
0.000875859
0.00109514
0.00132747
0.00157165
0.00182621
0.00208945
0.00235937
0.00263377
0.00291021
0.00318605
0.00345849
0.00372463
0.00398147
0.00422598
0.00445518
0.00466618
0.00485622
0.00502279
0.00516361
0.00527677
0.00536071
0.00541434
0.00543697
0.00542842
0.00538901
0.00531954
0.00522127
0.00509594
0.00494567
0.00477296
0.0045806
0.00437163
0.00414924
0.00391671
0.00367736
0.00343445
0.00319113
0.0029504
0.00271498
0.00248733
0.00227058
0.00206756
0.00186745
0.00165863
0.00243003
0.00199095
0.0016393
0.00134512
0.0010756
0.000830773
0.000610872
0.000413836
0.000237678
8.06671e-05
-5.88115e-05
-0.00018225
-0.000290993
-0.00038623
-0.000468984
-0.000540109
-0.000600282
-0.000650001
-0.000689595
-0.000719224
-0.000738886
-0.000748435
-0.000747587
-0.000735946
-0.000713019
-0.000678237
-0.00063098
-0.000570598
-0.000496447
-0.000407908
-0.000304418
-0.000185495
-5.07705e-05
9.99835e-05
0.000266824
0.000449616
0.000648005
0.000861401
0.00108896
0.00132956
0.00158182
0.00184405
0.00211431
0.00239038
0.0026698
0.00294988
0.00322777
0.00350043
0.00376475
0.00401756
0.0042557
0.00447609
0.00467576
0.00485197
0.00500225
0.00512443
0.00521674
0.00527785
0.00530688
0.00530346
0.00526772
0.00520032
0.0051024
0.00497559
0.00482197
0.00464398
0.00444441
0.0042263
0.0039929
0.00374755
0.00349363
0.00323449
0.0029734
0.00271347
0.00245753
0.00220816
0.00196875
0.00174241
0.00151645
0.00127754
0.00253023
0.00205667
0.00167883
0.00136427
0.00107729
0.000817697
0.0005855
0.000378218
0.000193455
2.91132e-05
-0.000116759
-0.000245957
-0.000360095
-0.000460593
-0.000548675
-0.000625358
-0.000691449
-0.000747547
-0.000794052
-0.000831167
-0.000858909
-0.000877123
-0.000885502
-0.000883604
-0.00087087
-0.00084665
-0.00081023
-0.000760853
-0.000697756
-0.000620191
-0.00052746
-0.000418943
-0.000294127
-0.000152642
5.70985e-06
0.000180928
0.000372787
0.000580816
0.000804273
0.00104213
0.00129307
0.00155546
0.00182737
0.0021066
0.00239066
0.00267682
0.00296211
0.00324341
0.00351746
0.00378092
0.00403044
0.00426271
0.00447455
0.00466296
0.00482519
0.00495884
0.00506186
0.00513266
0.00517013
0.00517365
0.00514317
0.00507916
0.00498261
0.00485507
0.0046985
0.00451534
0.00430837
0.00408064
0.00383547
0.00357628
0.00330659
0.00302987
0.00274955
0.00246889
0.0021909
0.00191833
0.00165491
0.00140406
0.00115131
0.000881589
0.00259197
0.00208514
0.00168198
0.00134762
0.00104359
0.00076946
0.000525032
0.000307411
0.000113808
-5.82257e-05
-0.000210965
-0.000346495
-0.000466686
-0.000573179
-0.000667382
-0.000750463
-0.000823348
-0.000886727
-0.000941059
-0.000986581
-0.00102332
-0.0010511
-0.0010696
-0.0010783
-0.00107658
-0.00106371
-0.00103886
-0.00100117
-0.000949737
-0.00088369
-0.000802182
-0.000704445
-0.000589816
-0.000457773
-0.000307965
-0.00014025
4.52863e-05
0.0002483
0.000468164
0.000703949
0.000954409
0.00121798
0.00149276
0.00177655
0.00206683
0.00236083
0.00265548
0.00294755
0.00323361
0.00351015
0.0037736
0.00402041
0.00424714
0.0044505
0.00462747
0.00477531
0.00489169
0.00497472
0.00502299
0.00503563
0.00501236
0.00495341
0.00485964
0.00473244
0.0045737
0.00438579
0.00417151
0.00393395
0.0036765
0.00340271
0.00311623
0.00282073
0.00251982
0.00221701
0.00191551
0.00161829
0.00132949
0.00105292
0.000772282
0.000470803
0.00261141
0.00207258
0.00164502
0.00129151
0.000970917
0.000682587
0.000426085
0.000198124
-4.46242e-06
-0.000184465
-0.00034447
-0.000486841
-0.000613692
-0.000726871
-0.000827958
-0.000918261
-0.000998814
-0.00107039
-0.00113348
-0.00118837
-0.00123507
-0.0012734
-0.00130296
-0.00132321
-0.00133344
-0.0013328
-0.00132038
-0.00129519
-0.00125619
-0.00120236
-0.0011327
-0.00104629
-0.000942306
-0.00082006
-0.000679044
-0.000518952
-0.000339724
-0.000141562
7.50321e-05
0.000309238
0.000559901
0.000825519
0.00110424
0.00139388
0.00169189
0.00199543
0.00230138
0.00260634
0.00290675
0.00319888
0.00347894
0.00374311
0.00398765
0.00420896
0.00440369
0.00456875
0.00470147
0.00479961
0.00486144
0.00488578
0.00487204
0.00482025
0.00473104
0.00460563
0.00444583
0.00425396
0.00403278
0.00378547
0.00351549
0.00322654
0.00292246
0.00260713
0.00228443
0.00195812
0.00163167
0.00130837
0.000992772
0.000689152
0.000379394
4.49551e-05
0.00258487
0.00201536
0.00156438
0.00119245
0.000855859
0.000553719
0.000285372
4.71457e-05
-0.000164498
-0.000352683
-0.000520296
-0.00066997
-0.000804048
-0.000924575
-0.00103329
-0.00113164
-0.00122074
-0.00130143
-0.00137426
-0.00143951
-0.0014972
-0.0015471
-0.00158879
-0.00162163
-0.00164482
-0.00165745
-0.00165845
-0.00164671
-0.00162105
-0.0015803
-0.00152331
-0.00144896
-0.00135628
-0.00124439
-0.00111262
-0.000960485
-0.000787761
-0.000594499
-0.000381059
-0.000148135
0.000103222
0.000371593
0.000655182
0.000951815
0.00125895
0.00157369
0.00189281
0.0022128
0.00252993
0.00284024
0.0031397
0.0034242
0.00368969
0.0039322
0.00414801
0.00433365
0.00448605
0.00460257
0.00468111
0.00472012
0.0047187
0.00467657
0.00459412
0.00447239
0.00431305
0.00411835
0.00389105
0.00363436
0.00335187
0.00304745
0.00272515
0.00238911
0.0020435
0.0016924
0.00133962
0.00098876
0.000644901
0.000312806
-2.75027e-05
-0.000396384
0.00250883
0.00191002
0.00143666
0.00104709
0.000695116
0.000379621
9.97196e-05
-0.000148642
-0.000369365
-0.0005659
-0.000741425
-0.000898828
-0.00104067
-0.00116919
-0.00128628
-0.00139349
-0.00149203
-0.00158279
-0.00166637
-0.00174304
-0.00181279
-0.00187539
-0.00193032
-0.00197689
-0.00201421
-0.00204124
-0.0020568
-0.00205963
-0.0020484
-0.00202179
-0.00197845
-0.00191711
-0.0018366
-0.00173585
-0.00161401
-0.00147039
-0.00130461
-0.00111653
-0.000906355
-0.000674639
-0.000422308
-0.000150676
0.000138525
0.00044316
0.000760684
0.00108816
0.00142229
0.00175943
0.00209565
0.00242681
0.00274859
0.00305656
0.00334633
0.00361354
0.00385405
0.00406397
0.00423976
0.00437836
0.0044772
0.00453433
0.00454846
0.00451897
0.00444596
0.00433024
0.00417331
0.00397732
0.00374503
0.00347969
0.00318502
0.00286506
0.00252412
0.00216665
0.00179713
0.00142003
0.00103953
0.000659617
0.000285942
-7.6184e-05
-0.000448675
-0.000853781
0.00237991
0.00175326
0.00125861
0.00085223
0.000485543
0.000157197
-0.000133923
-0.000392248
-0.000622037
-0.000827057
-0.00101077
-0.00117631
-0.00132645
-0.0014636
-0.0015898
-0.00170669
-0.00181558
-0.00191741
-0.00201278
-0.00210196
-0.00218495
-0.00226142
-0.00233084
-0.00239239
-0.00244511
-0.00248782
-0.00251923
-0.00253791
-0.00254239
-0.00253115
-0.00250268
-0.00245551
-0.00238827
-0.00229969
-0.0021887
-0.00205443
-0.00189628
-0.00171392
-0.00150738
-0.00127705
-0.0010237
-0.000748527
-0.000453174
-0.000139719
0.000189311
0.000530952
0.000881828
0.00123818
0.0015959
0.00195061
0.00229772
0.00263246
0.00295005
0.00324573
0.00351488
0.00375313
0.00395644
0.00412123
0.00424443
0.00432362
0.00435705
0.00434369
0.0042833
0.00417642
0.00402433
0.00382906
0.00359332
0.00332043
0.00301421
0.00267894
0.00231918
0.0019397
0.0015454
0.00114115
0.000731559
0.000321061
-8.40756e-05
-0.00047793
-0.000884449
-0.00132788
0.0021949
0.00154193
0.00102715
0.000604837
0.00022415
-0.000116502
-0.000418472
-0.00068656
-0.000925376
-0.00113899
-0.00133115
-0.00150522
-0.00166418
-0.0018106
-0.00194665
-0.00207408
-0.00219426
-0.00230818
-0.00241643
-0.0025193
-0.00261674
-0.00270838
-0.0027936
-0.00287151
-0.00294103
-0.00300086
-0.00304955
-0.00308555
-0.00310719
-0.00311278
-0.00310061
-0.00306901
-0.00301638
-0.00294126
-0.00284232
-0.0027185
-0.00256895
-0.00239314
-0.00219089
-0.0019624
-0.00170826
-0.00142952
-0.00112772
-0.000804841
-0.000463381
-0.000106308
0.000262943
0.000640499
0.00102209
0.00140309
0.00177861
0.00214356
0.00249272
0.00282089
0.00312293
0.00339394
0.00362931
0.00382487
0.00397701
0.00408273
0.00413975
0.00414658
0.00410257
0.00400789
0.00386359
0.00367154
0.00343437
0.00315543
0.00283869
0.00248861
0.00211009
0.00170825
0.00128842
0.000855932
0.000415896
-2.67736e-05
-0.000465115
-0.000892544
-0.00133516
-0.00181933
0.00195077
0.00127309
0.000739382
0.000302052
-9.1884e-05
-0.000444268
-0.000756692
-0.00103432
-0.00128211
-0.00150442
-0.00170527
-0.00188826
-0.00205656
-0.0022129
-0.00235957
-0.00249841
-0.00263085
-0.00275791
-0.0028802
-0.00299799
-0.00311118
-0.00321935
-0.00332181
-0.00341757
-0.00350542
-0.00358395
-0.00365155
-0.0037065
-0.00374697
-0.00377106
-0.00377685
-0.00376246
-0.00372607
-0.00366595
-0.00358057
-0.00346859
-0.00332893
-0.00316081
-0.00296382
-0.00273792
-0.00248352
-0.0022015
-0.00189322
-0.00156057
-0.00120599
-0.000832407
-0.00044331
-4.26657e-05
0.000365091
0.000775111
0.0011822
0.0015809
0.00196557
0.00233049
0.00266999
0.00297855
0.00325095
0.00348238
0.00366855
0.00380583
0.00389134
0.00392303
0.00389974
0.00382126
0.0036883
0.00350252
0.00326644
0.00298343
0.00265757
0.00229357
0.00189662
0.00147226
0.0010263
0.00056459
9.27695e-05
-0.000383695
-0.000857084
-0.00132009
-0.0018011
-0.00232875
0.00164465
0.000943933
0.000392578
-5.88029e-05
-0.000465204
-0.00082872
-0.00115118
-0.00143812
-0.0016948
-0.00192591
-0.0021357
-0.002328
-0.00250617
-0.00267308
-0.00283115
-0.0029823
-0.003128
-0.00326931
-0.00340685
-0.00354085
-0.00367117
-0.00379735
-0.00391858
-0.00403379
-0.00414166
-0.00424061
-0.00432891
-0.00440464
-0.0044658
-0.00451028
-0.00453595
-0.00454068
-0.00452241
-0.00447916
-0.00440913
-0.00431071
-0.00418255
-0.00402359
-0.00383316
-0.00361097
-0.00335719
-0.00307248
-0.00275802
-0.00241556
-0.00204742
-0.0016565
-0.00124629
-0.000820831
-0.000384706
5.70159e-05
0.00049884
0.000934924
0.00135917
0.00176534
0.00214715
0.00249845
0.0028133
0.00308616
0.00331202
0.00348651
0.00360604
0.00366792
0.0036704
0.00361276
0.00349533
0.00331948
0.00308759
0.00280301
0.00246992
0.00209324
0.00167853
0.00123176
0.000759241
0.000267409
-0.000237502
-0.00074942
-0.0012598
-0.00176052
-0.00228247
-0.00285667
0.00127388
0.000551899
-1.57825e-05
-0.000480212
-0.000898265
-0.00127229
-0.00160436
-0.00190035
-0.00216586
-0.00240585
-0.00262483
-0.00282684
-0.00301542
-0.00319358
-0.00336385
-0.00352822
-0.00368824
-0.00384495
-0.00399899
-0.00415055
-0.00429947
-0.0044452
-0.00458685
-0.00472324
-0.00485292
-0.00497419
-0.00508514
-0.00518369
-0.00526761
-0.00533461
-0.00538231
-0.00540833
-0.00541036
-0.00538614
-0.00533358
-0.00525078
-0.00513608
-0.00498813
-0.00480594
-0.00458894
-0.00433702
-0.00405058
-0.0037306
-0.00337862
-0.00299682
-0.00258803
-0.00215569
-0.0017039
-0.00123736
-0.000761356
-0.000281669
0.000195473
0.000663498
0.0011156
0.00154487
0.00194443
0.00230758
0.00262796
0.00289974
0.00311771
0.00327749
0.00337559
0.00340959
0.00337817
0.00328118
0.00311962
0.00289567
0.0026126
0.00227467
0.00188705
0.0014556
0.000986803
0.000487506
-3.52138e-05
-0.000574472
-0.00112353
-0.00167292
-0.00221367
-0.00277931
-0.00340347
0.000836009
9.46134e-05
-0.000488014
-0.000964453
-0.00139332
-0.00177721
-0.00211844
-0.00242323
-0.00269749
-0.00294645
-0.00317487
-0.00338699
-0.00358653
-0.00377663
-0.00395992
-0.00413848
-0.00431386
-0.00448717
-0.00465902
-0.00482958
-0.00499862
-0.00516553
-0.00532934
-0.00548876
-0.0056422
-0.00578782
-0.00592355
-0.00604711
-0.00615609
-0.00624795
-0.00632009
-0.00636986
-0.00639465
-0.00639194
-0.00635931
-0.00629454
-0.00619563
-0.0060609
-0.00588903
-0.0056791
-0.0054307
-0.00514393
-0.00481947
-0.00445866
-0.00406347
-0.0036366
-0.00318143
-0.00270206
-0.00220329
-0.00169057
-0.00116998
-0.000648127
-0.000132063
0.000370818
0.000852923
0.0013066
0.00172432
0.00209883
0.00242334
0.00269173
0.00289867
0.00303979
0.00311186
0.00311284
0.00304197
0.00289982
0.00268827
0.00241046
0.00207069
0.00167433
0.00122763
0.000737517
0.000211472
-0.000342745
-0.000917535
-0.00150541
-0.00209593
-0.00267915
-0.00329147
-0.00396933
0.000328816
-0.000430065
-0.0010262
-0.00151358
-0.00195238
-0.00234548
-0.00269542
-0.00300874
-0.00329167
-0.00354969
-0.00378781
-0.00401046
-0.00422151
-0.00442426
-0.00462141
-0.00481511
-0.00500698
-0.00519811
-0.00538911
-0.00558014
-0.0057709
-0.00596071
-0.00614851
-0.0063329
-0.00651217
-0.00668433
-0.00684712
-0.00699809
-0.00713461
-0.00725391
-0.00735313
-0.00742936
-0.0074797
-0.00750128
-0.00749138
-0.0074474
-0.007367
-0.00724811
-0.00708905
-0.00688851
-0.00664572
-0.00636043
-0.00603301
-0.00566449
-0.0052566
-0.00481186
-0.00433353
-0.00382567
-0.00329312
-0.0027415
-0.00217713
-0.00160699
-0.00103862
-0.000480029
6.04812e-05
0.000574438
0.00105339
0.00148911
0.00187376
0.00220017
0.00246192
0.00265367
0.00277118
0.00281158
0.00277339
0.00265661
0.00246271
0.00219465
0.00185671
0.00145443
0.00099441
0.000484113
-6.83525e-05
-0.00065448
-0.00126588
-0.00189426
-0.00252806
-0.00315634
-0.00381854
-0.00455416
-0.000249669
-0.00102403
-0.00163219
-0.00212939
-0.00257726
-0.00297888
-0.00333706
-0.00365865
-0.00395016
-0.00421734
-0.00446541
-0.00469899
-0.00492213
-0.00513823
-0.00535008
-0.00555992
-0.00576939
-0.0059796
-0.00619115
-0.00640415
-0.00661828
-0.00683277
-0.00704647
-0.00725788
-0.00746516
-0.00766614
-0.00785843
-0.00803937
-0.00820611
-0.00835564
-0.00848484
-0.00859051
-0.00866944
-0.00871843
-0.00873438
-0.00871433
-0.00865554
-0.00855553
-0.0084122
-0.00822382
-0.00798921
-0.00770771
-0.0073793
-0.00700468
-0.00658527
-0.00612332
-0.00562194
-0.00508508
-0.00451758
-0.00392516
-0.00331436
-0.00269253
-0.00206767
-0.00144841
-0.000843801
-0.000263178
0.000284025
0.000788496
0.00124127
0.00163394
0.00195894
0.00220972
0.00238094
0.00246871
0.00247068
0.00238613
0.00221604
0.00196304
0.00163134
0.00122661
0.000755807
0.000226901
-0.000351306
-0.000969509
-0.00161846
-0.00228897
-0.00296827
-0.0036443
-0.00435982
-0.00515758
-0.000901144
-0.00168891
-0.00230757
-0.00281346
-0.00326947
-0.00367892
-0.00404487
-0.00437445
-0.00467446
-0.00495089
-0.00520916
-0.0054541
-0.00568988
-0.00592003
-0.00614745
-0.00637441
-0.00660261
-0.00683316
-0.00706665
-0.00730318
-0.00754235
-0.00778335
-0.00802493
-0.00826548
-0.00850303
-0.00873526
-0.00895961
-0.00917323
-0.00937303
-0.00955578
-0.00971807
-0.00985641
-0.00996726
-0.0100471
-0.0100923
-0.0100997
-0.010066
-0.00998833
-0.00986409
-0.00969111
-0.00946772
-0.00919282
-0.00886594
-0.00848734
-0.00805811
-0.00758015
-0.00705633
-0.00649044
-0.00588725
-0.00525253
-0.004593
-0.00391631
-0.00323094
-0.00254613
-0.00187167
-0.00121783
-0.000595085
-1.39043e-05
0.000515479
0.000983348
0.00138076
0.00169983
0.00193394
0.00207799
0.00212859
0.00208414
0.00194497
0.00171326
0.00139307
0.000990139
0.000511715
-3.36818e-05
-0.000636537
-0.00128668
-0.00197393
-0.00268812
-0.00341517
-0.00414174
-0.00491421
-0.00577882
-0.00162702
-0.00242605
-0.00305364
-0.00356707
-0.00403029
-0.00444688
-0.00482011
-0.0051574
-0.0054658
-0.00575155
-0.00602028
-0.00627696
-0.00652594
-0.00677084
-0.00701466
-0.00725973
-0.00750777
-0.00775992
-0.00801677
-0.00827837
-0.0085443
-0.00881366
-0.00908513
-0.00935699
-0.00962714
-0.00989313
-0.0101522
-0.0104013
-0.0106372
-0.0108563
-0.011055
-0.0112295
-0.0113758
-0.0114901
-0.0115685
-0.0116071
-0.0116024
-0.0115509
-0.0114496
-0.0112957
-0.0110871
-0.0108221
-0.0104998
-0.0101199
-0.00968313
-0.00919094
-0.00864586
-0.00805146
-0.00741237
-0.00673433
-0.00602418
-0.00528983
-0.0045402
-0.0037851
-0.00303512
-0.00230145
-0.00159566
-0.00092948
-0.000314506
0.000238077
0.000717813
0.00111528
0.00142239
0.00163266
0.00174141
0.001746
0.00164591
0.00144275
0.00114028
0.000744221
0.000262096
-0.000297056
-0.000922973
-0.00160457
-0.00233064
-0.00308994
-0.00386694
-0.00464694
-0.00548019
-0.00641667
-0.0024284
-0.00323652
-0.00387143
-0.00439122
-0.00486072
-0.00528373
-0.00566375
-0.00600845
-0.00632515
-0.00662028
-0.00689968
-0.00716849
-0.00743118
-0.00769151
-0.00795253
-0.00821665
-0.00848563
-0.00876062
-0.00904221
-0.00933042
-0.0096248
-0.00992438
-0.0102278
-0.0105331
-0.0108383
-0.0111406
-0.0114371
-0.0117247
-0.0119997
-0.0122585
-0.0124971
-0.0127113
-0.0128969
-0.0130497
-0.0131652
-0.0132393
-0.0132677
-0.0132467
-0.0131725
-0.0130419
-0.0128521
-0.0126009
-0.0122868
-0.0119089
-0.0114675
-0.0109634
-0.0103989
-0.00977714
-0.00910253
-0.00838073
-0.0076186
-0.00682426
-0.006007
-0.00517718
-0.00434617
-0.00352609
-0.00272967
-0.00196996
-0.00126002
-0.000612657
-3.99958e-05
0.000446818
0.000837996
0.00112543
0.00130296
0.00136667
0.00131496
0.00114871
0.000871206
0.000488059
6.98776e-06
-0.000562469
-0.00120929
-0.0019214
-0.00268652
-0.0034922
-0.00432134
-0.00515771
-0.00605572
-0.00706941
-0.00330607
-0.00412105
-0.00476167
-0.00528663
-0.00576146
-0.00619017
-0.00657647
-0.00692828
-0.00725313
-0.00755769
-0.00784795
-0.00812923
-0.00840613
-0.00868249
-0.00896148
-0.00924556
-0.00953651
-0.00983553
-0.0101432
-0.0104595
-0.010784
-0.0111156
-0.0114529
-0.011794
-0.0121364
-0.0124776
-0.0128144
-0.0131434
-0.0134608
-0.0137627
-0.0140447
-0.0143025
-0.0145315
-0.0147268
-0.0148838
-0.0149977
-0.0150639
-0.0150779
-0.0150355
-0.0149328
-0.0147664
-0.0145334
-0.0142316
-0.0138597
-0.0134171
-0.0129042