/*--------------------------------*- C++ -*----------------------------------*\
  =========                 |
  \\      /  F ield         | OpenFOAM: The Open Source CFD Toolbox
   \\    /   O peration     | Website:  https://openfoam.org
    \\  /    A nd           | Version:  7
     \\/     M anipulation  |
\*---------------------------------------------------------------------------*/
FoamFile
{
    version     2.0;
    format      ascii;
    class       volScalarField;
    location    "1";
    object      p;
}
// * * * * * * * * * * * * * * * * * * * * * * * * * * * * * * * * * * * * * //

dimensions      [0 2 -2 0 0 0 0];

internalField   nonuniform List<scalar> 
6400
(
2.25479e-08
-2.6688e-06
-3.44385e-05
-9.25591e-05
-0.000169707
-0.000259662
-0.000357217
-0.000458193
-0.000559422
-0.000658607
-0.000754125
-0.000844868
-0.000930116
-0.0010094
-0.00108241
-0.00114889
-0.00120862
-0.00126131
-0.00130664
-0.00134421
-0.0013735
-0.00139393
-0.00140483
-0.00140549
-0.00139515
-0.00137305
-0.00133844
-0.00129062
-0.00122897
-0.00115299
-0.00106232
-0.000956785
-0.000836409
-0.00070146
-0.000552469
-0.000390256
-0.000215936
-3.09411e-05
0.000162986
0.000363796
0.000569139
0.000776392
0.0009827
0.00118501
0.00138012
0.00156475
0.00173564
0.00188954
0.00202341
0.0021344
0.00221998
0.00227801
0.0023068
0.00230518
0.00227256
0.0022089
0.00211482
0.00199151
0.00184079
0.001665
0.00146702
0.00125016
0.00101813
0.000774917
0.000524742
0.000271962
2.10027e-05
-0.000223715
-0.000457838
-0.000677135
-0.000877545
-0.00105523
-0.00120667
-0.00132873
-0.00141891
-0.00147571
-0.00149936
-0.00149311
-0.00146473
-0.00142833
1.71045e-06
-1.01648e-06
-2.89457e-05
-7.8239e-05
-0.000143113
-0.000219166
-0.000302471
-0.000389675
-0.000478084
-0.000565628
-0.000650751
-0.000732328
-0.00080955
-0.000881838
-0.000948762
-0.00100997
-0.00106515
-0.00111394
-0.00115601
-0.00119091
-0.00121815
-0.00123719
-0.00124741
-0.00124818
-0.0012388
-0.00121862
-0.00118698
-0.00114326
-0.00108694
-0.0010176
-0.000934936
-0.000838819
-0.000729308
-0.000606673
-0.000471428
-0.000324346
-0.000166466
8.91671e-07
0.000176119
0.000357334
0.000542389
0.000728887
0.000914223
0.00109562
0.00127016
0.00143488
0.0015868
0.00172301
0.00184075
0.00193745
0.00201087
0.00205908
0.00208059
0.00207441
0.00204002
0.00197747
0.00188736
0.00177086
0.00162964
0.00146593
0.00128237
0.00108203
0.000868314
0.000644872
0.000415562
0.000184348
-4.47661e-05
-0.000267801
-0.000480869
-0.000680233
-0.000862366
-0.00102401
-0.00116226
-0.00127469
-0.00135952
-0.00141587
-0.0014444
-0.0014477
-0.0014285
-0.00139201
3.24892e-05
2.56573e-05
-2.59569e-06
-4.84526e-05
-0.000107193
-0.000175409
-0.000249988
-0.000328203
-0.000407803
-0.000486992
-0.000564385
-0.000638943
-0.000709882
-0.000776615
-0.000838686
-0.000895705
-0.000947315
-0.000993164
-0.00103287
-0.00106601
-0.00109211
-0.00111062
-0.00112099
-0.0011226
-0.00111483
-0.00109707
-0.0010687
-0.00102917
-0.000977999
-0.000914791
-0.000839283
-0.000751352
-0.000651052
-0.000538639
-0.000414589
-0.000279617
-0.000134685
1.89799e-05
0.000179885
0.00034628
0.000516166
0.000687311
0.000857286
0.0010235
0.00118323
0.00133371
0.00147215
0.00159585
0.00170222
0.00178887
0.0018537
0.00189495
0.00191123
0.00190164
0.00186573
0.00180358
0.00171581
0.00160353
0.00146838
0.00131248
0.00113835
0.000948897
0.000747332
0.000537101
0.00032181
0.000105157
-0.000109146
-0.000317438
-0.000516171
-0.000701968
-0.000871684
-0.00102246
-0.00115179
-0.00125762
-0.00133847
-0.00139355
-0.00142328
-0.00142917
-0.00140958
-0.00136332
9.09576e-05
7.43067e-05
4.13724e-05
-5.22342e-06
-6.22383e-05
-0.000126835
-0.000196493
-0.000269021
-0.000342584
-0.000415706
-0.000487232
-0.000556275
-0.000622158
-0.000684359
-0.000742451
-0.000796067
-0.000844861
-0.000888486
-0.000926568
-0.000958688
-0.000984381
-0.00100313
-0.00101439
-0.00101757
-0.00101208
-0.000997324
-0.000972722
-0.000937731
-0.00089188
-0.000834785
-0.000766172
-0.000685906
-0.000594013
-0.000490706
-0.00037641
-0.00025177
-0.000117672
2.47471e-05
0.000174097
0.000328737
0.000486782
0.000646126
0.000804464
0.000959328
0.00110813
0.00124821
0.00137692
0.00149165
0.00158992
0.00166943
0.00172818
0.00176445
0.00177694
0.00176478
0.00172755
0.00166535
0.0015788
0.00146899
0.00133755
0.00118652
0.00101836
0.000835898
0.000642222
0.000440648
0.000234626
2.76713e-05
-0.000176706
-0.000375074
-0.00056413
-0.000740765
-0.000902104
-0.00104556
-0.0011689
-0.00127024
-0.00134815
-0.0014017
-0.00143089
-0.00143621
-0.00141292
-0.00135594
0.000170733
0.000139616
9.8634e-05
4.84883e-05
-9.45436e-06
-7.2899e-05
-0.000139823
-0.000208545
-0.000277659
-0.000346033
-0.00041277
-0.000477187
-0.000538753
-0.000597048
-0.000651723
-0.000702464
-0.000748964
-0.000790901
-0.000827921
-0.00085962
-0.000885547
-0.000905198
-0.000918037
-0.000923499
-0.000921002
-0.000909952
-0.000889771
-0.000859916
-0.000819906
-0.000769339
-0.000707914
-0.000635458
-0.000551951
-0.000457547
-0.000352601
-0.000237683
-0.00011359
1.86321e-05
0.000157686
0.000302034
0.000449892
0.000599252
0.000747907
0.000893481
0.00103347
0.0011653
0.00128639
0.00139419
0.00148626
0.00156038
0.00161455
0.00164709
0.00165673
0.00164259
0.00160428
0.00154189
0.00145604
0.00134781
0.00121881
0.00107104
0.000906946
0.000729279
0.000541073
0.000345556
0.000146072
-5.39905e-05
-0.000251275
-0.000442519
-0.000624616
-0.000794663
-0.000950006
-0.00108827
-0.00120738
-0.0013056
-0.0013815
-0.00143396
-0.00146262
-0.00146726
-0.00144123
-0.00137739
0.000265849
0.000217287
0.00016573
0.000109788
4.87519e-05
-1.55815e-05
-8.1627e-05
-0.000148194
-0.000214308
-0.000279181
-0.000342206
-0.000402927
-0.000460989
-0.000516105
-0.000568036
-0.000616549
-0.000661392
-0.000702285
-0.000738905
-0.000770875
-0.000797751
-0.000819044
-0.000834228
-0.000842741
-0.000843997
-0.000837391
-0.000822331
-0.000798252
-0.000764643
-0.000721062
-0.00066716
-0.000602706
-0.000527617
-0.000441971
-0.000346038
-0.0002403
-0.000125464
-2.48483e-06
0.000127437
0.000262853
0.000402067
0.00054315
0.000683965
0.0008222
0.000955403
0.00108104
0.00119655
0.00129941
0.00138719
0.00145766
0.00150881
0.00153896
0.00154681
0.00153146
0.00149252
0.00143005
0.00134466
0.00123742
0.0011099
0.000964139
0.000802529
0.000627812
0.000442989
0.000251245
5.58646e-05
-0.000139844
-0.000332624
-0.000519338
-0.000697014
-0.00086291
-0.00101453
-0.00114966
-0.00126635
-0.00136296
-0.00143803
-0.00149034
-0.00151925
-0.0015241
-0.00149732
-0.00143096
0.000370965
0.000303037
0.000239125
0.000175648
0.00010978
4.28868e-05
-2.38496e-05
-8.97111e-05
-0.000154135
-0.000216689
-0.000277063
-0.000335041
-0.000390468
-0.000443217
-0.000493179
-0.000540214
-0.000584146
-0.000624751
-0.000661746
-0.000694776
-0.000723417
-0.000747188
-0.000765567
-0.000777984
-0.000783833
-0.000782488
-0.000773324
-0.000755737
-0.000729164
-0.000693103
-0.00064714
-0.000590967
-0.000524415
-0.00044747
-0.000360308
-0.000263313
-0.000157095
-4.25109e-05
7.93296e-05
0.000207061
0.000339062
0.000473467
0.000608189
0.00074095
0.000869319
0.000990767
0.00110273
0.00120265
0.00128807
0.00135671
0.00140652
0.00143576
0.00144307
0.00142753
0.00138866
0.00132652
0.00124166
0.00113515
0.00100855
0.000863877
0.000703537
0.000530272
0.000347081
0.000157141
-3.62835e-05
-0.00022992
-0.000420565
-0.000605149
-0.000780797
-0.000944866
-0.00109498
-0.00122902
-0.00134516
-0.00144178
-0.00151746
-0.00157088
-0.00160125
-0.00160767
-0.00158237
-0.00151738
0.000481148
0.0003927
0.000315206
0.000242924
0.000170926
0.000100185
3.15076e-05
-3.48364e-05
-9.8693e-05
-0.000159977
-0.00021868
-0.000274837
-0.000328505
-0.000379738
-0.000428561
-0.000474948
-0.000518803
-0.000559969
-0.000598206
-0.000633187
-0.000664508
-0.000691697
-0.000714222
-0.000731496
-0.000742887
-0.000747733
-0.000745359
-0.000735102
-0.000716331
-0.000688469
-0.000651011
-0.000603558
-0.000545836
-0.000477724
-0.00039929
-0.000310808
-0.000212781
-0.000105967
8.6151e-06
0.000129683
0.000255682
0.000384796
0.000514971
0.000643943
0.00076928
0.000888428
0.000998774
0.00109771
0.00118271
0.00125141
0.00130166
0.00133164
0.0013399
0.00132541
0.00128765
0.00122659
0.00114273
0.00103713
0.000911302
0.000767271
0.000607449
0.000434596
0.000251732
6.20526e-05
-0.000131164
-0.000324642
-0.000515187
-0.000699757
-0.00087552
-0.00103989
-0.00119057
-0.0013255
-0.00144292
-0.00154127
-0.00161912
-0.00167514
-0.00170845
-0.00171803
-0.0016964
-0.00163603
0.000591927
0.000482265
0.000390382
0.000308417
0.000229348
0.000153786
8.21951e-05
1.44034e-05
-4.98359e-05
-0.00011078
-0.000168717
-0.000223946
-0.00027674
-0.000327338
-0.000375909
-0.000422545
-0.000467246
-0.000509916
-0.000550365
-0.000588301
-0.000623334
-0.000654995
-0.00068274
-0.000705956
-0.000723972
-0.000736075
-0.000741531
-0.000739601
-0.000729566
-0.000710755
-0.000682559
-0.000644464
-0.000596077
-0.000537152
-0.000467631
-0.00038767
-0.000297655
-0.000198234
-9.03277e-05
2.48605e-05
0.00014584
0.000270839
0.000397825
0.000524536
0.000648516
0.000767164
0.000877796
0.000977719
0.0010643
0.00113504
0.00118769
0.00122029
0.00123124
0.00121941
0.00118415
0.00112534
0.00104342
0.000939345
0.000814637
0.000671286
0.000511718
0.000338713
0.000155325
-3.52086e-05
-0.000229568
-0.00042444
-0.000616603
-0.000802998
-0.000980794
-0.00114742
-0.0013006
-0.00143834
-0.00155887
-0.00166068
-0.00174237
-0.0018026
-0.00184044
-0.00185485
-0.0018389
-0.0017858
0.000699152
0.000567886
0.000461122
0.000368887
0.000282085
0.000200988
0.000125729
5.57029e-05
-9.72577e-06
-7.1154e-05
-0.000129173
-0.00018434
-0.000237153
-0.000288029
-0.000337293
-0.000385155
-0.000431709
-0.00047693
-0.000520677
-0.000562689
-0.000602595
-0.000639922
-0.000674104
-0.000704495
-0.000730379
-0.000750981
-0.000765488
-0.00077307
-0.000772908
-0.000764217
-0.000746267
-0.000718408
-0.000680108
-0.000630981
-0.00057083
-0.00049967
-0.000417759
-0.000325622
-0.000224076
-0.000114237
2.47092e-06
0.000124319
0.000249297
0.000375132
0.00049933
0.000619224
0.000732041
0.000834971
0.000925243
0.00100021
0.00105745
0.00109483
0.00111058
0.0011034
0.00107248
0.00101758
0.000938993
0.000837618
0.000714898
0.000572795
0.000413731
0.000240506
5.62147e-05
-0.000135852
-0.000332308
-0.000529774
-0.000724964
-0.000914766
-0.00109631
-0.00126699
-0.00142451
-0.00156688
-0.00169235
-0.00179939
-0.00188662
-0.00195273
-0.00199675
-0.00201762
-0.00200915
-0.00196546
0.000798897
0.000645854
0.000523928
0.000421059
0.000326083
0.000238941
0.000159438
8.65443e-05
1.92384e-05
-4.34185e-05
-0.000102317
-0.000158274
-0.000212005
-0.00026411
-0.000315068
-0.000365211
-0.00041472
-0.000463644
-0.000511895
-0.000559245
-0.00060533
-0.000649668
-0.00069167
-0.000730652
-0.000765839
-0.000796382
-0.000821375
-0.000839886
-0.00085098
-0.000853741
-0.000847291
-0.000830831
-0.00080367
-0.000765264
-0.000715251
-0.000653493
-0.000580095
-0.000495448
-0.000400248
-0.000295515
-0.00018259
-6.31528e-05
6.08052e-05
0.000187001
0.000312896
0.000435747
0.000552673
0.000660723
0.000756962
0.000838555
0.000902866
0.000947544
0.000970611
0.00097054
0.000946324
0.000897516
0.000824268
0.000727335
0.000608067
0.000468363
0.00031062
0.000137647
-4.74224e-05
-0.000241235
-0.000440324
-0.000641216
-0.000840529
-0.00103506
-0.00122184
-0.00139822
-0.00156182
-0.0017106
-0.00184278
-0.00195683
-0.00205135
-0.00212502
-0.00217685
-0.00220577
-0.00220641
-0.00217387
0.00088738
0.000712531
0.00057533
0.000461634
0.000358215
0.000264678
0.000180497
0.000104223
3.44434e-05
-3.01256e-05
-9.06671e-05
-0.000148254
-0.000203819
-0.000258148
-0.000311864
-0.000365416
-0.000419082
-0.000472983
-0.000527079
-0.00058117
-0.000634898
-0.00068777
-0.000739169
-0.000788362
-0.000834508
-0.000876671
-0.000913844
-0.000944978
-0.000969003
-0.00098485
-0.000991483
-0.000987926
-0.000973313
-0.000946913
-0.000908182
-0.000856799
-0.000792698
-0.000716112
-0.000627597
-0.000528052
-0.000418716
-0.000301213
-0.000177502
-4.98702e-05
7.91002e-05
0.000206584
0.000329578
0.000444973
0.000549639
0.000640519
0.000714727
0.000769648
0.000803029
0.000813068
0.000798492
0.000758606
0.00069334
0.000603263
0.000489578
0.000354081
0.000199111
2.74636e-05
-0.000157701
-0.000352964
-0.000554767
-0.000759521
-0.000963717
-0.00116402
-0.00135733
-0.00154087
-0.00171216
-0.00186907
-0.00200973
-0.00213256
-0.00223611
-0.00231905
-0.00238031
-0.0024188
-0.00243002
-0.00241011
0.000960883
0.000764326
0.000611873
0.000487291
0.000375289
0.000275132
0.000185956
0.000105874
3.30851e-05
-3.40317e-05
-9.69574e-05
-0.000157019
-0.000215363
-0.000272953
-0.000330556
-0.000388739
-0.000447873
-0.00050815
-0.000569575
-0.000631971
-0.000694987
-0.000758115
-0.000820703
-0.000881964
-0.000940979
-0.000996718
-0.00104806
-0.00109383
-0.0011328
-0.00116373
-0.00118541
-0.00119666
-0.00119642
-0.00118374
-0.00115787
-0.00111827
-0.00106469
-0.000997164
-0.000916077
-0.000822178
-0.000716597
-0.000600859
-0.000476876
-0.000346926
-0.000213626
-7.98819e-05
5.11736e-05
0.000176257
0.00029202
0.000395148
0.000482463
0.000551033
0.000598269
0.00062203
0.000620703
0.000593274
0.00053938
0.000459332
0.000354121
0.000225386
7.53605e-05
-9.32085e-05
-0.000277153
-0.000473
-0.000677089
-0.0008857
-0.00109516
-0.00130197
-0.00150286
-0.00169486
-0.00187534
-0.002042
-0.00219287
-0.00232624
-0.00244057
-0.00253448
-0.00260681
-0.00265635
-0.00267954
-0.00267357
0.00101574
0.000797684
0.000630105
0.000494685
0.000374069
0.000267162
0.000172747
8.84968e-05
1.22111e-05
-5.80675e-05
-0.000124116
-0.000187512
-0.000249615
-0.00031156
-0.000374257
-0.000438389
-0.000504422
-0.000572611
-0.000643005
-0.00071545
-0.000789599
-0.000864925
-0.000940736
-0.00101618
-0.00109027
-0.00116186
-0.00122971
-0.00129249
-0.00134881
-0.00139725
-0.00143637
-0.0014648
-0.00148123
-0.00148448
-0.00147355
-0.00144767
-0.00140633
-0.00134936
-0.00127692
-0.00118959
-0.00108833
-0.000974555
-0.000850087
-0.000717176
-0.000578455
-0.000436903
-0.000295779
-0.000158552
-2.88105e-05
8.98399e-05
0.000193886
0.00028002
0.000345253
0.000387025
0.000403306
0.000392673
0.000354378
0.000288393
0.000195415
7.68502e-05
-6.52363e-05
-0.000228193
-0.00040888
-0.000603785
-0.00080915
-0.00102111
-0.0012358
-0.00144951
-0.00165874
-0.0018603
-0.00205132
-0.00222929
-0.00239204
-0.00253768
-0.00266456
-0.00277116
-0.00285618
-0.00291825
-0.00295474
-0.00296392
0.00104831
0.000809067
0.000626588
0.000480465
0.000351286
0.000237567
0.000137724
4.89816e-05
-3.12616e-05
-0.000105306
-0.000175226
-0.000242847
-0.000309734
-0.000377193
-0.000446281
-0.000517794
-0.000592283
-0.000670069
-0.000751244
-0.000835677
-0.000923021
-0.00101273
-0.00110407
-0.00119612
-0.00128781
-0.00137788
-0.00146495
-0.00154754
-0.00162406
-0.00169289
-0.00175237
-0.00180087
-0.00183683
-0.00185879
-0.00186546
-0.0018558
-0.00182903
-0.00178468
-0.00172268
-0.00164335
-0.00154748
-0.00143629
-0.00131151
-0.00117529
-0.00103028
-0.000879502
-0.00072633
-0.000574423
-0.000427626
-0.000289867
-0.00016504
-5.68883e-05
3.11264e-05
9.59419e-05
0.000135011
0.000146402
0.000128879
8.19653e-05
5.96217e-06
-9.80509e-05
-0.000228257
-0.000382168
-0.000556722
-0.000748396
-0.000953348
-0.00116755
-0.00138694
-0.00160754
-0.00182557
-0.00203754
-0.00224027
-0.00243099
-0.00260724
-0.00276689
-0.00290806
-0.0030291
-0.00312843
-0.00320453
-0.00325566
-0.00328118
0.00105496
0.000794962
0.000597899
0.000441286
0.000303648
0.000183103
7.76811e-05
-1.58524e-05
-0.000100508
-0.000178936
-0.0002535
-0.000326273
-0.00039903
-0.000473248
-0.000550121
-0.000630561
-0.000715205
-0.000804435
-0.000898391
-0.000996961
-0.0010998
-0.00120634
-0.00131581
-0.00142722
-0.00153939
-0.00165096
-0.0017604
-0.00186605
-0.00196612
-0.00205877
-0.00214207
-0.00221414
-0.00227309
-0.00231717
-0.00234478
-0.00235452
-0.00234528
-0.00231628
-0.00226714
-0.00219788
-0.00210903
-0.0020016
-0.00187712
-0.00173765
-0.00158578
-0.00142455
-0.00125744
-0.00108828
-0.000921202
-0.000760465
-0.000610394
-0.000475225
-0.000358975
-0.000265303
-0.000197378
-0.00015776
-0.000148299
-0.000170048
-0.000223224
-0.000307193
-0.000420492
-0.000560885
-0.000725456
-0.000910721
-0.00111277
-0.00132743
-0.00155039
-0.00177738
-0.00200427
-0.00222721
-0.00244264
-0.00264739
-0.00283868
-0.00301402
-0.00317126
-0.00330848
-0.00342381
-0.00351545
-0.00358259
-0.00362571
0.00103209
0.000751888
0.000540642
0.000373808
0.000227868
0.000100519
-1.06133e-05
-0.000109235
-0.00019877
-0.000282217
-0.000362234
-0.000441146
-0.00052093
-0.000603238
-0.000689403
-0.000780446
-0.000877091
-0.000979789
-0.00108872
-0.00120381
-0.0013247
-0.00145082
-0.00158133
-0.00171519
-0.00185113
-0.00198765
-0.00212308
-0.00225554
-0.00238306
-0.00250352
-0.00261474
-0.0027145
-0.00280061
-0.00287094
-0.00292352
-0.00295657
-0.0029686
-0.00295844
-0.00292531
-0.00286889
-0.00278937
-0.00268746
-0.00256447
-0.00242229
-0.00226337
-0.00209076
-0.00190799
-0.00171908
-0.0015284
-0.00134059
-0.00116043
-0.00099273
-0.000842126
-0.00071298
-0.000609203
-0.000534118
-0.00049033
-0.000479623
-0.000502883
-0.000560065
-0.000650193
-0.0007714
-0.000921007
-0.00109564
-0.00129136
-0.00150384
-0.00172854
-0.00196083
-0.00219618
-0.00243028
-0.00265912
-0.00287904
-0.00308679
-0.00327947
-0.00345454
-0.00360972
-0.00374278
-0.00385155
-0.00393614
-0.00399818
0.000976152
0.000676412
0.000451464
0.000274737
0.000120693
-1.34171e-05
-0.000130385
-0.000234399
-0.000329301
-0.000418439
-0.000504772
-0.000590871
-0.000678927
-0.000770758
-0.000867836
-0.000971294
-0.00108195
-0.00120032
-0.00132665
-0.00146086
-0.00160264
-0.00175137
-0.00190619
-0.00206599
-0.00222939
-0.00239476
-0.00256028
-0.00272387
-0.0028833
-0.00303621
-0.00318009
-0.0033124
-0.00343055
-0.00353202
-0.00361442
-0.00367552
-0.00371337
-0.00372633
-0.00371318
-0.00367316
-0.00360606
-0.00351217
-0.00339252
-0.00324874
-0.00308311
-0.00289859
-0.00269875
-0.00248772
-0.00227014
-0.00205103
-0.00183566
-0.00162944
-0.00143773
-0.00126571
-0.00111814
-0.000999267
-0.000912615
-0.00086087
-0.000845767
-0.000868027
-0.000927325
-0.00102231
-0.00115067
-0.00130922
-0.00149406
-0.00170076
-0.00192451
-0.00216029
-0.00240313
-0.00264814
-0.00289076
-0.00312675
-0.00335226
-0.00356385
-0.00375849
-0.00393343
-0.004086
-0.00421356
-0.00431715
-0.00439958
0.00088364
0.000565167
0.000327089
0.000140848
-2.10701e-05
-0.000161883
-0.000284818
-0.000394545
-0.000495332
-0.000590881
-0.000684454
-0.000778872
-0.000876532
-0.000979423
-0.00108916
-0.00120699
-0.00133384
-0.00147029
-0.00161663
-0.00177284
-0.00193861
-0.00211331
-0.00229606
-0.00248566
-0.00268065
-0.00287927
-0.00307951
-0.00327909
-0.00347553
-0.00366617
-0.00384817
-0.0040186
-0.00417446
-0.00431279
-0.00443069
-0.00452543
-0.00459453
-0.00463581
-0.00464751
-0.00462833
-0.00457751
-0.00449501
-0.00438134
-0.0042378
-0.00406642
-0.00387001
-0.00365209
-0.00341689
-0.00316927
-0.00291461
-0.00265871
-0.00240763
-0.00216754
-0.0019445
-0.0017443
-0.00157224
-0.00143295
-0.00133023
-0.00126686
-0.00124454
-0.0012638
-0.00132399
-0.00142332
-0.00155893
-0.00172706
-0.00192319
-0.00214227
-0.00237889
-0.00262751
-0.00288264
-0.003139
-0.00339165
-0.00363602
-0.003868
-0.00408391
-0.00428046
-0.00445437
-0.00460247
-0.00472673
-0.00483119
0.000751153
0.000414893
0.000164346
-3.09791e-05
-0.000200518
-0.00034797
-0.000477012
-0.000592802
-0.000700035
-0.000802775
-0.000904581
-0.00100853
-0.00111722
-0.00123282
-0.00135709
-0.00149141
-0.00163679
-0.00179391
-0.00196313
-0.00214446
-0.00233761
-0.00254197
-0.00275662
-0.0029803
-0.00321145
-0.00344819
-0.0036883
-0.00392932
-0.00416849
-0.00440281
-0.0046291
-0.00484399
-0.00504403
-0.00522576
-0.00538572
-0.0055206
-0.00562731
-0.00570304
-0.00574539
-0.00575244
-0.00572284
-0.00565591
-0.00555171
-0.00541106
-0.00523565
-0.00502804
-0.00479162
-0.00453065
-0.00425016
-0.00395588
-0.00365413
-0.00335167
-0.00305549
-0.00277269
-0.00251019
-0.00227452
-0.00207162
-0.0019066
-0.00178354
-0.00170537
-0.0016737
-0.00168882
-0.00174966
-0.00185386
-0.00199792
-0.00217734
-0.00238683
-0.00262056
-0.00287241
-0.00313615
-0.00340569
-0.00367522
-0.00393931
-0.004193
-0.00443183
-0.00465184
-0.00484899
-0.00501949
-0.00516624
-0.00529457
0.000575425
0.000222471
-3.97967e-05
-0.000243729
-0.000420613
-0.00057464
-0.000709945
-0.000832183
-0.000946475
-0.00105725
-0.00116835
-0.00128312
-0.00140437
-0.00153445
-0.00167526
-0.00182833
-0.00199476
-0.00217535
-0.00237051
-0.00258033
-0.00280455
-0.00304257
-0.00329344
-0.00355587
-0.00382818
-0.00410838
-0.00439407
-0.00468254
-0.00497075
-0.00525537
-0.00553281
-0.00579926
-0.00605076
-0.00628325
-0.0064927
-0.00667512
-0.00682672
-0.00694398
-0.00702377
-0.00706342
-0.00706087
-0.00701476
-0.00692448
-0.00679032
-0.0066135
-0.0063962
-0.0061416
-0.00585391
-0.00553824
-0.00520065
-0.00484793
-0.00448754
-0.0041274
-0.00377567
-0.00344053
-0.00312994
-0.00285132
-0.00261134
-0.00241566
-0.00226868
-0.00217341
-0.00213134
-0.00214238
-0.0022049
-0.00231582
-0.00247077
-0.00266431
-0.00289022
-0.00314169
-0.0034117
-0.00369319
-0.00397933
-0.00426366
-0.00454018
-0.00480351
-0.0050488
-0.00527116
-0.00546601
-0.00563722
-0.0057915
0.000353362
-1.50406e-05
-0.000288193
-0.000500209
-0.000684139
-0.000844679
-0.00098643
-0.00111554
-0.00123756
-0.00135726
-0.0014788
-0.00160578
-0.00174121
-0.00188763
-0.00204713
-0.00222134
-0.00241151
-0.00261854
-0.00284293
-0.00308485
-0.00334409
-0.00362007
-0.00391183
-0.00421804
-0.00453694
-0.0048664
-0.00520384
-0.00554631
-0.00589047
-0.00623264
-0.00656877
-0.00689458
-0.00720555
-0.00749699
-0.00776418
-0.0080024
-0.00820709
-0.0083739
-0.00849886
-0.00857847
-0.00860983
-0.00859076
-0.00851989
-0.00839683
-0.0082222
-0.00799769
-0.00772615
-0.00741161
-0.00705921
-0.00667521
-0.00626686
-0.0058423
-0.00541037
-0.00498037
-0.00456187
-0.00416435
-0.00379696
-0.00346817
-0.00318547
-0.00295508
-0.00278172
-0.0026684
-0.00261634
-0.0026249
-0.00269167
-0.0028126
-0.00298219
-0.00319384
-0.00344009
-0.00371298
-0.00400439
-0.00430627
-0.00461093
-0.00491115
-0.00520039
-0.00547276
-0.00572233
-0.00594359
-0.00614142
-0.00632397
8.20916e-05
-0.000300364
-0.00058347
-0.000803002
-0.000993663
-0.00116066
-0.00130906
-0.00144551
-0.00157596
-0.00170555
-0.00183875
-0.00197939
-0.00213072
-0.00229548
-0.0024759
-0.00267379
-0.00289054
-0.00312715
-0.00338426
-0.00366211
-0.00396055
-0.00427906
-0.00461668
-0.00497204
-0.00534333
-0.00572825
-0.00612407
-0.00652758
-0.00693512
-0.00734262
-0.0077456
-0.00813921
-0.00851832
-0.00887759
-0.00921153
-0.00951461
-0.00978139
-0.0100066
-0.0101854
-0.0103133
-0.0103864
-0.0104016
-0.0103566
-0.0102503
-0.0100826
-0.00985441
-0.00956823
-0.00922775
-0.00883802
-0.0084054
-0.00793752
-0.00744315
-0.00693201
-0.00641459
-0.00590189
-0.00540509
-0.00493521
-0.00450276
-0.00411738
-0.00378743
-0.00351971
-0.00331913
-0.00318859
-0.00312879
-0.00313829
-0.0032136
-0.00334935
-0.00353864
-0.00377334
-0.00404451
-0.0043428
-0.0046588
-0.00498335
-0.00530777
-0.00562414
-0.00592532
-0.00620412
-0.00645396
-0.00668073
-0.00689415
-0.000240995
-0.000635951
-0.000927996
-0.00115443
-0.00135149
-0.0015249
-0.00168018
-0.00182445
-0.0019641
-0.0021046
-0.00225072
-0.00240656
-0.00257559
-0.00276075
-0.00296445
-0.00318867
-0.00343495
-0.00370445
-0.00399791
-0.0043157
-0.00465775
-0.00502359
-0.0054123
-0.00582247
-0.00625224
-0.00669917
-0.00716036
-0.00763234
-0.00811112
-0.00859222
-0.00907066
-0.00954103
-0.00999754
-0.0104341
-0.0108444
-0.011222
-0.0115606
-0.0118539
-0.0120959
-0.0122812
-0.0124047
-0.0124623
-0.0124509
-0.012368
-0.0122129
-0.0119858
-0.0116885
-0.0113242
-0.0108977
-0.0104154
-0.00988516
-0.00931628
-0.00871931
-0.00810592
-0.00748854
-0.00688013
-0.00629377
-0.00574222
-0.00523753
-0.00479056
-0.00441058
-0.00410484
-0.00387835
-0.00373358
-0.00367045
-0.00368633
-0.00377624
-0.00393312
-0.00414823
-0.00441163
-0.0047126
-0.00504017
-0.00538348
-0.00573214
-0.00607659
-0.00640819
-0.00671825
-0.00699891
-0.00725712
-0.00750428
-0.000618195
-0.00102395
-0.00132383
-0.00155652
-0.00175964
-0.0019394
-0.0021018
-0.00225443
-0.00240407
-0.00255654
-0.00271692
-0.00288954
-0.00307814
-0.00328584
-0.00351525
-0.00376854
-0.00404742
-0.00435321
-0.00468679
-0.00504866
-0.00543887
-0.00585702
-0.00630222
-0.00677307
-0.00726764
-0.00778338
-0.0083172
-0.00886536
-0.00942353
-0.0099868
-0.0105497
-0.0111061
-0.0116496
-0.0121734
-0.0126701
-0.0131325
-0.0135531
-0.0139245
-0.0142398
-0.0144922
-0.0146756
-0.0147847
-0.014815
-0.0147634
-0.0146278
-0.0144076
-0.0141038
-0.0137191
-0.0132579
-0.0127263
-0.0121322
-0.0114855
-0.0107973
-0.0100805
-0.00934878
-0.00861703
-0.00790043
-0.00721418
-0.00657303
-0.00599065
-0.00547919
-0.00504873
-0.00470684
-0.0044583
-0.00430484
-0.00424514
-0.0042749
-0.00438718
-0.00457274
-0.00482062
-0.00511867
-0.00545416
-0.00581428
-0.00618665
-0.00655977
-0.0069232
-0.00726652
-0.0075803
-0.00787263
-0.00815667
-0.00105145
-0.00146615
-0.00177269
-0.00201094
-0.00221974
-0.0024058
-0.00257559
-0.00273712
-0.00289757
-0.00306312
-0.00323911
-0.00343017
-0.00364023
-0.00387266
-0.00413027
-0.00441542
-0.00473003
-0.00507557
-0.00545311
-0.0058633
-0.0063063
-0.00678182
-0.00728903
-0.00782654
-0.00839235
-0.00898382
-0.00959765
-0.0102298
-0.0108757
-0.0115299
-0.0121863
-0.0128383
-0.0134787
-0.0140996
-0.014693
-0.0152505
-0.0157636
-0.0162237
-0.0166226
-0.0169523
-0.0172055
-0.0173756
-0.0174569
-0.017445
-0.0173368
-0.0171305
-0.0168263
-0.016426
-0.0159335
-0.0153545
-0.0146969
-0.0139707
-0.0131876
-0.0123614
-0.0115072
-0.0106415
-0.00978177
-0.00894574
-0.00815101
-0.00741444
-0.00675142
-0.00617534
-0.00569691
-0.00532375
-0.00505999
-0.00490613
-0.00485902
-0.00491216
-0.00505604
-0.00527875
-0.00556666
-0.0059051
-0.00627909
-0.00667393
-0.00707585
-0.00747228
-0.00785074
-0.0082
-0.00852928
-0.00885364
-0.00154228
-0.00196397
-0.00227589
-0.00251896
-0.00273306
-0.00292537
-0.00310279
-0.00327378
-0.0034459
-0.00362564
-0.00381863
-0.00402976
-0.00426322
-0.00452258
-0.0048109
-0.00513072
-0.00548418
-0.00587296
-0.00629831
-0.00676105
-0.0072615
-0.00779947
-0.00837421
-0.00898434
-0.00962783
-0.0103019
-0.0110032
-0.0117272
-0.012469
-0.0132228
-0.0139818
-0.0147388
-0.0154857
-0.0162138
-0.0169141
-0.017577
-0.018193
-0.0187522
-0.0192451
-0.0196625
-0.0199957
-0.0202367
-0.0203785
-0.0204155
-0.0203432
-0.0201587
-0.0198613
-0.0194516
-0.0189329
-0.0183103
-0.0175914
-0.0167861
-0.0159065
-0.0149671
-0.0139842
-0.0129759
-0.0119617
-0.010962
-0.00999737
-0.00908809
-0.00825321
-0.00750983
-0.00687242
-0.00635205
-0.00595592
-0.00568698
-0.00554381
-0.00552082
-0.00560853
-0.0057943
-0.00606299
-0.00639792
-0.00678165
-0.00719684
-0.00762711
-0.00805738
-0.00847273
-0.00885982
-0.00922901
-0.0095974
-0.00209179
-0.00251835
-0.00283432
-0.00308143
-0.00330041
-0.0034989
-0.00368422
-0.00386523
-0.00404986
-0.00424489
-0.00445627
-0.00468912
-0.00494788
-0.00523637
-0.00555785
-0.00591512
-0.00631053
-0.00674597
-0.00722292
-0.00774238
-0.00830483
-0.00891023
-0.0095579
-0.0102465
-0.010974
-0.0117374
-0.0125332
-0.0133567
-0.0142025
-0.0150643
-0.0159347
-0.0168057
-0.0176685
-0.0185134
-0.0193303
-0.0201086
-0.0208375
-0.0215059
-0.022103
-0.0226181
-0.0230412
-0.023363
-0.0235751
-0.0236704
-0.0236431
-0.0234893
-0.0232067
-0.0227952
-0.0222569
-0.0215963
-0.0208203
-0.0199386
-0.0189634
-0.0179096
-0.0167943
-0.0156372
-0.0144596
-0.0132843
-0.0121352
-0.0110359
-0.0100094
-0.00907699
-0.00825748
-0.00756606
-0.00701373
-0.00660664
-0.00634583
-0.00622719
-0.00624179
-0.00637652
-0.0066149
-0.0069381
-0.00732606
-0.00775848
-0.00821592
-0.00868042
-0.0091342
-0.00956142
-0.0099736
-0.01039
-0.00270055
-0.00312978
-0.00344839
-0.00369874
-0.00392215
-0.00412673
-0.00432019
-0.00451177
-0.00470971
-0.00492114
-0.00515225
-0.00540842
-0.00569435
-0.00601407
-0.00637112
-0.00676852
-0.00720886
-0.00769428
-0.00822647
-0.00880665
-0.00943549
-0.0101131
-0.0108388
-0.0116115
-0.0124289
-0.0132881
-0.0141853
-0.0151154
-0.0160727
-0.0170503
-0.0180403
-0.0190338
-0.0200211
-0.0209917
-0.0219343
-0.0228373
-0.0236884
-0.0244754
-0.025186
-0.0258084
-0.0263309
-0.026743
-0.0270348
-0.0271978
-0.0272249
-0.0271108
-0.026852
-0.0264472
-0.0258974
-0.025206
-0.0243793
-0.0234264
-0.0223592
-0.0211926
-0.0199445
-0.0186355
-0.0172886
-0.015929
-0.0145832
-0.0132785
-0.0120421
-0.0108999
-0.00987534
-0.00898849
-0.00825492
-0.00768486
-0.00728262
-0.0070464
-0.00696845
-0.00703562
-0.00723034
-0.00753169
-0.0079168
-0.0083621
-0.0088447
-0.00934328
-0.00983672
-0.0103063
-0.0107646
-0.0112332
-0.00336864
-0.00379824
-0.00411804
-0.00437076
-0.00459815
-0.00480869
-0.0050105
-0.00521314
-0.0054252
-0.00565405
-0.00590617
-0.00618719
-0.00650204
-0.00685502
-0.00724989
-0.00768995
-0.00817803
-0.00871654
-0.00930739
-0.00995204
-0.0106513
-0.0114056
-0.0122142
-0.013076
-0.0139889
-0.0149498
-0.0159544
-0.0169978
-0.0180734
-0.0191739
-0.0202908
-0.0214144
-0.022534
-0.0236382
-0.0247145
-0.0257501
-0.0267317
-0.0276455
-0.0284781
-0.0292161
-0.0298467
-0.0303577
-0.030738
-0.0309776
-0.0310683
-0.0310032
-0.0307775
-0.0303886
-0.0298364
-0.0291232
-0.0282542
-0.0272376
-0.0260848
-0.0248105
-0.0234326
-0.0219723
-0.020454
-0.0189047
-0.0173536
-0.0158315
-0.0143696
-0.0129986
-0.0117471
-0.0106408
-0.00970048
-0.00894145
-0.00837227
-0.00799435
-0.00780195
-0.00778257
-0.00791793
-0.00818521
-0.00855864
-0.0090111
-0.00951584
-0.0100477
-0.0105816
-0.0110956
-0.0116032
-0.0121284
-0.00409558
-0.00452319
-0.00484267
-0.00509688
-0.00532774
-0.00554409
-0.00575441
-0.00596857
-0.00619544
-0.00644268
-0.00671698
-0.00702425
-0.00736965
-0.00775773
-0.00819251
-0.00867754
-0.00921593
-0.00981035
-0.010463
-0.0111754
-0.0119489
-0.0127837
-0.0136795
-0.0146351
-0.0156483
-0.0167159
-0.0178336
-0.0189957
-0.0201956
-0.0214251
-0.0226751
-0.0239351
-0.0251936
-0.0264378
-0.0276545
-0.0288295
-0.0299482
-0.0309958
-0.0319572
-0.032818
-0.0335638
-0.0341812
-0.0346577
-0.0349822
-0.0351447
-0.0351375
-0.0349542
-0.034591
-0.0340464