/*--------------------------------*- C++ -*----------------------------------*\
  =========                 |
  \\      /  F ield         | OpenFOAM: The Open Source CFD Toolbox
   \\    /   O peration     | Website:  https://openfoam.org
    \\  /    A nd           | Version:  7
     \\/     M anipulation  |
\*---------------------------------------------------------------------------*/
FoamFile
{
    version     2.0;
    format      ascii;
    class       surfaceScalarField;
    location    "1";
    object      phi;
}
// * * * * * * * * * * * * * * * * * * * * * * * * * * * * * * * * * * * * * //

dimensions      [0 3 -1 0 0 0 0];

internalField   nonuniform List<scalar> 
12640
(
2.66144e-10
-2.66319e-10
7.16283e-10
-4.50151e-10
1.06309e-09
-3.46785e-10
1.16048e-09
-9.73997e-11
9.49965e-10
2.10526e-10
4.20569e-10
5.29386e-10
-4.13797e-10
8.34397e-10
-1.52717e-09
1.11337e-09
-2.88871e-09
1.36155e-09
-4.46709e-09
1.57839e-09
-6.23281e-09
1.7657e-09
-8.15939e-09
1.92658e-09
-1.02239e-08
2.06454e-09
-1.2407e-08
2.18313e-09
-1.46927e-08
2.28567e-09
-1.70677e-08
2.37493e-09
-1.95208e-08
2.45312e-09
-2.20426e-08
2.52178e-09
-2.46244e-08
2.58186e-09
-2.72581e-08
2.63362e-09
-2.99349e-08
2.67682e-09
-3.26456e-08
2.71068e-09
-3.53796e-08
2.73402e-09
-3.81249e-08
2.7453e-09
-4.08676e-08
2.74274e-09
-4.3592e-08
2.7244e-09
-4.62803e-08
2.68823e-09
-4.89124e-08
2.63219e-09
-5.14667e-08
2.5543e-09
-5.39195e-08
2.45275e-09
-5.62454e-08
2.32593e-09
-5.84179e-08
2.17253e-09
-6.04095e-08
1.99159e-09
-6.21921e-08
1.78259e-09
-6.37376e-08
1.54546e-09
-6.50183e-08
1.28071e-09
-6.60077e-08
9.89389e-10
-6.66808e-08
6.73182e-10
-6.70153e-08
3.34424e-10
-6.69914e-08
-2.39071e-11
-6.65932e-08
-3.98187e-10
-6.5809e-08
-7.84177e-10
-6.4632e-08
-1.17703e-09
-6.30606e-08
-1.57141e-09
-6.1099e-08
-1.96153e-09
-5.87577e-08
-2.34129e-09
-5.60534e-08
-2.70438e-09
-5.30089e-08
-3.04444e-09
-4.96537e-08
-3.35519e-09
-4.60231e-08
-3.63065e-09
-4.21579e-08
-3.86523e-09
-3.81039e-08
-4.05393e-09
-3.39114e-08
-4.19254e-09
-2.96337e-08
-4.27772e-09
-2.53266e-08
-4.30711e-09
-2.10471e-08
-4.27949e-09
-1.68523e-08
-4.19478e-09
-1.27982e-08
-4.05409e-09
-8.93851e-09
-3.85969e-09
-5.32352e-09
-3.61498e-09
-1.99912e-09
-3.3244e-09
9.94181e-10
-2.9933e-09
3.62201e-09
-2.62783e-09
5.85677e-09
-2.23475e-09
7.67819e-09
-1.8214e-09
9.07365e-09
-1.39547e-09
1.00385e-08
-9.64903e-10
1.05765e-08
-5.37926e-10
1.06995e-08
-1.23026e-10
1.04286e-08
2.70926e-10
9.79417e-09
6.34402e-10
8.83735e-09
9.56812e-10
7.61148e-09
1.22586e-09
6.18486e-09
1.42662e-09
4.6446e-09
1.54026e-09
3.1017e-09
1.54289e-09
1.69627e-09
1.40544e-09
6.0198e-10
1.09429e-09
1.64451e-11
5.8553e-10
1.64398e-11
4.53888e-10
-7.20218e-10
1.01173e-09
-1.008e-09
1.22399e-09
-5.59052e-10
8.32095e-10
2.94548e-10
-2.94735e-10
1.33733e-09
-2.1993e-09
2.43399e-09
-4.86818e-09
3.50325e-09
-8.25481e-09
4.5e-09
-1.22959e-08
5.40267e-09
-1.69219e-08
6.20436e-09
-2.20634e-08
6.90726e-09
-2.76555e-08
7.51868e-09
-3.36395e-08
8.04849e-09
-3.99637e-08
8.50732e-09
-4.65833e-08
8.9053e-09
-5.34596e-08
9.25128e-09
-6.05589e-08
9.55233e-09
-6.78506e-08
9.81353e-09
-7.53066e-08
1.00378e-08
-8.2899e-08
1.02261e-08
-9.05994e-08
1.03772e-08
-9.83773e-08
1.04886e-08
-1.06199e-07
1.05559e-08
-1.14028e-07
1.05738e-08
-1.21821e-07
1.05362e-08
-1.29533e-07
1.04361e-08
-1.37111e-07
1.02665e-08
-1.44499e-07
1.00205e-08
-1.51636e-07
9.69127e-09
-1.58456e-07
9.27279e-09
-1.6489e-07
8.75979e-09
-1.70866e-07
8.14816e-09
-1.76309e-07
7.43511e-09
-1.81146e-07
6.61946e-09
-1.85303e-07
5.70181e-09
-1.88707e-07
4.68465e-09
-1.9129e-07
3.57264e-09
-1.92989e-07
2.37259e-09
-1.93748e-07
1.09361e-09
-1.93519e-07
-2.52878e-10
-1.92264e-07
-1.65338e-09
-1.89956e-07
-3.09204e-09
-1.86582e-07
-4.55121e-09
-1.82142e-07
-6.01146e-09
-1.76652e-07
-7.45197e-09
-1.70142e-07
-8.85091e-09
-1.62661e-07
-1.01858e-08
-1.54271e-07
-1.14343e-08
-1.45052e-07
-1.25741e-08
-1.35098e-07
-1.35842e-08
-1.24518e-07
-1.44451e-08
-1.13433e-07
-1.51394e-08
-1.01973e-07
-1.56522e-08
-9.02792e-08
-1.59719e-08
-7.8496e-08
-1.60903e-08
-6.67725e-08
-1.6003e-08
-5.52575e-08
-1.57097e-08
-4.40973e-08
-1.52142e-08
-3.34327e-08
-1.45243e-08
-2.33958e-08
-1.36519e-08
-1.41079e-08
-1.26123e-08
-5.67671e-09
-1.14245e-08
1.80559e-09
-1.01101e-08
8.26439e-09
-8.69355e-09
1.36439e-08
-7.20096e-09
1.79088e-08
-5.66032e-09
2.10447e-08
-4.10085e-09
2.30597e-08
-2.55298e-09
2.39851e-08
-1.04836e-09
2.38762e-08
3.79747e-10
2.28147e-08
1.69595e-09
2.091e-08
2.86144e-09
1.83031e-08
3.83275e-09
1.51699e-08
4.55977e-09
1.17262e-08
4.98402e-09
8.23092e-09
5.03816e-09
4.98649e-09
4.64988e-09
2.32737e-09
3.7534e-09
5.82271e-10
2.33063e-09
5.98723e-10
3.5775e-10
-1.07795e-09
5.67155e-10
-1.21744e-09
1.36828e-10
-1.287e-10
-1.22174e-09
1.6531e-09
-3.66445e-09
3.78009e-09
-7.24667e-09
6.0162e-09
-1.19546e-08
8.2112e-09
-1.77308e-08
1.02762e-08
-2.44929e-08
1.21647e-08
-3.21466e-08
1.38581e-08
-4.05957e-08
1.53563e-08
-4.97471e-08
1.66701e-08
-5.95148e-08
1.78162e-08
-6.9821e-08
1.88135e-08
-8.05964e-08
1.96807e-08
-9.17794e-08
2.04342e-08
-1.03314e-07
2.10873e-08
-1.1515e-07
2.16495e-08
-1.27239e-07
2.21261e-08
-1.39531e-07
2.25186e-08
-1.51978e-07
2.28243e-08
-1.64527e-07
2.30376e-08
-1.77121e-07
2.31496e-08
-1.89697e-07
2.31494e-08
-2.02185e-07
2.30241e-08
-2.14508e-07
2.27601e-08
-2.26585e-07
2.23429e-08
-2.38323e-07
2.17586e-08
-2.49626e-07
2.0994e-08
-2.6039e-07
2.00371e-08
-2.70508e-07
1.88778e-08
-2.79869e-07
1.75086e-08
-2.88358e-07
1.59249e-08
-2.95864e-07
1.41253e-08
-3.02275e-07
1.21123e-08
-3.07482e-07
9.89234e-09
-3.11386e-07
7.47636e-09
-3.13893e-07
4.87975e-09
-3.14922e-07
2.12256e-09
-3.14405e-07
-7.70533e-10
-3.12287e-07
-3.77046e-09
-3.08536e-07
-6.84378e-09
-3.03134e-07
-9.95326e-09
-2.96087e-07
-1.30583e-08
-2.87423e-07
-1.61158e-08
-2.77193e-07
-1.90804e-08
-2.65473e-07
-2.19061e-08
-2.52361e-07
-2.45466e-08
-2.37978e-07
-2.69568e-08
-2.22469e-07
-2.90936e-08
-2.05997e-07
-3.09171e-08
-1.88744e-07
-3.23919e-08
-1.70909e-07
-3.34879e-08
-1.52699e-07
-3.41812e-08
-1.34335e-07
-3.4455e-08
-1.16037e-07
-3.43003e-08
-9.80309e-08
-3.37161e-08
-8.05353e-08
-3.27099e-08
-6.37624e-08
-3.12972e-08
-4.79123e-08
-2.9502e-08
-3.3169e-08
-2.73556e-08
-1.96971e-08
-2.48963e-08
-7.63836e-09
-2.21689e-08
2.89129e-09
-1.92232e-08
1.18041e-08
-1.61138e-08
1.90428e-08
-1.2899e-08
2.45821e-08
-9.64019e-09
2.84308e-08
-6.40161e-09
3.06327e-08
-3.2503e-09
3.1269e-08
-2.5659e-10
3.04598e-08
2.50513e-09
2.83667e-08
4.95456e-09
2.51955e-08
7.0039e-09
2.11997e-08
8.55564e-09
1.66824e-08
9.5013e-09
1.19976e-08
9.723e-09
7.54562e-09
9.10182e-09
3.76127e-09
7.53775e-09
1.0917e-09
5.0002e-09
1.69044e-09
1.02063e-10
-1.18001e-09
-3.29329e-10
-7.86011e-10
-1.74664e-09
1.28857e-09
-4.42182e-09
4.32832e-09
-8.49809e-09
7.85634e-09
-1.40226e-08
1.15407e-08
-2.09726e-08
1.51612e-08
-2.92786e-08
1.85823e-08
-3.88431e-08
2.17292e-08
-4.95541e-08
2.45691e-08
-6.12955e-08
2.70977e-08
-7.39534e-08
2.93281e-08
-8.74208e-08
3.12836e-08
-1.01599e-07
3.29918e-08
-1.16398e-07
3.44799e-08
-1.31737e-07
3.57727e-08
-1.4754e-07
3.689e-08
-1.63736e-07
3.78457e-08
-1.80257e-07
3.86475e-08
-1.97035e-07
3.92966e-08
-2.13999e-07
3.97884e-08
-2.31074e-07
4.01127e-08
-2.48179e-07
4.02549e-08
-2.65227e-07
4.01968e-08
-2.8212e-07
3.99175e-08
-2.98755e-07
3.93945e-08
-3.15017e-07
3.86047e-08
-3.30784e-07
3.75258e-08
-3.45926e-07
3.61366e-08
-3.60308e-07
3.44186e-08
-3.73787e-07
3.23565e-08
-3.86217e-07
2.99392e-08
-3.97453e-07
2.71607e-08
-4.07348e-07
2.40206e-08
-4.15761e-07
2.05246e-08
-4.22554e-07
1.66855e-08
-4.27601e-07
1.25231e-08
-4.30786e-07
8.06472e-09
-4.32008e-07
3.34507e-09
-4.31185e-07
-1.59354e-09
-4.28254e-07
-6.70173e-09
-4.23174e-07
-1.19233e-08
-4.15932e-07
-1.71959e-08
-4.06538e-07
-2.24522e-08
-3.95033e-07
-2.76207e-08
-3.81486e-07
-3.26269e-08
-3.65998e-07
-3.73949e-08
-3.48695e-07
-4.18491e-08
-3.29736e-07
-4.59156e-08
-3.09306e-07
-4.95241e-08
-2.87613e-07
-5.26097e-08
-2.64891e-07
-5.51143e-08
-2.4139e-07
-5.69888e-08
-2.17377e-07
-5.8194e-08
-1.9313e-07
-5.87023e-08
-1.68931e-07
-5.84985e-08
-1.45067e-07
-5.75804e-08
-1.21817e-07
-5.59594e-08
-9.94543e-08
-5.36605e-08
-7.82346e-08
-5.07217e-08
-5.83963e-08
-4.71939e-08
-4.01532e-08
-4.31394e-08
-2.3691e-08
-3.86311e-08
-9.16307e-09
-3.37512e-08
3.31273e-09
-2.85896e-08
1.3657e-08
-2.32433e-08
2.18313e-08
-1.78145e-08
2.78406e-08
-1.24109e-08
3.17348e-08
-7.14456e-09
3.36113e-08
-2.13312e-09
3.36167e-08
2.49978e-09
3.19485e-08
6.62268e-09
2.8858e-08
1.00944e-08
2.46514e-08
1.27623e-08
1.96907e-08
1.4462e-08
1.43933e-08
1.50204e-08
9.22899e-09
1.42661e-08
4.71484e-09
1.20519e-08
1.41625e-09
8.29879e-09
3.10668e-09
-2.35243e-10
-9.44751e-10
-1.49611e-09
4.74831e-10
-4.1442e-09
3.93671e-09
-8.39518e-09
8.57928e-09
-1.43548e-08
1.38159e-08
-2.20436e-08
1.92295e-08
-3.14189e-08
2.45365e-08
-4.23944e-08
2.95578e-08
-5.48566e-08
3.41914e-08
-6.8678e-08
3.83905e-08
-8.37263e-08
4.2146e-08
-9.98715e-08
4.54733e-08
-1.1699e-07
4.84019e-08
-1.34966e-07
5.09677e-08
-1.53692e-07
5.32066e-08
-1.73071e-07
5.51514e-08
-1.93009e-07
5.6828e-08
-2.13418e-07
5.82544e-08
-2.3421e-07
5.944e-08
-2.55299e-07
6.03851e-08
-2.76592e-07
6.10817e-08
-2.97994e-07
6.15143e-08
-3.194e-07
6.1661e-08
-3.40698e-07
6.1495e-08
-3.61766e-07
6.0986e-08
-3.82474e-07
6.01015e-08
-4.02677e-07
5.88086e-08
-4.22227e-07
5.70754e-08
-4.40963e-07
5.48724e-08
-4.58718e-07
5.2174e-08
-4.75322e-07
4.89598e-08
-4.90598e-07
4.52155e-08
-5.04372e-07
4.09345e-08
-5.16469e-07
3.61185e-08
-5.26723e-07
3.07786e-08
-5.34974e-07
2.49357e-08
-5.41072e-07
1.86212e-08
-5.44884e-07
1.18773e-08
-5.46296e-07
4.75694e-09
-5.45213e-07
-2.67635e-09
-5.41566e-07
-1.03489e-08
-5.35312e-07
-1.81773e-08
-5.26438e-07
-2.607e-08
-5.14962e-07
-3.3928e-08
-5.00936e-07
-4.16469e-08
-4.84445e-07
-4.91183e-08
-4.65608e-07
-5.62321e-08
-4.44578e-07
-6.28785e-08
-4.21543e-07
-6.89506e-08
-3.96721e-07
-7.43465e-08
-3.70358e-07
-7.89724e-08
-3.42728e-07
-8.27443e-08
-3.14126e-07
-8.55906e-08
-2.84866e-07
-8.74544e-08
-2.55274e-07
-8.82947e-08
-2.25683e-07
-8.80887e-08
-1.96432e-07
-8.68321e-08
-1.67851e-07
-8.45401e-08
-1.40264e-07
-8.12474e-08
-1.13978e-07
-7.7008e-08
-8.92774e-08
-7.18942e-08
-6.64212e-08
-6.59955e-08
-4.56351e-08
-5.94172e-08
-2.71078e-08
-5.22785e-08
-1.09868e-08
-4.47106e-08
2.62512e-09
-3.68552e-08
1.36736e-08
-2.8863e-08
2.21549e-08
-2.08922e-08
2.81187e-08
-1.31084e-08
3.16699e-08
-5.68433e-09
3.29705e-08
1.19915e-09
3.22413e-08
7.35187e-09
2.97631e-08
1.25727e-08
2.58774e-08
1.6648e-08
2.09868e-08
1.93526e-08
1.55547e-08
2.04525e-08
1.0105e-08
1.97158e-08
5.22618e-09
1.69307e-08
1.58615e-09
1.19388e-08
4.69283e-09
-6.13813e-10
-3.30958e-10
-2.8223e-09
2.68336e-09
-6.86745e-09
7.98185e-09
-1.28836e-08
1.45954e-08
-2.09187e-08
2.18511e-08
-3.09518e-08
2.92625e-08
-4.29093e-08
3.64941e-08
-5.66819e-08
4.33303e-08
-7.21371e-08
4.96466e-08
-8.91311e-08
5.53846e-08
-1.07517e-07
6.0532e-08
-1.27151e-07
6.51073e-08
-1.47896e-07
6.91463e-08
-1.69621e-07
7.26931e-08
-1.92207e-07
7.57922e-08
-2.15539e-07
7.84836e-08
-2.3951e-07
8.0799e-08
-2.64015e-07
8.27596e-08
-2.8895e-07
8.43754e-08
-3.1421e-07
8.56448e-08
-3.39684e-07
8.65552e-08
-3.65254e-07
8.70846e-08
-3.90796e-07
8.72026e-08
-4.16173e-07
8.68726e-08
-4.41241e-07
8.60535e-08
-4.65841e-07
8.4702e-08
-4.89807e-07
8.27744e-08
-5.12961e-07
8.02289e-08
-5.35115e-07
7.70271e-08
-5.56078e-07
7.31363e-08
-5.75649e-07
6.85313e-08
-5.93629e-07
6.31954e-08
-6.09817e-07
5.71224e-08
-6.24016e-07
5.03175e-08
-6.36036e-07
4.27987e-08
-6.45698e-07
3.45972e-08
-6.52835e-07
2.57584e-08
-6.57299e-07
1.6342e-08
-6.58964e-07
6.42188e-09
-6.57727e-07
-3.9139e-09
-6.53512e-07
-1.4564e-08
-6.46274e-07
-2.54148e-08
-6.36002e-07
-3.63416e-08
-6.2272e-07
-4.72103e-08
-6.06487e-07
-5.78799e-08
-5.87401e-07
-6.82045e-08
-5.65597e-07
-7.80357e-08
-5.4125e-07
-8.72263e-08
-5.14568e-07
-9.56326e-08
-4.85796e-07
-1.03118e-07
-4.55213e-07
-1.09556e-07
-4.23124e-07
-1.14833e-07
-3.89861e-07
-1.18854e-07
-3.55776e-07
-1.21539e-07
-3.21238e-07
-1.22833e-07
-2.86623e-07
-1.22703e-07
-2.52313e-07
-1.21142e-07
-2.18685e-07
-1.18168e-07
-1.86107e-07
-1.13825e-07
-1.54932e-07
-1.08183e-07
-1.25488e-07
-1.01338e-07
-9.80745e-08
-9.34087e-08
-7.29568e-08
-8.45349e-08
-5.03584e-08
-7.48769e-08
-3.04573e-08
-6.46117e-08
-1.33814e-08
-5.39311e-08
7.95273e-10
-4.30397e-08
1.2056e-08
-3.21529e-08
2.04437e-08
-2.14961e-08
2.60632e-08
-1.13039e-08
2.90831e-08
-1.82073e-09
2.97367e-08
6.69827e-09
2.8323e-08
1.39863e-08
2.52071e-08
1.97639e-08
2.08201e-08
2.37395e-08
1.56603e-08
2.56123e-08
1.02958e-08
2.50803e-08
5.37316e-09
2.18533e-08
1.63887e-09
1.56731e-08
6.3317e-09
-1.01352e-09
6.82583e-10
-4.24162e-09
5.91143e-09
-9.79482e-09
1.3535e-08
-1.77109e-08
2.25115e-08
-2.79655e-08
3.21057e-08
-4.04837e-08
4.17807e-08
-5.51522e-08
5.11625e-08
-7.18314e-08
6.00095e-08
-9.03662e-08
6.81815e-08
-1.10595e-07
7.56132e-08
-1.32356e-07
8.22927e-08
-1.55491e-07
8.82429e-08
-1.79852e-07
9.35072e-08
-2.05297e-07
9.81382e-08
-2.31694e-07
1.02189e-07
-2.58916e-07
1.05706e-07
-2.86843e-07
1.08726e-07
-3.15355e-07
1.11272e-07
-3.44335e-07
1.13355e-07
-3.73658e-07
1.14968e-07
-4.03197e-07
1.16095e-07
-4.32817e-07
1.16704e-07
-4.6237e-07
1.16756e-07
-4.91701e-07
1.16203e-07
-5.2064e-07
1.14993e-07
-5.49008e-07
1.1307e-07
-5.76614e-07
1.1038e-07
-6.03254e-07
1.06869e-07
-6.28719e-07
1.02492e-07
-6.52791e-07
9.7208e-08
-6.75247e-07
9.09876e-08
-6.95864e-07
8.38125e-08
-7.1442e-07
7.56779e-08
-7.30696e-07
6.65939e-08
-7.44485e-07
5.6587e-08
-7.55588e-07
4.57006e-08
-7.63825e-07
3.39958e-08
-7.69036e-07
2.15522e-08
-7.71081e-07
8.46705e-09
-7.6985e-07
-5.14481e-09
-7.65262e-07
-1.91519e-08
-7.5727e-07
-3.34073e-08
-7.45861e-07
-4.77506e-08
-7.31061e-07
-6.201e-08
-7.12936e-07
-7.60048e-08
-6.91592e-07
-8.95485e-08
-6.67176e-07
-1.02452e-07
-6.39876e-07
-1.14527e-07
-6.09919e-07
-1.25589e-07
-5.77571e-07
-1.35466e-07
-5.43134e-07
-1.43993e-07
-5.0694e-07
-1.51027e-07
-4.69353e-07
-1.56441e-07
-4.30756e-07
-1.60135e-07
-3.91554e-07
-1.62035e-07
-3.52161e-07
-1.62096e-07
-3.12999e-07
-1.60305e-07
-2.74487e-07
-1.56681e-07
-2.37034e-07
-1.51278e-07
-2.01036e-07
-1.44182e-07
-1.66863e-07
-1.35511e-07
-1.34856e-07
-1.25416e-07
-1.05318e-07
-1.14073e-07
-7.85094e-08
-1.01686e-07
-5.46401e-08
-8.8481e-08
-3.38663e-08
-7.47049e-08
-1.62854e-08
-6.06206e-08
-1.93217e-09
-4.65062e-08
9.22407e-09
-3.26523e-08
1.72815e-08
-1.93613e-08
2.24078e-08
-6.94703e-09
2.48409e-08
4.26523e-09
2.48895e-08
1.39377e-08
2.29337e-08
2.17198e-08
1.94251e-08
2.72481e-08
1.48887e-08
3.01487e-08
9.92762e-09
3.00414e-08
5.23314e-09
2.65478e-08
1.60527e-09
1.9301e-08
7.93698e-09
-1.4239e-09
2.10648e-09
-5.71476e-09
1.02023e-08
-1.28488e-08
2.06691e-08
-2.27584e-08
3.24212e-08
-3.53372e-08
4.46845e-08
-5.04471e-08
5.68906e-08
-6.79271e-08
6.86426e-08
-8.76019e-08
7.96843e-08
-1.0929e-07
8.98691e-08
-1.32808e-07
9.91314e-08
-1.57979e-07
1.07464e-07
-1.84632e-07
1.14897e-07
-2.12608e-07
1.21483e-07
-2.41755e-07
1.27285e-07
-2.71929e-07
1.32363e-07
-3.02995e-07
1.36772e-07
-3.3482e-07
1.40551e-07
-3.67274e-07
1.43726e-07
-4.00223e-07
1.46303e-07
-4.3353e-07
1.48275e-07
-4.67051e-07
1.49616e-07
-5.00633e-07
1.50286e-07
-5.34111e-07
1.50234e-07
-5.6731e-07
1.49401e-07
-6.00039e-07
1.47722e-07
-6.32097e-07
1.45129e-07
-6.63272e-07
1.41555e-07
-6.93339e-07
1.36936e-07
-7.22065e-07
1.31218e-07
-7.49212e-07
1.24355e-07
-7.74535e-07
1.16311e-07
-7.9779e-07
1.07068e-07
-8.18737e-07
9.6624e-08
-8.37137e-07
8.49947e-08
-8.52766e-07
7.22162e-08
-8.65411e-07
5.83455e-08
-8.74877e-07
4.34616e-08
-8.8099e-07
2.76649e-08
-8.83601e-07
1.10781e-08
-8.82591e-07
-6.15533e-09
-8.77871e-07
-2.38719e-08
-8.69388e-07
-4.18895e-08
-8.57129e-07
-6.001e-08
-8.41118e-07
-7.80214e-08
-8.21421e-07
-9.57014e-08
-7.98149e-07
-1.1282e-07
-7.71456e-07
-1.29145e-07
-7.41538e-07
-1.44444e-07
-7.08636e-07
-1.58492e-07
-6.7303e-07
-1.71072e-07
-6.3504e-07
-1.81983e-07
-5.95022e-07
-1.91045e-07
-5.53361e-07
-1.98101e-07
-5.10473e-07
-2.03024e-07
-4.66791e-07
-2.05717e-07
-4.22766e-07
-2.06121e-07
-3.78856e-07
-2.04215e-07
-3.35519e-07
-2.00018e-07
-2.93205e-07
-1.93591e-07
-2.52353e-07
-1.85034e-07
-2.13375e-07
-1.74489e-07
-1.76654e-07
-1.62137e-07
-1.42532e-07
-1.48194e-07
-1.1131e-07
-1.32908e-07
-8.32315e-08
-1.16559e-07
-5.84857e-08
-9.94506e-08
-3.71973e-08
-8.19091e-08
-1.94239e-08
-6.42796e-08
-5.15268e-09
-4.69235e-08
5.70219e-09
-3.02162e-08
1.33012e-08
-1.45461e-08
1.78806e-08
-3.14106e-10
1.97524e-08
1.20658e-08
1.93056e-08
2.21666e-08
1.7006e-08
2.95477e-08
1.33987e-08
3.3756e-08
9.11313e-09
3.4327e-08
4.87232e-09
3.07886e-08
1.50932e-09
2.2664e-08
9.44631e-09
-1.83935e-09
3.94583e-09
-7.21832e-09
1.55813e-08
-1.59795e-08
2.94303e-08
-2.79453e-08
4.4387e-08
-4.29212e-08
5.96604e-08
-6.06996e-08
7.4669e-08
-8.10659e-08
8.90089e-08
-1.03804e-07
1.02422e-07
-1.28701e-07
1.14766e-07
-1.55553e-07
1.25983e-07
-1.84164e-07
1.36075e-07
-2.14351e-07
1.45084e-07
-2.45943e-07
1.53075e-07
-2.78779e-07
1.60121e-07
-3.12708e-07
1.66292e-07
-3.47584e-07
1.71648e-07
-3.83265e-07
1.76232e-07
-4.1961e-07
1.80071e-07
-4.56476e-07
1.83169e-07
-4.9371e-07
1.8551e-07
-5.31156e-07
1.87062e-07
-5.68644e-07
1.87774e-07
-6.05993e-07
1.87583e-07
-6.4301e-07
1.86418e-07
-6.79485e-07
1.84198e-07
-7.152e-07
1.80843e-07
-7.4992e-07
1.76275e-07
-7.83402e-07
1.70419e-07
-8.15394e-07
1.63211e-07
-8.45637e-07
1.54597e-07
-8.73868e-07
1.44542e-07
-8.99825e-07
1.33025e-07
-9.23247e-07
1.20046e-07
-9.43882e-07
1.0563e-07
-9.61487e-07
8.98217e-08
-9.75836e-07
7.2694e-08
-9.86718e-07
5.43438e-08
-9.93947e-07
3.48942e-08
-9.97363e-07
1.44939e-08
-9.96835e-07
-6.6835e-09
-9.92265e-07
-2.84413e-08
-9.83594e-07
-5.05611e-08
-9.70798e-07
-7.28052e-08
-9.53899e-07
-9.49203e-08
-9.32961e-07
-1.1664e-07
-9.08091e-07
-1.3769e-07
-8.79446e-07
-1.57791e-07
-8.47225e-07
-1.76665e-07
-8.11676e-07
-1.94041e-07
-7.73089e-07
-2.09659e-07
-7.31798e-07
-2.23275e-07
-6.88174e-07
-2.34669e-07
-6.42627e-07
-2.43649e-07
-5.95594e-07
-2.50057e-07
-5.47539e-07
-2.53772e-07
-4.98944e-07
-2.54716e-07
-4.50304e-07
-2.52856e-07
-4.02115e-07
-2.48207e-07
-3.54869e-07
-2.40836e-07
-3.09048e-07
-2.30855e-07
-2.65108e-07
-2.18429e-07
-2.23476e-07
-2.03769e-07
-1.84539e-07
-1.87131e-07
-1.48638e-07
-1.68809e-07
-1.16058e-07
-1.49139e-07
-8.70243e-08
-1.28485e-07
-6.16934e-08
-1.0724e-07
-4.01513e-08
-8.58218e-08
-2.2408e-08
-6.46668e-08
-8.39567e-09
-4.42286e-08
2.03388e-09
-2.49756e-08
9.10971e-09
-7.38994e-09
1.31424e-08
8.03307e-09
1.45246e-08
2.07844e-08
1.37311e-08
3.03412e-08
1.13215e-08
3.61655e-08
7.94401e-09
3.77045e-08
4.34264e-09
3.439e-08
1.36846e-09
2.56382e-08
1.08148e-08
-2.25685e-09
6.2027e-09
-8.73781e-09
2.20622e-08
-1.91535e-08
3.98459e-08
-3.32148e-08
5.84484e-08
-5.06352e-08
7.70808e-08
-7.11334e-08
9.51672e-08
-9.44368e-08
1.12312e-07
-1.20285e-07
1.28271e-07
-1.48432e-07
1.42913e-07
-1.78648e-07
1.56199e-07
-2.1072e-07
1.68146e-07
-2.4445e-07
1.78814e-07
-2.79658e-07
1.88283e-07
-3.16174e-07
1.96637e-07
-3.53838e-07
2.03956e-07
-3.92499e-07
2.10308e-07
-4.32005e-07
2.15739e-07
-4.72208e-07
2.20274e-07
-5.12953e-07
2.23913e-07
-5.54078e-07
2.26636e-07
-5.95413e-07
2.28397e-07
-6.36776e-07
2.29137e-07
-6.7797e-07
2.28777e-07
-7.18786e-07
2.27233e-07
-7.58999e-07
2.24411e-07
-7.98372e-07
2.20216e-07
-8.36655e-07
2.14557e-07
-8.73586e-07
2.0735e-07
-9.08894e-07
1.98519e-07
-9.42304e-07
1.88007e-07
-9.73535e-07
1.75773e-07
-1.00231e-06
1.61797e-07
-1.02835e-06
1.46084e-07
-1.05138e-06
1.28664e-07
-1.07115e-06
1.09594e-07
-1.08742e-06
8.8962e-08
-1.09996e-06
6.68834e-08
-1.10857e-06
4.35045e-08
-1.11308e-06
1.90007e-08
-1.11334e-06
-6.42403e-09
-1.10924e-06
-3.25391e-08
-1.10071e-06
-5.90888e-08
-1.08772e-06
-8.57953e-08
-1.07028e-06
-1.12362e-07
-1.04844e-06
-1.38478e-07
-1.02231e-06
-1.63822e-07
-9.92032e-07
-1.88067e-07
-9.57812e-07
-2.10886e-07
-9.19895e-07
-2.31958e-07
-8.78577e-07
-2.50976e-07
-8.34201e-07
-2.67651e-07
-7.87151e-07
-2.81718e-07
-7.37853e-07
-2.92947e-07
-6.86767e-07
-3.01142e-07
-6.34384e-07
-3.06155e-07
-5.81218e-07
-3.07882e-07
-5.27796e-07
-3.06277e-07
-4.74658e-07
-3.01346e-07
-4.22338e-07
-2.93156e-07
-3.71361e-07
-2.81832e-07
-3.22233e-07
-2.67558e-07
-2.75428e-07
-2.50575e-07
-2.31381e-07
-2.31177e-07
-1.90481e-07
-2.0971e-07
-1.53057e-07
-1.86563e-07
-1.19376e-07
-1.62166e-07
-8.9633e-08
-1.36983e-07
-6.39473e-08
-1.11507e-07
-4.23574e-08
-8.62566e-08
-2.48184e-08
-6.17676e-08
-1.11995e-08
-3.85945e-08
-1.2835e-09
-1.7306e-08
5.23433e-09
1.51522e-09
8.74599e-09
1.72728e-08
9.73135e-09
2.93558e-08
8.75933e-09
3.71376e-08
6.49074e-09
3.9973e-08
3.68275e-09
3.7198e-08
1.19493e-09
2.8126e-08
1.20097e-08
-2.67463e-09
8.87731e-09
-1.02634e-08
2.9651e-08
-2.23472e-08
5.19297e-08
-3.85249e-08
7.46261e-08
-5.84163e-08
9.69721e-08
-8.16635e-08
1.18414e-07
-1.07934e-07
1.38582e-07
-1.36919e-07
1.57256e-07
-1.68339e-07
1.74333e-07
-2.01935e-07
1.89796e-07
-2.37477e-07
2.03688e-07
-2.74754e-07
2.16091e-07
-3.13572e-07
2.27101e-07
-3.53756e-07
2.3682e-07
-3.95139e-07
2.4534e-07
-4.37563e-07
2.52732e-07
-4.80871e-07
2.59047e-07
-5.24907e-07
2.64309e-07
-5.69507e-07
2.68513e-07
-6.14501e-07
2.7163e-07
-6.59709e-07
2.73605e-07
-7.04935e-07
2.74363e-07
-7.49971e-07
2.73814e-07
-7.94594e-07
2.71856e-07
-8.38565e-07
2.68382e-07
-8.81632e-07
2.63283e-07
-9.23529e-07
2.56454e-07
-9.63977e-07
2.47798e-07
-1.00269e-06
2.37234e-07
-1.03938e-06
2.24696e-07
-1.07375e-06
2.1014e-07
-1.1055e-06
1.93547e-07
-1.13434e-06
1.74924e-07
-1.15998e-06
1.54309e-07
-1.18216e-06
1.31771e-07
-1.20061e-06
1.07412e-07
-1.21509e-06
8.13666e-08
-1.22539e-06
5.38037e-08
-1.23132e-06
2.49255e-08
-1.23271e-06
-5.03391e-09
-1.22944e-06
-3.58099e-08
-1.22142e-06
-6.71091e-08
-1.2086e-06
-9.86134e-08
-1.19098e-06
-1.29983e-07
-1.1686e-06
-1.60859e-07
-1.14155e-06
-1.90874e-07
-1.10996e-06
-2.19648e-07
-1.07404e-06
-2.46805e-07
-1.03403e-06
-2.71972e-07
-9.90218e-07
-2.94789e-07
-9.42952e-07
-3.14917e-07
-8.92628e-07
-3.32043e-07
-8.39683e-07
-3.45892e-07
-7.84599e-07
-3.56227e-07
-7.2789e-07
-3.62863e-07
-6.70102e-07
-3.65671e-07
-6.11799e-07
-3.6458e-07
-5.5356e-07
-3.59585e-07
-4.95965e-07
-3.50751e-07
-4.39589e-07
-3.38208e-07
-3.84988e-07
-3.22159e-07
-3.3269e-07
-3.02872e-07
-2.83185e-07
-2.80682e-07
-2.36913e-07
-2.55982e-07
-1.94255e-07
-2.29221e-07
-1.55526e-07
-2.00895e-07
-1.20965e-07
-1.71544e-07
-9.07314e-08
-1.41741e-07
-6.48976e-08
-1.1209e-07
-4.34472e-08
-8.3218e-08
-2.62718e-08
-5.57698e-08
-1.31703e-08
-3.04075e-08
-3.84813e-09
-7.80699e-09
2.08264e-09
1.1342e-08
5.10298e-09
2.63355e-08
5.78731e-09
3.64532e-08
4.80466e-09
4.09557e-08
2.9202e-09
3.90824e-08
9.97084e-10
3.00491e-08
1.30068e-08
-3.09128e-09
1.19686e-08
-1.17878e-08
3.83476e-08
-2.55423e-08
6.56842e-08
-4.38425e-08
9.29262e-08
-6.62134e-08
1.19343e-07
-9.22198e-08
1.44421e-07
-1.21467e-07
1.67829e-07
-1.53598e-07
1.89387e-07
-1.88295e-07
2.0903e-07
-2.25274e-07
2.26775e-07
-2.64283e-07
2.42698e-07
-3.05098e-07
2.56905e-07
-3.47515e-07
2.69519e-07
-3.91352e-07
2.80657e-07
-4.36436e-07
2.90423e-07
-4.82603e-07
2.98899e-07
-5.29693e-07
3.06137e-07
-5.77542e-07
3.12158e-07
-6.25982e-07
3.16953e-07
-6.74835e-07
3.20483e-07
-7.2391e-07
3.2268e-07
-7.73005e-07
3.23457e-07
-8.21899e-07
3.22708e-07
-8.70357e-07
3.20315e-07
-9.1813e-07
3.16155e-07
-9.6495e-07
3.10103e-07
-1.01054e-06
3.02042e-07
-1.0546e-06
2.91865e-07
-1.09685e-06
2.79478e-07
-1.13696e-06
2.6481e-07
-1.17464e-06
2.47814e-07
-1.20956e-06
2.2847e-07
-1.24142e-06
2.06788e-07
-1.26993e-06
1.82815e-07
-1.29478e-06
1.56628e-07
-1.31572e-06
1.28343e-07
-1.33246e-06
9.81154e-08
-1.3448e-06
6.61344e-08
-1.3525e-06
3.26284e-08
-1.35539e-06
-2.13868e-09
-1.35333e-06
-3.78692e-08
-1.34621e-06
-7.42323e-08
-1.33396e-06
-1.10869e-07
-1.31654e-06
-1.47396e-07
-1.29399e-06
-1.83408e-07
-1.26638e-06
-2.18486e-07
-1.23383e-06
-2.52199e-07
-1.19652e-06
-2.84116e-07
-1.15468e-06
-3.13809e-07
-1.10861e-06
-3.40863e-07
-1.05864e-06
-3.64883e-07
-1.00518e-06
-3.85503e-07
-9.48678e-07
-4.02394e-07
-8.89629e-07
-4.15276e-07
-8.28573e-07
-4.23919e-07
-7.66084e-07
-4.2816e-07
-7.02764e-07
-4.27899e-07
-6.39235e-07
-4.23115e-07
-5.76125e-07
-4.1386e-07
-5.14062e-07
-4.00271e-07
-4.53659e-07
-3.82562e-07
-3.95503e-07
-3.61028e-07
-3.40144e-07
-3.36041e-07
-2.88081e-07
-3.08045e-07
-2.39756e-07
-2.77546e-07
-1.95537e-07
-2.45114e-07
-1.55716e-07
-2.11365e-07
-1.20498e-07
-1.76959e-07
-8.99962e-08
-1.42592e-07
-6.4229e-08
-1.08985e-07
-4.31155e-08
-7.68833e-08
-2.64751e-08
-4.70479e-08
-1.40272e-08
-2.02549e-08
-5.39162e-09
2.70639e-09
-8.93282e-11
2.10332e-08
2.45673e-09
3.39071e-08
2.9208e-09
4.04916e-08
2.07356e-09
3.99297e-08
7.80407e-10
3.13423e-08
1.37872e-08
-3.50552e-09
1.54741e-08
-1.33045e-08
4.81465e-08
-2.87232e-08
8.11029e-08
-4.91387e-08
1.13342e-07
-7.39822e-08
1.44187e-07
-1.02741e-07
1.73179e-07
-1.34956e-07
2.00045e-07
-1.70223e-07
2.24655e-07
-2.08186e-07
2.46993e-07
-2.48534e-07
2.67122e-07
-2.90994e-07
2.85158e-07
-3.35328e-07
3.01239e-07
-3.81324e-07
3.15515e-07
-4.28791e-07
3.28124e-07
-4.77553e-07
3.39185e-07
-5.27442e-07
3.48788e-07
-5.78293e-07
3.56989e-07
-6.2994e-07
3.63805e-07
-6.82209e-07
3.69222e-07
-7.34916e-07
3.7319e-07
-7.87864e-07
3.75628e-07
-8.40842e-07
3.76435e-07
-8.93622e-07
3.75488e-07
-9.45959e-07
3.72652e-07
-9.97592e-07
3.67787e-07
-1.04824e-06
3.60755e-07
-1.09762e-06
3.51422e-07
-1.14543e-06
3.39669e-07
-1.19134e-06
3.25394e-07
-1.23505e-06
3.08518e-07
-1.27623e-06
2.8899e-07
-1.31455e-06
2.66788e-07
-1.34969e-06
2.41927e-07
-1.38133e-06
2.14456e-07
-1.40917e-06
1.84465e-07
-1.4329e-06
1.52082e-07
-1.45227e-06
1.17478e-07
-1.467e-06
8.08651e-08
-1.47686e-06
4.24948e-08
-1.48166e-06
2.65991e-09
-1.48122e-06
-3.83096e-08
-1.47541e-06
-8.00465e-08
-1.46413e-06
-1.22152e-07
-1.44732e-06
-1.64198e-07
-1.425e-06
-2.05733e-07
-1.3972e-06
-2.46284e-07
-1.36403e-06
-2.85369e-07
-1.32565e-06
-3.22498e-07
-1.28227e-06
-3.57186e-07
-1.23418e-06
-3.88956e-07
-1.18171e-06
-4.17353e-07
-1.12526e-06
-4.41951e-07
-1.06529e-06
-4.62365e-07
-1.00231e-06
-4.78258e-07
-9.36876e-07
-4.89352e-07
-8.69596e-07
-4.95439e-07
-8.0111e-07
-4.96386e-07
-7.32081e-07
-4.92143e-07
-6.63192e-07
-4.8275e-07
-5.95126e-07
-4.68337e-07
-5.28559e-07
-4.49129e-07
-4.64144e-07
-4.25443e-07
-4.02498e-07
-3.97688e-07
-3.44189e-07
-3.66354e-07
-2.89723e-07
-3.32012e-07
-2.39535e-07
-2.95302e-07
-1.93975e-07
-2.56924e-07
-1.53304e-07
-2.17631e-07
-1.17682e-07
-1.78214e-07
-8.71686e-08
-1.39499e-07
-6.1716e-08
-1.02336e-07
-4.11694e-08
-6.75945e-08
-2.52662e-08
-3.6158e-08
-1.36373e-08
-8.92251e-09
-5.80832e-09
1.32041e-08
-1.20178e-09
2.93006e-08
8.60437e-10
3.84294e-08
1.15413e-09
3.9636e-08
5.48185e-10
3.19482e-08
1.43354e-08
-3.91593e-09
1.939e-08
-1.4807e-08
5.90376e-08
-3.18748e-08
9.81707e-08
-5.4387e-08
1.35854e-07
-8.16816e-08
1.71481e-07
-1.13169e-07
2.04666e-07
-1.48327e-07
2.35204e-07
-1.86704e-07
2.63031e-07
-2.27905e-07
2.88194e-07
-2.71592e-07
3.10809e-07
-3.17472e-07
3.31038e-07
-3.65294e-07
3.49061e-07
-4.14836e-07
3.65057e-07
-4.65903e-07
3.79191e-07
-5.18313e-07
3.91596e-07
-5.71897e-07
4.02373e-07
-6.26488e-07
4.11579e-07
-6.81915e-07
4.19232e-07
-7.38001e-07
4.25309e-07
-7.9456e-07
4.29749e-07
-8.5139e-07
4.32458e-07
-9.08272e-07
4.33318e-07
-9.64973e-07
4.32188e-07
-1.02124e-06
4.28918e-07
-1.0768e-06
4.23349e-07
-1.13137e-06
4.15327e-07
-1.18465e-06
4.04704e-07
-1.23633e-06
3.91346e-07
-1.28608e-06
3.75142e-07
-1.33357e-06
3.56006e-07
-1.37846e-06
3.3388e-07
-1.42041e-06
3.08741e-07
-1.45909e-06
2.80605e-07
-1.49416e-06
2.49526e-07
-1.52529e-06
2.156e-07
-1.55218e-06
1.7897e-07
-1.57452e-06
1.3982e-07
-1.59204e-06
9.83796e-08
-1.60447e-06
5.49253e-08
-1.61158e-06
9.77578e-09
-1.61318e-06
-3.67078e-08
-1.60911e-06
-8.41239e-08
-1.59923e-06
-1.32034e-07
-1.58346e-06
-1.79966e-07
-1.56177e-06
-2.2742e-07
-1.53418e-06
-2.73874e-07
-1.50076e-06
-3.18786e-07
-1.46165e-06
-3.6161e-07
-1.41704e-06
-4.01795e-07
-1.3672e-06
-4.38802e-07
-1.31244e-06
-4.72109e-07
-1.25317e-06
-5.01224e-07
-1.18984e-06
-5.25696e-07
-1.12297e-06
-5.45126e-07
-1.05314e-06
-5.59177e-07
-9.80993e-07
-5.6759e-07
-9.07193e-07
-5.70186e-07
-8.32456e-07
-5.66881e-07
-7.57516e-07
-5.5769e-07
-6.83119e-07
-5.42733e-07
-6.1001e-07
-5.22238e-07
-5.38913e-07
-4.96541e-07
-4.7052e-07
-4.6608e-07
-4.05477e-07
-4.31397e-07
-3.44367e-07
-3.93122e-07
-2.87698e-07
-3.51972e-07
-2.35888e-07
-3.08734e-07
-1.89262e-07
-2.64257e-07
-1.48037e-07
-2.19438e-07
-1.1232e-07
-1.75215e-07
-8.21048e-08
-1.32552e-07
-5.72662e-08
-9.24331e-08
-3.75647e-08
-5.58595e-08
-2.26454e-08
-2.38418e-08
-1.20411e-08
2.5998e-09
-5.17531e-09
2.24348e-08
-1.36648e-09
3.46206e-08
1.67374e-10
3.81021e-08
3.02013e-10
3.18136e-08
1.46374e-08
-4.32085e-09
2.37109e-08
-1.62887e-08
7.10055e-08
-3.49819e-08
1.16864e-07
-5.95606e-08
1.60433e-07
-8.92713e-08
2.01192e-07
-1.23448e-07
2.38843e-07
-1.61508e-07
2.73264e-07
-2.02951e-07
3.04474e-07
-2.47345e-07
3.32588e-07
-2.94325e-07
3.57789e-07
-3.4358e-07
3.80293e-07
-3.94845e-07
4.00325e-07
-4.4789e-07
4.18102e-07
-5.02514e-07
4.33815e-07
-5.58535e-07
4.47616e-07
-6.15779e-07
4.59617e-07
-6.74079e-07
4.69879e-07
-7.33263e-07
4.78416e-07
-7.93153e-07
4.85199e-07
-8.5356e-07
4.90155e-07
-9.14277e-07
4.93175e-07
-9.75084e-07
4.94124e-07
-1.03574e-06
4.92844e-07
-1.09599e-06
4.89165e-07
-1.15555e-06
4.82912e-07
-1.21413e-06
4.73911e-07
-1.27143e-06
4.62e-07
-1.32712e-06
4.47033e-07
-1.38086e-06
4.28885e-07
-1.43232e-06
4.07461e-07
-1.48113e-06
3.82698e-07
-1.52696e-06
3.5457e-07
-1.56945e-06
3.23091e-07
-1.60824e-06
2.88318e-07
-1.643e-06
2.50355e-07
-1.67338e-06
2.09352e-07
-1.69906e-06
1.65507e-07
-1.71975e-06
1.19066e-07
-1.73515e-06
7.03253e-08
-1.745e-06
1.96288e-08
-1.74908e-06
-3.26335e-08
-1.74718e-06
-8.6027e-08
-1.73913e-06
-1.40075e-07
-1.72484e-06
-1.94263e-07
-1.70421e-06
-2.48043e-07
-1.67725e-06
-3.0084e-07
-1.64398e-06
-3.52056e-07
-1.60451e-06
-4.01081e-07
-1.559e-06
-4.473e-07
-1.5077e-06
-4.90104e-07
-1.45091e-06
-5.28899e-07
-1.38901e-06
-5.6312e-07
-1.32247e-06
-5.92243e-07
-1.2518e-06
-6.15797e-07
-1.17759e-06
-6.33379e-07
-1.10052e-06
-6.44664e-07
-1.02129e-06