/*--------------------------------*- C++ -*----------------------------------*\
  =========                 |
  \\      /  F ield         | OpenFOAM: The Open Source CFD Toolbox
   \\    /   O peration     | Website:  https://openfoam.org
    \\  /    A nd           | Version:  7
     \\/     M anipulation  |
\*---------------------------------------------------------------------------*/
FoamFile
{
    version     2.0;
    format      ascii;
    class       volVectorField;
    location    "1";
    object      U;
}
// * * * * * * * * * * * * * * * * * * * * * * * * * * * * * * * * * * * * * //

dimensions      [0 1 -1 0 0 0 0];

internalField   nonuniform List<vector> 
6400
(
(1.02102e-05 -1.03307e-05 0)
(3.97107e-05 -1.83853e-05 0)
(7.40433e-05 -1.62937e-05 0)
(9.37815e-05 -9.37358e-06 0)
(8.99634e-05 -7.73737e-07 0)
(6.04158e-05 7.9441e-06 0)
(5.58568e-06 1.605e-05 0)
(-7.2774e-05 2.3251e-05 0)
(-0.00017229 2.94786e-05 0)
(-0.000290411 3.47753e-05 0)
(-0.000424669 3.92376e-05 0)
(-0.000572806 4.29855e-05 0)
(-0.000732841 4.61397e-05 0)
(-0.000903083 4.88149e-05 0)
(-0.00108212 5.11146e-05 0)
(-0.00126879 5.31226e-05 0)
(-0.00146212 5.49032e-05 0)
(-0.00166131 5.65022e-05 0)
(-0.00186563 5.7947e-05 0)
(-0.00207443 5.92467e-05 0)
(-0.00228704 6.03949e-05 0)
(-0.00250275 6.13722e-05 0)
(-0.00272077 6.21473e-05 0)
(-0.0029402 6.26797e-05 0)
(-0.00316002 6.29216e-05 0)
(-0.00337903 6.28208e-05 0)
(-0.00359591 6.23221e-05 0)
(-0.00380913 6.13696e-05 0)
(-0.00401702 5.99088e-05 0)
(-0.00421777 5.78886e-05 0)
(-0.00440941 5.52626e-05 0)
(-0.00458985 5.19904e-05 0)
(-0.00475694 4.80407e-05 0)
(-0.00490842 4.33922e-05 0)
(-0.00504206 3.80357e-05 0)
(-0.0051556 3.19752e-05 0)
(-0.00524688 2.52293e-05 0)
(-0.00531381 1.78324e-05 0)
(-0.00535449 9.83648e-06 0)
(-0.00536722 1.31073e-06 0)
(-0.00535058 -7.65999e-06 0)
(-0.00530344 -1.69714e-05 0)
(-0.00522505 -2.65038e-05 0)
(-0.00511507 -3.61227e-05 0)
(-0.0049736 -4.56812e-05 0)
(-0.00480122 -5.50223e-05 0)
(-0.00459901 -6.39826e-05 0)
(-0.00436857 -7.23959e-05 0)
(-0.00411198 -8.00974e-05 0)
(-0.00383183 -8.69287e-05 0)
(-0.00353119 -9.27414e-05 0)
(-0.00321354 -9.74029e-05 0)
(-0.00288272 -0.000100801 0)
(-0.00254291 -0.000102845 0)
(-0.00219847 -0.000103475 0)
(-0.00185396 -0.000102656 0)
(-0.00151395 -0.000100388 0)
(-0.00118298 -9.67006e-05 0)
(-0.000865468 -9.16554e-05 0)
(-0.000565589 -8.53429e-05 0)
(-0.000287209 -7.7881e-05 0)
(-3.38006e-05 -6.94106e-05 0)
(0.000191626 -6.00923e-05 0)
(0.000386581 -5.00997e-05 0)
(0.000549142 -3.96202e-05 0)
(0.000677986 -2.88465e-05 0)
(0.000772418 -1.79752e-05 0)
(0.00083239 -7.2061e-06 0)
(0.000858523 3.25705e-06 0)
(0.000852128 1.32019e-05 0)
(0.000815246 2.23996e-05 0)
(0.000750717 3.05875e-05 0)
(0.000662285 3.74443e-05 0)
(0.00055477 4.25494e-05 0)
(0.000434335 4.53215e-05 0)
(0.000308873 4.49467e-05 0)
(0.000188413 4.03254e-05 0)
(8.54055e-05 3.00411e-05 0)
(1.51979e-05 1.31055e-05 0)
(-4.79195e-06 -4.75837e-06 0)
(1.84744e-05 -3.98446e-05 0)
(6.20427e-05 -6.17739e-05 0)
(9.83462e-05 -4.47676e-05 0)
(9.52515e-05 -7.23824e-06 0)
(3.6183e-05 3.92126e-05 0)
(-8.48388e-05 8.77804e-05 0)
(-0.000268353 0.000134646 0)
(-0.000511606 0.000177842 0)
(-0.000809973 0.000216528 0)
(-0.00115798 0.000250526 0)
(-0.00154996 0.000280046 0)
(-0.0019805 0.000305506 0)
(-0.00244461 0.000327413 0)
(-0.00293788 0.000346291 0)
(-0.00345645 0.000362627 0)
(-0.00399701 0.000376841 0)
(-0.00455667 0.000389264 0)
(-0.00513289 0.000400134 0)
(-0.00572337 0.00040959 0)
(-0.00632587 0.000417678 0)
(-0.00693818 0.000424356 0)
(-0.00755796 0.000429506 0)
(-0.00818266 0.000432948 0)
(-0.00880947 0.000434445 0)
(-0.00943523 0.000433724 0)
(-0.0100564 0.000430485 0)
(-0.0106691 0.000424415 0)
(-0.0112689 0.000415201 0)
(-0.0118512 0.000402542 0)
(-0.0124108 0.000386159 0)
(-0.0129423 0.000365812 0)
(-0.0134401 0.000341301 0)
(-0.0138983 0.000312487 0)
(-0.014311 0.000279296 0)
(-0.0146721 0.000241729 0)
(-0.0149759 0.000199871 0)
(-0.0152166 0.000153897 0)
(-0.0153891 0.000104077 0)
(-0.0154884 5.07815e-05 0)
(-0.0155105 -5.51819e-06 0)
(-0.0154517 -6.42526e-05 0)
(-0.0153096 -0.000124756 0)
(-0.0150824 -0.000186274 0)
(-0.0147696 -0.000247974 0)
(-0.014372 -0.000308959 0)
(-0.0138912 -0.000368281 0)
(-0.0133304 -0.000424965 0)
(-0.0126942 -0.000478028 0)
(-0.0119881 -0.000526503 0)
(-0.0112193 -0.000569463 0)
(-0.0103957 -0.00060605 0)
(-0.00952666 -0.000635497 0)
(-0.00862223 -0.000657153 0)
(-0.00769331 -0.000670503 0)
(-0.00675137 -0.000675187 0)
(-0.00580822 -0.000671016 0)
(-0.00487582 -0.000657977 0)
(-0.00396604 -0.00063624 0)
(-0.0030904 -0.000606154 0)
(-0.00225987 -0.000568241 0)
(-0.00148465 -0.000523183 0)
(-0.000773937 -0.000471808 0)
(-0.000135764 -0.000415064 0)
(0.000423161 -0.000354003 0)
(0.000897596 -0.000289761 0)
(0.00128387 -0.000223535 0)
(0.00157998 -0.000156572 0)
(0.00178565 -9.01611e-05 0)
(0.00190244 -2.56383e-05 0)
(0.00193379 3.55943e-05 0)
(0.00188514 9.20337e-05 0)
(0.00176408 0.000142015 0)
(0.00158058 0.000183624 0)
(0.00134722 0.000214579 0)
(0.00107963 0.000232087 0)
(0.00079681 0.000232745 0)
(0.000521145 0.000212643 0)
(0.000277769 0.000167822 0)
(9.66224e-05 9.68738e-05 0)
(1.29024e-05 1.50774e-05 0)
(1.68972e-05 -7.49542e-05 0)
(4.57315e-05 -9.83225e-05 0)
(4.35407e-05 -4.34318e-05 0)
(-2.33781e-05 5.51476e-05 0)
(-0.000173427 0.000174871 0)
(-0.000414098 0.000301051 0)
(-0.000746434 0.000424595 0)
(-0.00116718 0.000540302 0)
(-0.00167045 0.000645562 0)
(-0.00224895 0.000739446 0)
(-0.00289492 0.000822077 0)
(-0.00360069 0.000894195 0)
(-0.00435907 0.000956856 0)
(-0.00516348 0.00101123 0)
(-0.00600804 0.00105843 0)
(-0.00688753 0.00109946 0)
(-0.0077973 0.00113511 0)
(-0.00873314 0.00116595 0)
(-0.00969108 0.0011923 0)
(-0.0106673 0.00121427 0)
(-0.0116579 0.00123172 0)
(-0.0126588 0.00124434 0)
(-0.0136658 0.00125164 0)
(-0.0146738 0.00125301 0)
(-0.0156778 0.00124771 0)
(-0.0166719 0.00123498 0)
(-0.0176497 0.00121399 0)
(-0.0186041 0.00118394 0)
(-0.0195277 0.00114407 0)
(-0.0204125 0.00109368 0)
(-0.02125 0.00103218 0)
(-0.0220313 0.000959102 0)
(-0.0227476 0.000874158 0)
(-0.0233896 0.000777227 0)
(-0.0239484 0.000668401 0)
(-0.0244152 0.000548 0)
(-0.0247815 0.000416587 0)
(-0.0250397 0.000274984 0)
(-0.0251826 0.000124269 0)
(-0.0252042 -3.42111e-05 0)
(-0.0250997 -0.000198855 0)
(-0.0248654 -0.000367817 0)
(-0.0244993 -0.00053903 0)
(-0.024001 -0.000710229 0)
(-0.0233718 -0.000878994 0)
(-0.0226148 -0.00104279 0)
(-0.0217351 -0.00119901 0)
(-0.0207396 -0.00134506 0)
(-0.0196372 -0.00147838 0)
(-0.0184385 -0.00159653 0)
(-0.0171558 -0.00169726 0)
(-0.0158031 -0.00177856 0)
(-0.0143956 -0.00183872 0)
(-0.0129496 -0.0018764 0)
(-0.0114823 -0.00189064 0)
(-0.0100115 -0.00188095 0)
(-0.00855496 -0.00184727 0)
(-0.00713063 -0.00179004 0)
(-0.00575584 -0.00171017 0)
(-0.00444714 -0.001609 0)
(-0.00321996 -0.00148833 0)
(-0.00208833 -0.00135033 0)
(-0.00106455 -0.00119751 0)
(-0.000158991 -0.0010327 0)
(0.000620159 -0.000858943 0)
(0.00126706 -0.000679498 0)
(0.00177837 -0.000497783 0)
(0.00215339 -0.000317362 0)
(0.00239421 -0.000141949 0)
(0.00250579 2.45563e-05 0)
(0.00249614 0.000177998 0)
(0.00237646 0.000313866 0)
(0.00216141 0.000427144 0)
(0.00186929 0.000512147 0)
(0.00152235 0.000562388 0)
(0.00114699 0.00057062 0)
(0.000773202 0.000529351 0)
(0.000433459 0.00043221 0)
(0.000167878 0.000277956 0)
(2.97353e-05 8.48766e-05 0)
(1.00875e-05 -9.55357e-05 0)
(6.84233e-06 -9.44109e-05 0)
(-6.05403e-05 2.44294e-05 0)
(-0.000220184 0.000210499 0)
(-0.000488413 0.000430416 0)
(-0.000872267 0.000661327 0)
(-0.0013722 0.00088835 0)
(-0.00198412 0.0011025 0)
(-0.00270103 0.00129892 0)
(-0.00351432 0.00147561 0)
(-0.00441469 0.00163239 0)
(-0.00539285 0.00177024 0)
(-0.0064399 0.00189076 0)
(-0.0075476 0.00199581 0)
(-0.0087084 0.00208723 0)
(-0.00991547 0.00216666 0)
(-0.0111626 0.00223542 0)
(-0.0124439 0.00229446 0)
(-0.013754 0.00234431 0)
(-0.0150873 0.00238507 0)
(-0.0164385 0.0024165 0)
(-0.0178016 0.00243797 0)
(-0.0191705 0.00244857 0)
(-0.0205385 0.00244716 0)
(-0.0218981 0.00243243 0)
(-0.0232414 0.00240295 0)
(-0.0245596 0.00235726 0)
(-0.0258432 0.00229393 0)
(-0.0270823 0.00221159 0)
(-0.028266 0.00210904 0)
(-0.0293833 0.00198527 0)
(-0.0304226 0.00183954 0)
(-0.0313721 0.00167139 0)
(-0.0322202 0.00148075 0)
(-0.0329553 0.00126789 0)
(-0.0335661 0.00103356 0)
(-0.0340421 0.000778913 0)
(-0.0343735 0.000505606 0)
(-0.0345516 0.000215757 0)
(-0.034569 -8.80394e-05 0)
(-0.0344198 -0.000402727 0)
(-0.0340999 -0.000724818 0)
(-0.033607 -0.00105043 0)
(-0.032941 -0.00137535 0)
(-0.032104 -0.0016951 0)
(-0.0311002 -0.00200498 0)
(-0.0299366 -0.00230023 0)
(-0.0286221 -0.00257608 0)
(-0.0271682 -0.00282786 0)
(-0.0255888 -0.00305112 0)
(-0.0238995 -0.00324177 0)
(-0.0221181 -0.00339615 0)
(-0.0202641 -0.00351115 0)
(-0.0183581 -0.00358431 0)
(-0.0164222 -0.00361389 0)
(-0.0144788 -0.00359896 0)
(-0.0125507 -0.0035394 0)
(-0.0106607 -0.00343596 0)
(-0.00883093 -0.00329024 0)
(-0.00708271 -0.00310469 0)
(-0.00543592 -0.00288253 0)
(-0.0039087 -0.00262772 0)
(-0.00251711 -0.00234486 0)
(-0.0012748 -0.00203913 0)
(-0.000192665 -0.00171617 0)
(0.000721335 -0.00138205 0)
(0.00146245 -0.00104315 0)
(0.00202928 -0.000706189 0)
(0.002424 -0.00037815 0)
(0.00265245 -6.63652e-05 0)
(0.00272435 0.000221413 0)
(0.00265344 0.00047689 0)
(0.00245761 0.000691061 0)
(0.00215912 0.000854054 0)
(0.00178473 0.000955066 0)
(0.00136577 0.000982573 0)
(0.000937357 0.000925141 0)
(0.000537424 0.000773219 0)
(0.000214982 0.000523134 0)
(4.02436e-05 0.000187926 0)
(9.86707e-07 -9.14128e-05 0)
(-4.44878e-05 -2.96867e-05 0)
(-0.000195165 0.000183083 0)
(-0.000468438 0.000483159 0)
(-0.000875686 0.000827537 0)
(-0.00142187 0.00118596 0)
(-0.00210576 0.00153809 0)
(-0.00292181 0.00187123 0)
(-0.00386174 0.00217824 0)
(-0.00491567 0.00245592 0)
(-0.00607307 0.00270371 0)
(-0.00732334 0.00292274 0)
(-0.00865626 0.00311514 0)
(-0.0100622 0.00328343 0)
(-0.0115324 0.00343016 0)
(-0.0130585 0.00355763 0)
(-0.014633 0.00366767 0)
(-0.0162486 0.00376158 0)
(-0.0178984 0.00384006 0)
(-0.0195754 0.00390319 0)
(-0.0212726 0.00395048 0)
(-0.0229824 0.00398093 0)
(-0.0246968 0.00399311 0)
(-0.0264073 0.00398525 0)
(-0.0281046 0.00395531 0)
(-0.0297783 0.00390112 0)
(-0.0314177 0.00382046 0)
(-0.0330109 0.00371119 0)
(-0.0345456 0.00357127 0)
(-0.0360086 0.00339895 0)
(-0.0373864 0.0031928 0)
(-0.0386651 0.00295179 0)
(-0.0398305 0.0026754 0)
(-0.0408688 0.00236364 0)
(-0.0417661 0.00201717 0)
(-0.0425093 0.00163728 0)
(-0.043086 0.00122597 0)
(-0.0434849 0.000785964 0)
(-0.043696 0.000320707 0)
(-0.0437107 -0.000165638 0)
(-0.0435226 -0.000668215 0)
(-0.0431271 -0.00118152 0)
(-0.0425219 -0.00169949 0)
(-0.0417072 -0.00221554 0)
(-0.0406858 -0.00272271 0)
(-0.039463 -0.00321378 0)
(-0.0380472 -0.00368139 0)
(-0.0364491 -0.0041182 0)
(-0.0346825 -0.00451706 0)
(-0.0327636 -0.00487116 0)
(-0.0307111 -0.00517421 0)
(-0.0285457 -0.00542061 0)
(-0.0262904 -0.00560558 0)
(-0.0239696 -0.00572532 0)
(-0.021609 -0.00577715 0)
(-0.019235 -0.00575957 0)
(-0.0168747 -0.00567235 0)
(-0.0145549 -0.00551655 0)
(-0.012302 -0.00529455 0)
(-0.0101412 -0.00501004 0)
(-0.00809632 -0.00466788 0)
(-0.00618924 -0.0042741 0)
(-0.00443941 -0.00383576 0)
(-0.00286351 -0.00336083 0)
(-0.00147506 -0.00285806 0)
(-0.000284143 -0.00233687 0)
(0.000702892 -0.00180726 0)
(0.00148367 -0.00127972 0)
(0.00205998 -0.00076522 0)
(0.00243797 -0.000275229 0)
(0.00262829 0.000178217 0)
(0.0026462 0.000582383 0)
(0.00251174 0.000923695 0)
(0.00224979 0.00118762 0)
(0.00189015 0.00135867 0)
(0.00146759 0.00142069 0)
(0.00102108 0.00135774 0)
(0.000593134 0.00115578 0)
(0.000240278 0.000805766 0)
(4.56065e-05 0.000310177 0)
(-9.07612e-06 -5.80893e-05 0)
(-0.000102603 0.000107304 0)
(-0.000348422 0.000448171 0)
(-0.000750092 0.000890707 0)
(-0.00131198 0.00138403 0)
(-0.00203563 0.00189164 0)
(-0.00291711 0.00238851 0)
(-0.00394876 0.0028587 0)
(-0.00512064 0.00329301 0)
(-0.00642152 0.00368716 0)
(-0.00783964 0.00404024 0)
(-0.00936325 0.00435358 0)
(-0.0109811 0.00462979 0)
(-0.0126823 0.00487205 0)
(-0.0144571 0.0050836 0)
(-0.016296 0.00526734 0)
(-0.0181903 0.00542559 0)
(-0.0201314 0.00555995 0)
(-0.0221111 0.00567121 0)
(-0.0241211 0.00575934 0)
(-0.0261527 0.00582354 0)
(-0.0281969 0.00586233 0)
(-0.030244 0.00587366 0)
(-0.0322836 0.00585501 0)
(-0.0343044 0.00580354 0)
(-0.0362944 0.00571623 0)
(-0.0382405 0.00559005 0)
(-0.0401289 0.00542205 0)
(-0.041945 0.00520951 0)
(-0.0436736 0.00495012 0)
(-0.0452989 0.00464202 0)
(-0.046805 0.00428398 0)
(-0.0481756 0.00387545 0)
(-0.049395 0.00341668 0)
(-0.0504474 0.00290881 0)
(-0.0513181 0.00235387 0)
(-0.0519931 0.00175491 0)
(-0.0524599 0.00111593 0)
(-0.0527074 0.000441969 0)
(-0.0527262 -0.000260972 0)
(-0.0525093 -0.000985948 0)
(-0.0520517 -0.00172514 0)
(-0.0513512 -0.00246997 0)
(-0.0504082 -0.00321117 0)
(-0.049226 -0.003939 0)
(-0.0478109 -0.00464333 0)
(-0.0461723 -0.00531392 0)
(-0.0443224 -0.00594053 0)
(-0.0422767 -0.00651322 0)
(-0.0400534 -0.00702251 0)
(-0.0376734 -0.00745964 0)
(-0.0351601 -0.00781681 0)
(-0.0325393 -0.00808733 0)
(-0.0298383 -0.00826587 0)
(-0.027086 -0.00834859 0)
(-0.0243123 -0.00833333 0)
(-0.0215478 -0.00821962 0)
(-0.0188229 -0.00800883 0)
(-0.0161675 -0.00770414 0)
(-0.0136106 -0.00731049 0)
(-0.0111796 -0.00683458 0)
(-0.00889964 -0.00628471 0)
(-0.00679352 -0.00567065 0)
(-0.00488085 -0.0050035 0)
(-0.00317779 -0.00429552 0)
(-0.00169666 -0.00355995 0)
(-0.000445598 -0.00281089 0)
(0.000571689 -0.00206318 0)
(0.0013562 -0.00133233 0)
(0.00191381 -0.000634513 0)
(0.00225543 1.3374e-05 0)
(0.0023971 0.00059364 0)
(0.00236011 0.00108767 0)
(0.002171 0.00147586 0)
(0.00186165 0.00173762 0)
(0.00146933 0.00185173 0)
(0.00103607 0.00179697 0)
(0.000608304 0.00155351 0)
(0.000248303 0.0011049 0)
(4.73579e-05 0.000440895 0)
(-1.94809e-05 6.64796e-06 0)
(-0.000164355 0.000323657 0)
(-0.000512908 0.000830335 0)
(-0.00105316 0.00144579 0)
(-0.00178112 0.0021132 0)
(-0.00269383 0.00279127 0)
(-0.00378384 0.00345132 0)
(-0.00504072 0.00407483 0)
(-0.00645247 0.00465105 0)
(-0.00800625 0.00517493 0)
(-0.00968901 0.00564541 0)
(-0.0114879 0.00606409 0)
(-0.0133907 0.00643413 0)
(-0.0153857 0.00675937 0)
(-0.0174619 0.00704371 0)
(-0.0196091 0.00729063 0)
(-0.0218175 0.00750287 0)
(-0.0240775 0.00768224 0)
(-0.0263795 0.00782955 0)
(-0.0287141 0.00794456 0)
(-0.0310713 0.00802606 0)
(-0.0334405 0.00807201 0)
(-0.0358104 0.0080796 0)
(-0.038169 0.00804549 0)
(-0.0405033 0.00796596 0)
(-0.0427993 0.00783706 0)
(-0.0450422 0.00765487 0)
(-0.0472162 0.00741563 0)
(-0.0493047 0.00711593 0)
(-0.0512906 0.00675287 0)
(-0.0531561 0.00632422 0)
(-0.0548835 0.00582859 0)
(-0.0564548 0.0052655 0)
(-0.0578523 0.00463556 0)
(-0.0590589 0.00394049 0)
(-0.0600584 0.00318327 0)
(-0.0608354 0.00236812 0)
(-0.0613763 0.00150055 0)
(-0.0616689 0.000587381 0)
(-0.0617034 -0.000363316 0)
(-0.0614719 -0.00134227 0)
(-0.0609692 -0.00233912 0)
(-0.060193 -0.00334249 0)
(-0.0591437 -0.00434022 0)
(-0.057825 -0.00531948 0)
(-0.0562437 -0.00626702 0)
(-0.05441 -0.0071694 0)
(-0.0523372 -0.00801327 0)
(-0.050042 -0.00878559 0)
(-0.0475442 -0.00947398 0)
(-0.0448665 -0.010067 0)
(-0.0420344 -0.0105542 0)
(-0.0390757 -0.010927 0)
(-0.0360205 -0.0111782 0)
(-0.0329005 -0.0113027 0)
(-0.0297484 -0.0112974 0)
(-0.0265979 -0.0111615 0)
(-0.0234826 -0.0108966 0)
(-0.020436 -0.0105065 0)
(-0.0174904 -0.0099977 0)
(-0.0146764 -0.00937857 0)
(-0.0120228 -0.00865988 0)
(-0.00955538 -0.0078543 0)
(-0.0072968 -0.00697633 0)
(-0.00526598 -0.00604204 0)
(-0.00347768 -0.00506886 0)
(-0.00194213 -0.00407542 0)
(-0.000664662 -0.00308136 0)
(0.000354487 -0.00210721 0)
(0.00112044 -0.00117435 0)
(0.00164379 -0.000304995 0)
(0.00194075 0.000477748 0)
(0.00203317 0.0011498 0)
(0.00194859 0.00168606 0)
(0.00172029 0.00206043 0)
(0.00138741 0.00224607 0)
(0.00099443 0.0022158 0)
(0.000590962 0.00194304 0)
(0.000243233 0.0014028 0)
(4.66572e-05 0.000571991 0)
(-2.99778e-05 0.000103951 0)
(-0.000228035 0.000623734 0)
(-0.000684089 0.00133667 0)
(-0.0013698 0.00215731 0)
(-0.00227194 0.00302482 0)
(-0.00338233 0.00389463 0)
(-0.0046893 0.00473557 0)
(-0.0061791 0.00552749 0)
(-0.00783725 0.00625871 0)
(-0.00964908 0.00692387 0)
(-0.0116001 0.00752207 0)
(-0.0136764 0.0080554 0)
(-0.0158647 0.00852766 0)
(-0.0181526 0.0089434 0)
(-0.0205282 0.00930717 0)
(-0.0229805 0.00962301 0)
(-0.0254988 0.00989399 0)
(-0.0280726 0.0101221 0)
(-0.0306914 0.010308 0)
(-0.0333444 0.0104512 0)
(-0.0360205 0.01055 0)
(-0.0387078 0.0106016 0)
(-0.0413937 0.0106023 0)
(-0.0440644 0.0105481 0)
(-0.0467054 0.010434 0)
(-0.049301 0.0102553 0)
(-0.0518348 0.0100071 0)
(-0.054289 0.00968474 0)
(-0.0566454 0.00928413 0)
(-0.0588852 0.00880182 0)
(-0.0609888 0.00823527 0)
(-0.0629368 0.00758296 0)
(-0.0647097 0.0068446 0)
(-0.0662882 0.0060212 0)
(-0.0676537 0.00511524 0)
(-0.0687887 0.00413072 0)
(-0.0696768 0.00307322 0)
(-0.0703031 0.0019499 0)
(-0.0706547 0.000769536 0)
(-0.0707208 -0.000457574 0)
(-0.070493 -0.00171966 0)
(-0.0699655 -0.00300359 0)
(-0.0691357 -0.00429507 0)
(-0.068004 -0.00557879 0)
(-0.0665739 -0.00683865 0)
(-0.0648525 -0.00805807 0)
(-0.0628504 -0.0092202 0)
(-0.0605816 -0.0103083 0)
(-0.0580636 -0.0113061 0)
(-0.0553173 -0.0121979 0)
(-0.0523668 -0.0129694 0)
(-0.0492391 -0.0136076 0)
(-0.045964 -0.0141012 0)
(-0.0425736 -0.0144412 0)
(-0.039102 -0.0146208 0)
(-0.0355848 -0.014636 0)
(-0.0320583 -0.0144855 0)
(-0.0285593 -0.0141708 0)
(-0.0251244 -0.0136965 0)
(-0.0217894 -0.0130702 0)
(-0.0185882 -0.0123022 0)
(-0.015553 -0.0114058 0)
(-0.0127128 -0.0103967 0)
(-0.0100936 -0.0092929 0)
(-0.00771721 -0.00811461 0)
(-0.00560107 -0.00688375 0)
(-0.00375782 -0.00562383 0)
(-0.00219484 -0.00435969 0)
(-0.000913985 -0.00311731 0)
(8.8655e-05 -0.00192368 0)
(0.000822901 -0.000806798 0)
(0.0013046 0.000204393 0)
(0.00155568 0.00107993 0)
(0.00160416 0.00178882 0)
(0.00148423 0.00229901 0)
(0.00123639 0.00257752 0)
(0.00090701 0.00259066 0)
(0.00054817 0.00230448 0)
(0.000228471 0.00168516 0)
(4.43342e-05 0.000697578 0)
(-4.04656e-05 0.000234378 0)
(-0.0002927 0.00101013 0)
(-0.000859167 0.00197177 0)
(-0.00169481 0.00303134 0)
(-0.00277669 0.00412585 0)
(-0.00409089 0.00520893 0)
(-0.00562098 0.00624821 0)
(-0.00734946 0.00722291 0)
(-0.00925907 0.00812119 0)
(-0.011333 0.00893795 0)
(-0.0135553 0.00967289 0)
(-0.0159108 0.0103288 0)
(-0.0183853 0.0109104 0)
(-0.0209655 0.011423 0)
(-0.0236391 0.0118718 0)
(-0.0263941 0.0122613 0)
(-0.0292193 0.012595 0)
(-0.0321032 0.0128749 0)
(-0.0350346 0.0131015 0)
(-0.0380017 0.0132739 0)
(-0.0409922 0.0133896 0)
(-0.043993 0.0134453 0)
(-0.0469903 0.0134363 0)
(-0.0499689 0.0133574 0)
(-0.0529129 0.0132028 0)
(-0.055805 0.0129666 0)
(-0.0586272 0.012643 0)
(-0.0613603 0.0122266 0)
(-0.0639844 0.0117124 0)
(-0.066479 0.0110966 0)
(-0.0688232 0.0103762 0)
(-0.0709959 0.00954977 0)
(-0.0729761 0.00861718 0)
(-0.0747434 0.00757999 0)
(-0.0762776 0.00644149 0)
(-0.0775601 0.00520681 0)
(-0.0785733 0.00388299 0)
(-0.0793012 0.00247895 0)
(-0.0797299 0.00100553 0)
(-0.0798476 -0.00052462 0)
(-0.0796452 -0.00209709 0)
(-0.0791164 -0.00369589 0)
(-0.0782577 -0.00530361 0)
(-0.0770691 -0.00690167 0)
(-0.0755538 -0.00847056 0)
(-0.0737189 -0.00999014 0)
(-0.0715747 -0.01144 0)
(-0.0691356 -0.0127998 0)
(-0.0664194 -0.0140497 0)
(-0.0634478 -0.0151707 0)
(-0.0602457 -0.0161451 0)
(-0.0568413 -0.016957 0)
(-0.0532661 -0.0175925 0)
(-0.0495539 -0.0180402 0)
(-0.045741 -0.0182916 0)
(-0.0418654 -0.0183413 0)
(-0.0379661 -0.0181871 0)
(-0.0340831 -0.0178305 0)
(-0.030256 -0.0172766 0)
(-0.026524 -0.016534 0)
(-0.0229248 -0.015615 0)
(-0.0194937 -0.0145353 0)
(-0.0162637 -0.0133137 0)
(-0.0132639 -0.011972 0)
(-0.0105195 -0.0105345 0)
(-0.00805108 -0.00902817 0)
(-0.005874 -0.00748156 0)
(-0.00399806 -0.00592508 0)
(-0.00242715 -0.00439058 0)
(-0.00115903 -0.0029111 0)
(-0.000185063 -0.0015208 0)
(0.000509804 -0.0002549 0)
(0.000947153 0.000850339 0)
(0.00115509 0.00175758 0)
(0.00116832 0.0024284 0)
(0.00102829 0.00282324 0)
(0.000782745 0.00290147 0)
(0.000485597 0.0026215 0)
(0.000206582 0.0019408 0)
(4.09511e-05 0.000813446 0)
(-5.09104e-05 0.00039818 0)
(-0.000357814 0.00148432 0)
(-0.00103635 0.00273844 0)
(-0.00202465 0.00407186 0)
(-0.00328982 0.005421 0)
(-0.00481186 0.00673922 0)
(-0.00656924 0.00799424 0)
(-0.0085404 0.00916567 0)
(-0.010705 0.0102424 0)
(-0.0130439 0.0112202 0)
(-0.0155395 0.0120999 0)
(-0.0181754 0.0128855 0)
(-0.0209365 0.0135825 0)
(-0.0238087 0.0141973 0)
(-0.026779 0.0147359 0)
(-0.029835 0.0152033 0)
(-0.0329647 0.0156031 0)
(-0.0361562 0.0159375 0)
(-0.0393972 0.0162065 0)
(-0.0426754 0.0164089 0)
(-0.0459773 0.0165414 0)
(-0.049289 0.0165998 0)
(-0.0525954 0.0165784 0)
(-0.0558801 0.0164708 0)
(-0.0591259 0.0162703 0)
(-0.0623143 0.0159698 0)
(-0.0654256 0.0155625 0)
(-0.0684395 0.0150421 0)
(-0.0713345 0.0144031 0)
(-0.0740888 0.0136409 0)
(-0.0766801 0.0127525 0)
(-0.0790858 0.0117363 0)
(-0.0812836 0.0105924 0)
(-0.0832518 0.00932311 0)
(-0.084969 0.00793246 0)
(-0.0864153 0.00642683 0)
(-0.0875718 0.00481475 0)
(-0.0884215 0.00310697 0)
(-0.0889494 0.00131648 0)
(-0.0891425 -0.000541662 0)
(-0.0889908 -0.00245034 0)
(-0.0884867 -0.00439061 0)
(-0.0876262 -0.00634188 0)
(-0.0864083 -0.00828216 0)
(-0.0848354 -0.0101884 0)
(-0.082914 -0.0120368 0)
(-0.0806542 -0.0138031 0)
(-0.0780699 -0.0154632 0)
(-0.075179 -0.0169936 0)
(-0.0720032 -0.0183714 0)
(-0.0685683 -0.0195757 0)
(-0.0649032 -0.020587 0)
(-0.0610405 -0.0213885 0)
(-0.0570157 -0.0219662 0)
(-0.052867 -0.0223094 0)
(-0.0486346 -0.022411 0)
(-0.0443605 -0.0222678 0)
(-0.0400875 -0.0218809 0)
(-0.0358586 -0.0212556 0)
(-0.0317164 -0.0204015 0)
(-0.0277025 -0.0193326 0)
(-0.023856 -0.0180669 0)
(-0.0202137 -0.0166265 0)
(-0.0168086 -0.015037 0)
(-0.0136696 -0.0133273 0)
(-0.0108208 -0.0115291 0)
(-0.00828059 -0.00967673 0)
(-0.0060618 -0.0078064 0)
(-0.00417077 -0.00595619 0)
(-0.00260731 -0.00416562 0)
(-0.00136441 -0.00247549 0)
(-0.000428189 -0.0009277 0)
(0.000222236 0.000434732 0)
(0.000614714 0.00156771 0)
(0.000784133 0.00242598 0)
(0.000772508 0.00296306 0)
(0.00062857 0.00313105 0)
(0.000407536 0.00288068 0)
(0.000179409 0.00216102 0)
(3.6877e-05 0.000916562 0)
(-6.13022e-05 0.000595433 0)
(-0.000423039 0.00204705 0)
(-0.00121441 0.00363826 0)
(-0.00235678 0.00528117 0)
(-0.00380718 0.00691315 0)
(-0.00553934 0.00848868 0)
(-0.00752643 0.00997683 0)
(-0.00974257 0.0113587 0)
(-0.0121641 0.0126248 0)
(-0.0147697 0.0137726 0)
(-0.0175397 0.0148045 0)
(-0.0204564 0.0157258 0)
(-0.0235039 0.0165437 0)
(-0.0266674 0.0172656 0)
(-0.0299334 0.0178982 0)
(-0.0332888 0.0184471 0)
(-0.0367213 0.0189162 0)
(-0.0402182 0.0193075 0)
(-0.043767 0.0196208 0)
(-0.0473543 0.019854 0)
(-0.0509661 0.0200034 0)
(-0.0545875 0.0200634 0)
(-0.0582023 0.0200275 0)
(-0.0617934 0.019888 0)
(-0.0653421 0.0196371 0)
(-0.0688288 0.0192665 0)
(-0.0722327 0.0187685 0)
(-0.0755322 0.0181357 0)
(-0.0787045 0.017362 0)
(-0.0817266 0.0164424 0)
(-0.0845747 0.0153735 0)
(-0.0872253 0.0141537 0)
(-0.0896546 0.0127836 0)
(-0.0918396 0.0112658 0)
(-0.0937578 0.00960546 0)
(-0.0953878 0.00781008 0)
(-0.0967097 0.00588974 0)
(-0.097705 0.00385703 0)
(-0.0983574 0.00172705 0)
(-0.0986528 -0.000482651 0)
(-0.0985797 -0.00275226 0)
(-0.0981294 -0.00505983 0)
(-0.0972963 -0.00738153 0)
(-0.0960784 -0.0096919 0)
(-0.094477 -0.0119642 0)
(-0.0924974 -0.0141708 0)
(-0.0901487 -0.0162837 0)
(-0.0874444 -0.0182746 0)
(-0.0844017 -0.0201159 0)
(-0.0810422 -0.021781 0)
(-0.0773918 -0.0232449 0)
(-0.0734799 -0.0244846 0)
(-0.06934 -0.0254798 0)
(-0.0650089 -0.0262136 0)
(-0.0605267 -0.0266726 0)
(-0.0559358 -0.0268476 0)
(-0.0512808 -0.0267342 0)
(-0.0466076 -0.0263324 0)
(-0.0419627 -0.0256476 0)
(-0.0373926 -0.0246901 0)
(-0.0329427 -0.0234754 0)
(-0.0286566 -0.022024 0)
(-0.0245752 -0.020361 0)
(-0.0207358 -0.0185159 0)
(-0.0171716 -0.0165223 0)
(-0.0139105 -0.0144171 0)
(-0.0109749 -0.0122404 0)
(-0.0083807 -0.0100347 0)
(-0.00613736 -0.00784491 0)
(-0.00424717 -0.00571729 0)
(-0.00270517 -0.00369977 0)
(-0.00149901 -0.00184142 0)
(-0.000608847 -0.000192473 0)
(-7.39961e-06 0.00119575 0)
(0.000340111 0.00227077 0)
(0.000475975 0.00297879 0)
(0.000449574 0.00326446 0)
(0.000317085 0.0030708 0)
(0.000148235 0.00233889 0)
(3.23509e-05 0.0010047 0)
(-7.16335e-05 0.000826096 0)
(-0.000488123 0.00269851 0)
(-0.00139241 0.00467184 0)
(-0.0026892 0.00666031 0)
(-0.00432544 0.00860364 0)
(-0.00626849 0.0104588 0)
(-0.00848611 0.0121975 0)
(-0.010948 0.0138034 0)
(-0.0136271 0.0152695 0)
(-0.0164995 0.0165958 0)
(-0.0195439 0.0177867 0)
(-0.0227411 0.0188498 0)
(-0.0260742 0.0197936 0)
(-0.029528 0.0206268 0)
(-0.0330881 0.0213573 0)
(-0.0367415 0.0219912 0)
(-0.040475 0.0225326 0)
(-0.0442759 0.0229832 0)
(-0.0481309 0.0233427 0)
(-0.0520263 0.0236081 0)
(-0.0559474 0.0237748 0)
(-0.0598785 0.0238361 0)
(-0.0638026 0.0237843 0)
(-0.0677016 0.0236107 0)
(-0.071556 0.0233059 0)
(-0.0753452 0.0228607 0)
(-0.0790472 0.0222662 0)
(-0.0826393 0.0215142 0)
(-0.0860978 0.0205977 0)
(-0.0893983 0.0195114 0)
(-0.092516 0.0182515 0)
(-0.095426 0.0168165 0)
(-0.0981036 0.0152071 0)
(-0.100524 0.0134267 0)
(-0.102664 0.0114812 0)
(-0.104501 0.00937924 0)
(-0.106013 0.00713248 0)
(-0.107181 0.00475529 0)
(-0.107986 0.0022649 0)
(-0.108413 -0.000318758 0)
(-0.108449 -0.00297315 0)
(-0.108084 -0.00567334 0)
(-0.107309 -0.00839223 0)
(-0.106123 -0.0111009 0)
(-0.104523 -0.0137688 0)
(-0.102515 -0.0163644 0)
(-0.100105 -0.0188555 0)
(-0.0973064 -0.0212097 0)
(-0.0941353 -0.0233952 0)
(-0.0906125 -0.0253809 0)
(-0.0867635 -0.0271377 0)
(-0.082618 -0.0286384 0)
(-0.0782102 -0.0298591 0)
(-0.0735778 -0.0307792 0)
(-0.0687626 -0.0313823 0)
(-0.0638091 -0.0316567 0)
(-0.0587646 -0.0315959 0)
(-0.0536782 -0.0311989 0)
(-0.0486001 -0.0304704 0)
(-0.0435808 -0.0294214 0)
(-0.0386702 -0.0280685 0)
(-0.0339165 -0.0264343 0)
(-0.0293654 -0.0245472 0)
(-0.0250591 -0.0224404 0)
(-0.0210354 -0.0201525 0)
(-0.0173269 -0.0177257 0)
(-0.0139603 -0.0152064 0)
(-0.0109554 -0.0126437 0)
(-0.00832527 -0.0100895 0)
(-0.00607508 -0.00759763 0)
(-0.0042024 -0.00522348 0)
(-0.0026968 -0.00302388 0)
(-0.00153984 -0.00105677 0)
(-0.000705076 0.000618836 0)
(-0.000158101 0.00194278 0)
(0.000143402 0.0028536 0)
(0.00024924 0.00328832 0)
(0.000216347 0.00318225 0)
(0.000113912 0.00246879 0)
(2.75231e-05 0.00107618 0)
(-8.18918e-05 0.00109003 0)
(-0.00055284 0.00343848 0)
(-0.00156955 0.00583898 0)
(-0.0030202 0.00820919 0)
(-0.00484171 0.0104925 0)
(-0.0069951 0.0126498 0)
(-0.00944266 0.0146564 0)
(-0.0121496 0.0164997 0)
(-0.0150855 0.0181764 0)
(-0.0182237 0.0196893 0)
(-0.0215412 0.021046 0)
(-0.0250174 0.0222562 0)
(-0.0286346 0.0233306 0)
(-0.0323768 0.0242795 0)
(-0.0362294 0.0251117 0)
(-0.0401788 0.025834 0)
(-0.0442118 0.0264507 0)
(-0.0483151 0.0269634 0)
(-0.0524754 0.0273713 0)
(-0.0566782 0.0276706 0)
(-0.0609085 0.0278556 0)
(-0.06515 0.0279187 0)
(-0.0693851 0.0278507 0)
(-0.0735948 0.0276416 0)
(-0.077759 0.0272808 0)
(-0.0818561 0.0267579 0)
(-0.0858633 0.0260628 0)
(-0.0897569 0.0251865 0)
(-0.0935121 0.0241212 0)
(-0.0971035 0.0228608 0)
(-0.100505 0.0214015 0)
(-0.103692 0.0197417 0)
(-0.106636 0.0178822 0)
(-0.109314 0.015827 0)
(-0.111699 0.0135828 0)
(-0.113768 0.0111595 0)
(-0.115497 0.00856999 0)
(-0.116866 0.00583041 0)
(-0.117854 0.00296002 0)
(-0.118444 -1.89137e-05 0)
(-0.118621 -0.0030812 0)
(-0.118373 -0.00619897 0)
(-0.117691 -0.00934188 0)
(-0.116568 -0.0124775 0)
(-0.115003 -0.0155714 0)
(-0.112996 -0.0185882 0)
(-0.110555 -0.0214912 0)
(-0.107689 -0.0242437 0)
(-0.104414 -0.0268093 0)
(-0.100749 -0.0291523 0)
(-0.0967189 -0.0312388 0)
(-0.0923537 -0.0330374 0)
(-0.0876873 -0.0345196 0)
(-0.0827586 -0.0356608 0)
(-0.0776104 -0.036441 0)
(-0.0722896 -0.0368454 0)
(-0.066846 -0.0368648 0)
(-0.061332 -0.0364967 0)
(-0.0558017 -0.0357447 0)
(-0.0503099 -0.0346198 0)
(-0.0449114 -0.0331396 0)
(-0.0396594 -0.0313287 0)
(-0.0346051 -0.0292183 0)
(-0.029796 -0.0268457 0)
(-0.0252756 -0.0242542 0)
(-0.0210815 -0.021492 0)
(-0.0172454 -0.0186116 0)
(-0.0137919 -0.0156695 0)
(-0.0107379 -0.0127251 0)
(-0.00809228 -0.00983996 0)
(-0.00585559 -0.00707786 0)
(-0.00401974 -0.00450382 0)
(-0.00256803 -0.00218408 0)
(-0.00147516 -0.000185884 0)
(-0.000707352 0.00142246 0)
(-0.000222434 0.00257148 0)
(2.968e-05 0.00319027 0)
(0.00010661 0.00320643 0)
(7.69546e-05 0.00254589 0)
(2.24815e-05 0.00112967 0)
(-9.20548e-05 0.00138697 0)
(-0.00061695 0.00426634 0)
(-0.00174504 0.00713883 0)
(-0.00334816 0.00992679 0)
(-0.00535333 0.0125786 0)
(-0.00771526 0.0150602 0)
(-0.0103908 0.017352 0)
(-0.0133407 0.0194462 0)
(-0.0165311 0.0213437 0)
(-0.019933 0.0230515 0)
(-0.0235211 0.0245804 0)
(-0.0272739 0.0259432 0)
(-0.0311726 0.027153 0)
(-0.0352008 0.0282216 0)
(-0.0393434 0.0291593 0)
(-0.0435866 0.0299735 0)
(-0.0479169 0.0306689 0)
(-0.0523211 0.0312468 0)
(-0.0567853 0.0317058 0)
(-0.0612951 0.0320413 0)
(-0.0658348 0.0322466 0)
(-0.0703878 0.0323127 0)
(-0.0749361 0.0322292 0)
(-0.07946 0.0319847 0)
(-0.0839387 0.0315673 0)
(-0.0883499 0.0309651 0)
(-0.0926703 0.0301671 0)
(-0.096875 0.0291631 0)
(-0.100939 0.0279446 0)
(-0.104835 0.026505 0)
(-0.108537 0.02484 0)
(-0.112017 0.0229478 0)
(-0.115249 0.0208296 0)
(-0.118205 0.0184897 0)
(-0.12086 0.0159355 0)
(-0.123187 0.0131778 0)
(-0.125162 0.010231 0)
(-0.126761 0.00711268 0)
(-0.127964 0.00384403 0)
(-0.12875 0.000449555 0)
(-0.129102 -0.00304304 0)
(-0.129006 -0.00660302 0)
(-0.12845 -0.0101968 0)
(-0.127425 -0.0137885 0)
(-0.125927 -0.01734 0)
(-0.123955 -0.0208114 0)
(-0.121513 -0.024162 0)
(-0.118608 -0.0273502 0)
(-0.115255 -0.0303347 0)
(-0.111471 -0.033075 0)
(-0.107279 -0.0355321 0)
(-0.10271 -0.0376695 0)
(-0.097796 -0.0394538 0)
(-0.0925771 -0.0408557 0)
(-0.0870974 -0.0418509 0)
(-0.0814053 -0.0424208 0)
(-0.0755535 -0.0425532 0)
(-0.0695976 -0.0422429 0)
(-0.0635958 -0.0414923 0)
(-0.0576075 -0.0403115 0)
(-0.0516926 -0.0387188 0)
(-0.0459102 -0.0367404 0)
(-0.0403172 -0.0344103 0)
(-0.0349675 -0.0317697 0)
(-0.0299104 -0.0288668 0)
(-0.0251899 -0.0257556 0)