/*--------------------------------*- C++ -*----------------------------------*\
  =========                 |
  \\      /  F ield         | OpenFOAM: The Open Source CFD Toolbox
   \\    /   O peration     | Website:  https://openfoam.org
    \\  /    A nd           | Version:  7
     \\/     M anipulation  |
\*---------------------------------------------------------------------------*/
FoamFile
{
    version     2.0;
    format      ascii;
    class       volVectorField;
    location    "2.125";
    object      U;
}
// * * * * * * * * * * * * * * * * * * * * * * * * * * * * * * * * * * * * * //

dimensions      [0 1 -1 0 0 0 0];

internalField   nonuniform List<vector> 
6400
(
(8.5018e-06 -8.945e-06 0)
(3.3873e-05 -1.62144e-05 0)
(6.48822e-05 -1.48329e-05 0)
(8.41308e-05 -9.03096e-06 0)
(8.31684e-05 -1.4816e-06 0)
(5.92608e-05 6.47405e-06 0)
(1.20248e-05 1.41637e-05 0)
(-5.76895e-05 2.12819e-05 0)
(-0.000148341 2.76989e-05 0)
(-0.000258035 3.33763e-05 0)
(-0.000384734 3.83245e-05 0)
(-0.000526379 4.2579e-05 0)
(-0.000680966 4.61872e-05 0)
(-0.000846587 4.92016e-05 0)
(-0.00102145 5.1675e-05 0)
(-0.00120387 5.36578e-05 0)
(-0.00139232 5.51954e-05 0)
(-0.00158535 5.63283e-05 0)
(-0.00178164 5.70914e-05 0)
(-0.00197995 5.75137e-05 0)
(-0.0021791 5.76183e-05 0)
(-0.00237801 5.7422e-05 0)
(-0.0025756 5.69364e-05 0)
(-0.00277084 5.61685e-05 0)
(-0.00296274 5.51212e-05 0)
(-0.00315027 5.37942e-05 0)
(-0.00333246 5.21846e-05 0)
(-0.00350828 5.02877e-05 0)
(-0.00367672 4.80979e-05 0)
(-0.00383677 4.56092e-05 0)
(-0.00398738 4.28165e-05 0)
(-0.00412752 3.97159e-05 0)
(-0.00425615 3.63057e-05 0)
(-0.00437225 3.25871e-05 0)
(-0.00447481 2.85644e-05 0)
(-0.00456285 2.42463e-05 0)
(-0.00463544 1.96454e-05 0)
(-0.0046917 1.47794e-05 0)
(-0.00473084 9.67122e-06 0)
(-0.00475215 4.34882e-06 0)
(-0.00475503 -1.1543e-06 0)
(-0.004739 -6.79929e-06 0)
(-0.00470372 -1.25421e-05 0)
(-0.004649 -1.83336e-05 0)
(-0.00457484 -2.41205e-05 0)
(-0.00448141 -2.98452e-05 0)
(-0.00436905 -3.5447e-05 0)
(-0.00423834 -4.08627e-05 0)
(-0.00409003 -4.60275e-05 0)
(-0.00392509 -5.08764e-05 0)
(-0.00374472 -5.53446e-05 0)
(-0.00355028 -5.93694e-05 0)
(-0.00334335 -6.2891e-05 0)
(-0.00312568 -6.58537e-05 0)
(-0.00289921 -6.82072e-05 0)
(-0.00266598 -6.99078e-05 0)
(-0.00242821 -7.09194e-05 0)
(-0.00218818 -7.12142e-05 0)
(-0.00194824 -7.07737e-05 0)
(-0.0017108 -6.95889e-05 0)
(-0.00147827 -6.76612e-05 0)
(-0.00125304 -6.50022e-05 0)
(-0.00103742 -6.16339e-05 0)
(-0.00083366 -5.75885e-05 0)
(-0.000643854 -5.29081e-05 0)
(-0.000469954 -4.76444e-05 0)
(-0.000313714 -4.18585e-05 0)
(-0.00017666 -3.56211e-05 0)
(-6.00605e-05 -2.90129e-05 0)
(3.51174e-05 -2.2127e-05 0)
(0.000108252 -1.50682e-05 0)
(0.000159126 -7.96581e-06 0)
(0.000188007 -9.81916e-07 0)
(0.000195761 5.66482e-06 0)
(0.000184051 1.16596e-05 0)
(0.00015562 1.65185e-05 0)
(0.000114678 1.94844e-05 0)
(6.76449e-05 1.9324e-05 0)
(2.53499e-05 1.41924e-05 0)
(3.56046e-06 3.57414e-06 0)
(1.60636e-05 -3.46164e-05 0)
(5.49487e-05 -5.52134e-05 0)
(8.9907e-05 -4.22622e-05 0)
(9.23976e-05 -1.05311e-05 0)
(4.63708e-05 3.03192e-05 0)
(-5.51803e-05 7.44852e-05 0)
(-0.000214482 0.000118552 0)
(-0.000430682 0.000160558 0)
(-0.000700965 0.000199428 0)
(-0.00102132 0.000234624 0)
(-0.00138707 0.000265934 0)
(-0.00179326 0.000293347 0)
(-0.00223488 0.000316974 0)
(-0.00270701 0.000336996 0)
(-0.00320491 0.000353628 0)
(-0.00372407 0.000367098 0)
(-0.00426024 0.000377628 0)
(-0.00480941 0.000385424 0)
(-0.00536782 0.000390669 0)
(-0.00593191 0.000393523 0)
(-0.00649831 0.000394115 0)
(-0.0070638 0.000392548 0)
(-0.00762526 0.000388896 0)
(-0.00817968 0.000383208 0)
(-0.0087241 0.000375514 0)
(-0.00925559 0.000365825 0)
(-0.00977124 0.00035414 0)
(-0.0102681 0.000340448 0)
(-0.0107434 0.000324733 0)
(-0.0111941 0.000306982 0)
(-0.0116172 0.000287185 0)
(-0.01201 0.000265342 0)
(-0.0123696 0.000241468 0)
(-0.012693 0.000215593 0)
(-0.0129776 0.000187771 0)
(-0.0132208 0.00015808 0)
(-0.0134199 0.000126622 0)
(-0.0135728 9.35336e-05 0)
(-0.0136772 5.89777e-05 0)
(-0.0137315 2.31512e-05 0)
(-0.0137339 -1.37177e-05 0)
(-0.0136835 -5.1369e-05 0)
(-0.0135793 -8.95124e-05 0)
(-0.0134211 -0.000127829 0)
(-0.0132088 -0.000165975 0)
(-0.0129432 -0.000203585 0)
(-0.0126253 -0.000240273 0)
(-0.0122567 -0.000275644 0)
(-0.0118397 -0.000309295 0)
(-0.011377 -0.00034082 0)
(-0.0108719 -0.000369821 0)
(-0.0103282 -0.000395914 0)
(-0.0097502 -0.000418732 0)
(-0.00914281 -0.000437937 0)
(-0.00851121 -0.000453224 0)
(-0.00786103 -0.000464332 0)
(-0.00719822 -0.000471043 0)
(-0.00652898 -0.000473195 0)
(-0.00585967 -0.00047068 0)
(-0.00519677 -0.000463454 0)
(-0.00454676 -0.000451533 0)
(-0.00391607 -0.000435001 0)
(-0.00331092 -0.000414009 0)
(-0.0027373 -0.000388772 0)
(-0.00220083 -0.000359573 0)
(-0.00170671 -0.000326761 0)
(-0.00125957 -0.000290752 0)
(-0.000863405 -0.000252029 0)
(-0.000521477 -0.000211152 0)
(-0.000236186 -0.000168765 0)
(-8.94172e-06 -0.000125614 0)
(0.000159994 -8.25845e-05 0)
(0.000271716 -4.07543e-05 0)
(0.000328952 -1.4847e-06 0)
(0.000336445 3.34398e-05 0)
(0.000301459 6.16006e-05 0)
(0.000234256 7.96762e-05 0)
(0.000148792 8.30788e-05 0)
(6.5826e-05 6.59569e-05 0)
(1.40759e-05 2.52633e-05 0)
(1.50347e-05 -6.56292e-05 0)
(4.27389e-05 -9.02855e-05 0)
(4.71322e-05 -4.67299e-05 0)
(-2.51168e-06 3.71177e-05 0)
(-0.000124503 0.000142662 0)
(-0.000327857 0.000257434 0)
(-0.000615921 0.000373327 0)
(-0.000988024 0.000485215 0)
(-0.00144069 0.000589993 0)
(-0.00196861 0.000685891 0)
(-0.00256536 0.000772018 0)
(-0.00322389 0.000848066 0)
(-0.00393695 0.000914101 0)
(-0.00469723 0.000970421 0)
(-0.0054976 0.00101746 0)
(-0.0063312 0.00105572 0)
(-0.00719143 0.00108571 0)
(-0.00807203 0.00110793 0)
(-0.00896704 0.00112284 0)
(-0.0098708 0.00113082 0)
(-0.0107779 0.00113223 0)
(-0.0116831 0.00112731 0)
(-0.0125814 0.00111629 0)
(-0.0134678 0.00109929 0)
(-0.0143376 0.00107642 0)
(-0.0151861 0.00104773 0)
(-0.0160084 0.00101323 0)
(-0.0168 0.000972916 0)
(-0.0175561 0.000926781 0)
(-0.0182722 0.000874814 0)
(-0.0189435 0.000817024 0)
(-0.0195655 0.000753447 0)
(-0.0201337 0.000684155 0)
(-0.0206437 0.000609271 0)
(-0.0210913 0.000528979 0)
(-0.0214722 0.000443524 0)
(-0.0217828 0.00035323 0)
(-0.0220195 0.000258496 0)
(-0.0221792 0.000159808 0)
(-0.0222591 5.77324e-05 0)
(-0.022257 -4.70755e-05 0)
(-0.0221712 -0.000153878 0)
(-0.0220006 -0.000261859 0)
(-0.0217448 -0.000370127 0)
(-0.0214042 -0.000477723 0)
(-0.0209797 -0.000583633 0)
(-0.0204732 -0.0006868 0)
(-0.0198875 -0.000786134 0)
(-0.019226 -0.000880529 0)
(-0.0184931 -0.000968882 0)
(-0.017694 -0.00105011 0)
(-0.0168346 -0.00112316 0)
(-0.0159217 -0.00118705 0)
(-0.0149627 -0.00124086 0)
(-0.0139658 -0.00128377 0)
(-0.0129397 -0.00131507 0)
(-0.0118935 -0.00133419 0)
(-0.0108368 -0.0013407 0)
(-0.00977935 -0.0013343 0)
(-0.00873111 -0.00131489 0)
(-0.00770203 -0.00128253 0)
(-0.00670195 -0.00123747 0)
(-0.00574042 -0.00118013 0)
(-0.0048266 -0.00111112 0)
(-0.00396909 -0.00103125 0)
(-0.00317578 -0.000941512 0)
(-0.00245373 -0.000843081 0)
(-0.00180898 -0.000737341 0)
(-0.0012464 -0.000625892 0)
(-0.000769518 -0.000510574 0)
(-0.000380326 -0.000393519 0)
(-7.9035e-05 -0.000277225 0)
(0.000136189 -0.000164669 0)
(0.000269574 -5.94818e-05 0)
(0.000328173 3.38087e-05 0)
(0.000322364 0.000109463 0)
(0.000266198 0.000160191 0)
(0.000177826 0.000176879 0)
(8.32416e-05 0.000148917 0)
(1.91739e-05 6.7336e-05 0)
(9.4756e-06 -8.53792e-05 0)
(1.12549e-05 -9.29841e-05 0)
(-3.73112e-05 2.98636e-06 0)
(-0.000163172 0.000161806 0)
(-0.00038355 0.000356004 0)
(-0.000707674 0.000566185 0)
(-0.00113895 0.000778999 0)
(-0.00167645 0.000985569 0)
(-0.00231606 0.00118019 0)
(-0.00305148 0.0013594 0)
(-0.00387497 0.00152126 0)
(-0.00477793 0.00166492 0)
(-0.00575133 0.00179024 0)
(-0.006786 0.00189755 0)
(-0.00787287 0.00198746 0)
(-0.00900308 0.00206075 0)
(-0.0101681 0.00211826 0)
(-0.0113596 0.00216082 0)
(-0.0125697 0.00218921 0)
(-0.0137909 0.00220412 0)
(-0.0150159 0.00220615 0)
(-0.0162377 0.00219578 0)
(-0.0174493 0.00217338 0)
(-0.0186443 0.00213924 0)
(-0.0198159 0.00209353 0)
(-0.0209579 0.00203638 0)
(-0.0220637 0.00196784 0)
(-0.0231272 0.00188795 0)
(-0.0241419 0.00179672 0)
(-0.0251017 0.00169418 0)
(-0.0260003 0.00158038 0)
(-0.0268317 0.00145545 0)
(-0.0275899 0.00131956 0)
(-0.0282692 0.00117301 0)
(-0.0288638 0.00101618 0)
(-0.0293686 0.000849598 0)
(-0.0297785 0.000673908 0)
(-0.0300892 0.000489914 0)
(-0.0302964 0.000298573 0)
(-0.0303968 0.000100994 0)
(-0.0303877 -0.000101553 0)
(-0.0302668 -0.000307649 0)
(-0.0300331 -0.000515726 0)
(-0.029686 -0.000724085 0)
(-0.0292263 -0.000930905 0)
(-0.0286554 -0.00113427 0)
(-0.0279758 -0.00133217 0)
(-0.0271914 -0.00152257 0)
(-0.0263066 -0.00170338 0)
(-0.0253275 -0.00187254 0)
(-0.0242608 -0.00202802 0)
(-0.0231143 -0.00216785 0)
(-0.0218971 -0.00229021 0)
(-0.0206187 -0.00239337 0)
(-0.0192899 -0.00247582 0)
(-0.017922 -0.00253624 0)
(-0.0165269 -0.00257357 0)
(-0.015117 -0.002587 0)
(-0.0137051 -0.00257601 0)
(-0.0123041 -0.00254043 0)
(-0.0109269 -0.00248037 0)
(-0.00958627 -0.00239631 0)
(-0.00829462 -0.00228909 0)
(-0.00706382 -0.00215987 0)
(-0.00590501 -0.00201019 0)
(-0.0048284 -0.00184196 0)
(-0.0038431 -0.00165744 0)
(-0.0029569 -0.00145929 0)
(-0.00217606 -0.00125059 0)
(-0.00150507 -0.00103486 0)
(-0.00094646 -0.000816158 0)
(-0.000500474 -0.000599192 0)
(-0.000164804 -0.000389479 0)
(6.57714e-05 -0.00019357 0)
(0.000199785 -1.93697e-05 0)
(0.000249531 0.000123504 0)
(0.000231285 0.000223338 0)
(0.000165633 0.0002661 0)
(8.14527e-05 0.000235651 0)
(1.9544e-05 0.000114515 0)
(1.97318e-06 -8.49939e-05 0)
(-3.04859e-05 -4.61808e-05 0)
(-0.000146577 0.000127043 0)
(-0.000365274 0.0003834 0)
(-0.000700295 0.000687546 0)
(-0.00115968 0.00101371 0)
(-0.00174591 0.00134348 0)
(-0.0024572 0.00166416 0)
(-0.00328856 0.00196728 0)
(-0.00423272 0.00224742 0)
(-0.0052808 0.00250141 0)
(-0.00642291 0.00272764 0)
(-0.0076486 0.00292562 0)
(-0.00894717 0.00309561 0)
(-0.0103079 0.00323834 0)
(-0.0117203 0.00335483 0)
(-0.0131742 0.00344623 0)
(-0.0146595 0.0035137 0)
(-0.0161666 0.00355836 0)
(-0.0176864 0.00358122 0)
(-0.0192097 0.00358316 0)
(-0.0207281 0.0035649 0)
(-0.0222329 0.00352703 0)
(-0.0237159 0.00346997 0)
(-0.0251691 0.00339404 0)
(-0.0265842 0.00329944 0)
(-0.0279536 0.0031863 0)
(-0.0292692 0.00305471 0)
(-0.0305234 0.00290475 0)
(-0.0317085 0.00273652 0)
(-0.0328168 0.00255017 0)
(-0.0338409 0.00234595 0)
(-0.0347736 0.00212423 0)
(-0.0356078 0.0018855 0)
(-0.0363367 0.00163047 0)
(-0.0369541 0.00136002 0)
(-0.037454 0.00107523 0)
(-0.037831 0.000777436 0)
(-0.0380804 0.000468201 0)
(-0.0381981 0.000149328 0)
(-0.038181 -0.000177136 0)
(-0.0380267 -0.000508911 0)
(-0.0377338 -0.000843494 0)
(-0.037302 -0.00117818 0)
(-0.0367323 -0.00151008 0)
(-0.0360266 -0.00183617 0)
(-0.0351882 -0.00215327 0)
(-0.0342216 -0.00245817 0)
(-0.0331325 -0.00274761 0)
(-0.0319282 -0.00301833 0)
(-0.0306168 -0.00326717 0)
(-0.029208 -0.00349104 0)
(-0.0277124 -0.00368708 0)
(-0.0261419 -0.00385263 0)
(-0.0245092 -0.00398529 0)
(-0.0228279 -0.00408304 0)
(-0.0211123 -0.0041442 0)
(-0.0193775 -0.00416753 0)
(-0.0176385 -0.00415225 0)
(-0.0159111 -0.00409805 0)
(-0.0142105 -0.00400518 0)
(-0.0125522 -0.00387439 0)
(-0.0109511 -0.003707 0)
(-0.00942121 -0.00350489 0)
(-0.00797607 -0.00327052 0)
(-0.00662787 -0.0030069 0)
(-0.00538753 -0.00271767 0)
(-0.00426439 -0.00240706 0)
(-0.00326597 -0.00207995 0)
(-0.00239769 -0.00174194 0)
(-0.00166265 -0.0013994 0)
(-0.00106131 -0.00105969 0)
(-0.0005912 -0.000731253 0)
(-0.000246602 -0.00042396 0)
(-1.81925e-05 -0.000149395 0)
(0.000107326 7.87263e-05 0)
(0.000147399 0.000244134 0)
(0.00012392 0.000327728 0)
(6.68042e-05 0.000307429 0)
(1.71409e-05 0.000156826 0)
(-6.22904e-06 -6.09396e-05 0)
(-7.72697e-05 5.90937e-05 0)
(-0.00026973 0.000337507 0)
(-0.000592163 0.000715234 0)
(-0.00105311 0.00115047 0)
(-0.00165832 0.00161192 0)
(-0.0024085 0.00207664 0)
(-0.00330038 0.00252837 0)
(-0.00432779 0.00295588 0)
(-0.00548232 0.00335181 0)
(-0.00675396 0.00371163 0)
(-0.00813164 0.00403289 0)
(-0.00960366 0.00431465 0)
(-0.011158 0.00455701 0)
(-0.0127827 0.00476076 0)
(-0.0144656 0.00492711 0)
(-0.0161952 0.00505748 0)
(-0.01796 0.00515336 0)
(-0.0197489 0.00521621 0)
(-0.0215511 0.00524736 0)
(-0.0233562 0.00524797 0)
(-0.0251541 0.00521902 0)
(-0.0269347 0.00516132 0)
(-0.0286883 0.00507548 0)
(-0.0304053 0.00496193 0)
(-0.0320764 0.00482101 0)
(-0.0336921 0.00465294 0)
(-0.0352433 0.0044579 0)
(-0.0367208 0.00423606 0)
(-0.0381156 0.00398763 0)
(-0.0394189 0.00371292 0)
(-0.040622 0.00341235 0)
(-0.0417165 0.00308653 0)
(-0.0426942 0.00273627 0)
(-0.0435474 0.00236263 0)
(-0.0442688 0.00196696 0)
(-0.0448516 0.0015509 0)
(-0.0452898 0.00111641 0)
(-0.045578 0.000665795 0)
(-0.0457116 0.000201688 0)
(-0.0456871 -0.00027294 0)
(-0.0455019 -0.000754792 0)
(-0.0451547 -0.00124026 0)
(-0.0446453 -0.00172547 0)
(-0.0439746 -0.00220628 0)
(-0.0431453 -0.00267836 0)
(-0.0421612 -0.0031372 0)
(-0.0410275 -0.00357823 0)
(-0.039751 -0.0039968 0)
(-0.0383399 -0.00438831 0)
(-0.0368039 -0.00474826 0)
(-0.0351539 -0.00507231 0)
(-0.0334022 -0.00535638 0)
(-0.0315624 -0.00559671 0)
(-0.029649 -0.00578994 0)
(-0.0276778 -0.00593319 0)
(-0.0256652 -0.0060241 0)
(-0.0236282 -0.00606092 0)
(-0.0215842 -0.00604254 0)
(-0.0195512 -0.00596856 0)
(-0.0175468 -0.00583932 0)
(-0.0155885 -0.00565592 0)
(-0.0136934 -0.00542024 0)
(-0.0118779 -0.00513497 0)
(-0.0101573 -0.00480364 0)
(-0.00854563 -0.00443059 0)
(-0.00705552 -0.00402099 0)
(-0.00569773 -0.00358092 0)
(-0.00448099 -0.00311734 0)
(-0.00341169 -0.0026382 0)
(-0.00249361 -0.00215254 0)
(-0.00172763 -0.00167062 0)
(-0.00111145 -0.00120413 0)
(-0.000639284 -0.000766496 0)
(-0.000301589 -0.000373152 0)
(-8.47531e-05 -4.20174e-05 0)
(2.90597e-05 0.000206061 0)
(6.21895e-05 0.000346933 0)
(4.40822e-05 0.000352678 0)
(1.3245e-05 0.000188899 0)
(-1.45425e-05 -1.17964e-05 0)
(-0.000126143 0.000227709 0)
(-0.000399858 0.000641748 0)
(-0.000832646 0.001166 0)
(-0.00142686 0.00175372 0)
(-0.00218513 0.00236916 0)
(-0.00310568 0.00298555 0)
(-0.00418326 0.00358345 0)
(-0.00541009 0.00414919 0)
(-0.00677641 0.00467354 0)
(-0.008271 0.00515065 0)
(-0.00988161 0.00557724 0)
(-0.0115954 0.00595188 0)
(-0.0133991 0.00627445 0)
(-0.0152796 0.00654577 0)
(-0.0172235 0.00676719 0)
(-0.019218 0.00694039 0)
(-0.0212504 0.00706716 0)
(-0.0233082 0.00714926 0)
(-0.0253793 0.00718835 0)
(-0.027452 0.00718588 0)
(-0.0295148 0.00714309 0)
(-0.0315563 0.007061 0)
(-0.0335656 0.00694042 0)
(-0.0355317 0.00678193 0)
(-0.0374439 0.00658601 0)
(-0.0392916 0.006353 0)
(-0.0410643 0.0060832 0)
(-0.0427516 0.00577691 0)
(-0.0443435 0.00543449 0)
(-0.0458298 0.00505643 0)
(-0.0472008 0.0046434 0)
(-0.0484471 0.0041963 0)
(-0.0495595 0.00371633 0)
(-0.0505294 0.00320501 0)
(-0.0513486 0.00266421 0)
(-0.0520097 0.00209624 0)
(-0.052506 0.00150379 0)
(-0.0528315 0.000890016 0)
(-0.0529812 0.00025851 0)
(-0.0529514 -0.000386703 0)
(-0.0527392 -0.00104117 0)
(-0.0523433 -0.00170004 0)
(-0.0517635 -0.00235811 0)
(-0.0510011 -0.00300984 0)
(-0.050059 -0.00364943 0)
(-0.0489415 -0.0042709 0)
(-0.0476546 -0.00486812 0)
(-0.0462059 -0.00543493 0)
(-0.0446046 -0.00596521 0)
(-0.0428613 -0.00645299 0)
(-0.0409883 -0.0068925 0)
(-0.0389993 -0.00727833 0)
(-0.0369095 -0.00760549 0)
(-0.0347349 -0.00786954 0)
(-0.032493 -0.00806662 0)
(-0.0302021 -0.00819363 0)
(-0.0278811 -0.00824823 0)
(-0.0255495 -0.00822896 0)
(-0.0232271 -0.00813528 0)
(-0.0209336 -0.00796763 0)
(-0.0186885 -0.00772748 0)
(-0.016511 -0.00741735 0)
(-0.0144193 -0.00704083 0)
(-0.0124304 -0.00660262 0)
(-0.0105604 -0.0061085 0)
(-0.00882318 -0.00556542 0)
(-0.0072311 -0.00498145 0)
(-0.00579407 -0.00436586 0)
(-0.00451952 -0.0037292 0)
(-0.00341207 -0.00308336 0)
(-0.00247323 -0.00244177 0)
(-0.00170117 -0.00181953 0)
(-0.00109044 -0.00123376 0)
(-0.000631736 -0.000703851 0)
(-0.000311669 -0.000251929 0)
(-0.000112622 9.66585e-05 0)
(-1.2502e-05 0.000312911 0)
(1.65491e-05 0.000363545 0)
(8.6091e-06 0.000207608 0)
(-2.27115e-05 6.28214e-05 0)
(-0.000175464 0.000461973 0)
(-0.000532688 0.00104384 0)
(-0.00107938 0.00174091 0)
(-0.00181117 0.00250295 0)
(-0.00272701 0.00329087 0)
(-0.00382211 0.00407484 0)
(-0.00508877 0.00483285 0)
(-0.00651728 0.00554913 0)
(-0.00809628 0.00621282 0)
(-0.00981318 0.00681692 0)
(-0.0116545 0.00735736 0)
(-0.0136062 0.00783225 0)
(-0.0156541 0.00824128 0)
(-0.0177837 0.00858525 0)
(-0.0199807 0.00886566 0)
(-0.0222311 0.0090844 0)
(-0.0245209 0.00924356 0)
(-0.0268368 0.0093452 0)
(-0.0291653 0.00939126 0)
(-0.0314936 0.00938349 0)
(-0.0338089 0.00932339 0)
(-0.0360989 0.0092122 0)
(-0.0383512 0.0090509 0)
(-0.0405538 0.00884028 0)
(-0.0426947 0.00858094 0)
(-0.0447623 0.00827336 0)
(-0.046745 0.007918 0)
(-0.0486312 0.00751531 0)
(-0.0504097 0.00706584 0)
(-0.0520696 0.00657033 0)
(-0.0535999 0.00602972 0)
(-0.0549905 0.00544528 0)
(-0.0562311 0.00481864 0)
(-0.0573125 0.00415185 0)
(-0.0582257 0.00344741 0)
(-0.0589625 0.00270835 0)
(-0.0595157 0.00193822 0)
(-0.0598789 0.00114112 0)
(-0.0600466 0.000321688 0)
(-0.0600148 -0.00051487 0)
(-0.0597806 -0.00136283 0)
(-0.0593423 -0.00221598 0)
(-0.0587 -0.00306763 0)
(-0.0578551 -0.00391074 0)
(-0.0568108 -0.00473792 0)
(-0.0555719 -0.00554152 0)
(-0.0541447 -0.00631377 0)
(-0.0525378 -0.00704685 0)
(-0.0507608 -0.00773297 0)
(-0.0488257 -0.00836454 0)
(-0.0467456 -0.00893427 0)
(-0.0445354 -0.00943526 0)
(-0.0422116 -0.00986121 0)
(-0.0397918 -0.0102064 0)
(-0.0372949 -0.0104661 0)
(-0.0347407 -0.0106361 0)
(-0.0321501 -0.0107136 0)
(-0.0295441 -0.0106967 0)
(-0.0269444 -0.0105846 0)
(-0.0243727 -0.010378 0)
(-0.0218502 -0.0100786 0)
(-0.019398 -0.0096896 0)
(-0.017036 -0.00921563 0)
(-0.0147832 -0.00866261 0)
(-0.0126571 -0.0080379 0)
(-0.0106734 -0.0073503 0)
(-0.00884568 -0.00661006 0)
(-0.00718527 -0.00582893 0)
(-0.00570072 -0.0050202 0)
(-0.00439767 -0.00419881 0)
(-0.0032785 -0.00338148 0)
(-0.00234213 -0.00258688 0)
(-0.00158377 -0.00183587 0)
(-0.000994731 -0.00115185 0)
(-0.0005623 -0.000561088 0)
(-0.000269554 -9.32783e-05 0)
(-9.51797e-05 0.00021806 0)
(-1.36453e-05 0.000334916 0)
(3.67357e-06 0.000211207 0)
(-3.06324e-05 0.000162731 0)
(-0.000224339 0.000762553 0)
(-0.000665623 0.00154556 0)
(-0.00132762 0.00244261 0)
(-0.00219901 0.00340132 0)
(-0.00327474 0.00438024 0)
(-0.00454663 0.00534736 0)
(-0.00600419 0.00627867 0)
(-0.00763546 0.00715677 0)
(-0.00942729 0.00796953 0)
(-0.0113655 0.00870897 0)
(-0.0134354 0.0093704 0)
(-0.0156218 0.00995155 0)
(-0.0179091 0.010452 0)
(-0.0202821 0.0108725 0)
(-0.0227254 0.0112147 0)
(-0.025224 0.0114807 0)
(-0.0277628 0.0116729 0)
(-0.0303275 0.0117937 0)
(-0.0329036 0.0118452 0)
(-0.0354773 0.0118296 0)
(-0.0380348 0.0117484 0)
(-0.0405625 0.0116033 0)
(-0.0430472 0.0113954 0)
(-0.0454758 0.0111256 0)
(-0.0478354 0.0107947 0)
(-0.050113 0.0104033 0)
(-0.0522962 0.00995213 0)
(-0.0543726 0.00944174 0)
(-0.0563297 0.00887294 0)
(-0.0581559 0.00824672 0)
(-0.0598393 0.00756438 0)
(-0.0613687 0.00682758 0)
(-0.0627334 0.00603845 0)
(-0.0639231 0.00519963 0)
(-0.0649284 0.00431433 0)
(-0.0657404 0.00338637 0)
(-0.0663512 0.00242023 0)
(-0.0667541 0.00142102 0)
(-0.0669432 0.000394564 0)
(-0.0669142 -0.000652683 0)
(-0.0666638 -0.00171362 0)
(-0.0661905 -0.00278055 0)
(-0.0654941 -0.00384525 0)
(-0.0645763 -0.00489899 0)
(-0.0634404 -0.00593269 0)
(-0.0620914 -0.00693696 0)
(-0.0605363 -0.00790222 0)
(-0.0587839 -0.00881886 0)
(-0.0568448 -0.00967733 0)
(-0.0547314 -0.0104683 0)
(-0.052458 -0.0111828 0)
(-0.0500405 -0.0118124 0)
(-0.0474963 -0.0123492 0)
(-0.0448444 -0.0127863 0)
(-0.042105 -0.0131178 0)
(-0.0392996 -0.0133385 0)
(-0.0364502 -0.013445 0)
(-0.0335798 -0.0134347 0)
(-0.0307116 -0.0133068 0)
(-0.0278691 -0.0130619 0)
(-0.0250753 -0.0127023 0)
(-0.0223529 -0.0122317 0)
(-0.0197238 -0.0116557 0)
(-0.0172086 -0.0109816 0)
(-0.0148265 -0.0102184 0)
(-0.0125948 -0.00937691 0)
(-0.0105286 -0.0084696 0)
(-0.00864065 -0.00751084 0)
(-0.00694081 -0.00651679 0)
(-0.00543589 -0.00550557 0)
(-0.00412938 -0.00449727 0)
(-0.0030212 -0.00351422 0)
(-0.00210752 -0.0025811 0)
(-0.00138061 -0.00172525 0)
(-0.000828758 -0.000977046 0)
(-0.000436104 -0.000370299 0)
(-0.000182488 5.73179e-05 0)
(-4.51403e-05 0.000263706 0)
(-1.3164e-06 0.000198847 0)
(-3.82716e-05 0.000287453 0)
(-0.000272292 0.0011291 0)
(-0.000797097 0.0021471 0)
(-0.00157429 0.00327191 0)
(-0.00258562 0.00445003 0)
(-0.00382183 0.00563865 0)
(-0.00527116 0.00680432 0)
(-0.00692004 0.00792171 0)
(-0.00875406 0.00897227 0)
(-0.010758 0.00994296 0)
(-0.0129162 0.0108251 0)
(-0.0152124 0.0116137 0)
(-0.01763 0.012306 0)
(-0.0201527 0.0129017 0)
(-0.0227641 0.0134016 0)
(-0.0254477 0.0138075 0)
(-0.0281877 0.0141218 0)
(-0.0309682 0.0143471 0)
(-0.0337737 0.014486 0)
(-0.0365892 0.0145411 0)
(-0.0393996 0.0145147 0)
(-0.0421903 0.0144086 0)
(-0.0449469 0.0142247 0)
(-0.0476552 0.0139643 0)
(-0.0503012 0.0136285 0)
(-0.0528709 0.0132182 0)
(-0.0553508 0.0127343 0)
(-0.0577271 0.0121776 0)
(-0.0599868 0.0115489 0)
(-0.0621166 0.0108492 0)
(-0.0641038 0.0100799 0)
(-0.065936 0.00924263 0)
(-0.067601 0.00833948 0)
(-0.0690875 0.00737315 0)
(-0.0703845 0.0063469 0)
(-0.0714818 0.00526471 0)
(-0.0723701 0.00413126 0)
(-0.073041 0.00295201 0)
(-0.0734872 0.0017332 0)
(-0.0737025 0.000481855 0)
(-0.0736821 -0.000794209 0)
(-0.0734227 -0.00208644 0)
(-0.0729224 -0.00338557 0)
(-0.0721811 -0.00468172 0)
(-0.0712003 -0.00596443 0)
(-0.0699835 -0.00722279 0)
(-0.0685358 -0.00844555 0)
(-0.0668646 -0.00962125 0)
(-0.0649789 -0.0107384 0)
(-0.0628899 -0.0117855 0)
(-0.0606107 -0.0127513 0)
(-0.0581563 -0.0136252 0)
(-0.0555432 -0.014397 0)
(-0.0527902 -0.0150573 0)
(-0.0499171 -0.0155977 0)
(-0.0469454 -0.0160109 0)
(-0.0438978 -0.016291 0)
(-0.0407979 -0.0164334 0)
(-0.0376701 -0.0164353 0)
(-0.0345393 -0.0162954 0)
(-0.0314305 -0.0160144 0)
(-0.0283686 -0.0155948 0)
(-0.0253781 -0.0150411 0)
(-0.0224824 -0.01436 0)
(-0.019704 -0.01356 0)
(-0.0170639 -0.0126518 0)
(-0.014581 -0.0116482 0)
(-0.012272 -0.0105642 0)
(-0.0101514 -0.00941673 0)
(-0.00823028 -0.00822495 0)
(-0.006517 -0.00701022 0)
(-0.00501633 -0.00579613 0)
(-0.00372943 -0.00460868 0)
(-0.00265369 -0.0034764 0)
(-0.0017826 -0.00243057 0)
(-0.00110574 -0.00150552 0)
(-0.000608559 -0.000739042 0)
(-0.000272297 -0.000172599 0)
(-7.71264e-05 0.000148174 0)
(-6.2339e-06 0.000170214 0)
(-4.56278e-05 0.00043637 0)
(-0.000319075 0.00156063 0)
(-0.000926173 0.00284761 0)
(-0.00181742 0.00422824 0)
(-0.00296778 0.00564882 0)
(-0.00436376 0.00706597 0)
(-0.00598983 0.00844557 0)
(-0.00782925 0.00976158 0)
(-0.00986497 0.0109948 0)
(-0.0120797 0.0121317 0)
(-0.0144557 0.0131633 0)
(-0.0169754 0.0140843 0)
(-0.0196211 0.014892 0)
(-0.0223751 0.015586 0)
(-0.0252201 0.0161675 0)
(-0.0281387 0.0166383 0)
(-0.0311141 0.0170012 0)
(-0.0341298 0.017259 0)
(-0.0371694 0.0174147 0)
(-0.0402169 0.0174711 0)
(-0.0432566 0.0174307 0)
(-0.0462732 0.0172958 0)
(-0.0492512 0.0170683 0)
(-0.0521758 0.0167497 0)
(-0.0550321 0.0163413 0)
(-0.0578053 0.0158443 0)
(-0.060481 0.0152596 0)
(-0.063045 0.0145882 0)
(-0.065483 0.0138313 0)
(-0.0677812 0.01299 0)
(-0.0699261 0.0120661 0)
(-0.0719045 0.0110616 0)
(-0.0737037 0.00997918 0)
(-0.0753115 0.00882198 0)
(-0.0767164 0.00759401 0)
(-0.0779075 0.00630004 0)
(-0.078875 0.00494566 0)
(-0.07961 0.00353737 0)
(-0.0801045 0.00208257 0)
(-0.0803521 0.000589588 0)
(-0.0803476 -0.000932373 0)
(-0.0800873 -0.00247322 0)
(-0.079569 -0.00402207 0)
(-0.0787925 -0.00556728 0)
(-0.0777591 -0.00709658 0)
(-0.0764723 -0.00859716 0)
(-0.0749373 -0.0100558 0)
(-0.0731614 -0.0114591 0)
(-0.0711542 -0.0127935 0)
(-0.0689271 -0.0140455 0)
(-0.0664935 -0.015202 0)
(-0.063869 -0.0162503 0)
(-0.061071 -0.0171785 0)
(-0.0581189 -0.0179754 0)
(-0.0550337 -0.0186312 0)
(-0.0518377 -0.0191371 0)
(-0.048555 -0.0194861 0)
(-0.0452105 -0.0196727 0)
(-0.0418301 -0.0196933 0)
(-0.0384401 -0.0195465 0)
(-0.0350672 -0.0192327 0)
(-0.0317381 -0.0187548 0)
(-0.0284788 -0.018118 0)
(-0.0253149 -0.0173298 0)
(-0.0222706 -0.0164001 0)
(-0.0193686 -0.0153415 0)
(-0.0166297 -0.0141688 0)
(-0.0140724 -0.0128992 0)
(-0.0117128 -0.0115526 0)
(-0.00956384 -0.0101511 0)
(-0.00763533 -0.00871949 0)
(-0.00593361 -0.0072848 0)
(-0.00446132 -0.0058768 0)
(-0.00321731 -0.00452786 0)
(-0.0021965 -0.00327319 0)
(-0.00138997 -0.00215101 0)
(-0.000784676 -0.00120288 0)
(-0.000363364 -0.000473829 0)
(-0.000109165 -1.26017e-05 0)
(-1.10226e-05 0.000125287 0)
(-5.27118e-05 0.000608802 0)
(-0.000364567 0.00205583 0)
(-0.00105229 0.00364558 0)
(-0.00205575 0.00531013 0)
(-0.00334331 0.00699631 0)
(-0.00489728 0.00866092 0)
(-0.00669837 0.0102698 0)
(-0.00872652 0.0117968 0)
(-0.010962 0.0132227 0)
(-0.0133851 0.0145337 0)
(-0.0159764 0.015721 0)
(-0.0187167 0.0167791 0)
(-0.0215868 0.0177058 0)
(-0.0245681 0.0185007 0)
(-0.0276421 0.0191652 0)
(-0.0307906 0.0197016 0)
(-0.0339961 0.0201129 0)
(-0.0372411 0.0204024 0)
(-0.0405086 0.0205732 0)
(-0.043782 0.0206284 0)
(-0.0470447 0.020571 0)
(-0.0502806 0.0204032 0)
(-0.0534739 0.0201274 0)
(-0.0566087 0.0197451 0)
(-0.0596695 0.019258 0)
(-0.062641 0.0186672 0)
(-0.0655079 0.017974 0)
(-0.0682552 0.0171795 0)
(-0.0708682 0.0162852 0)
(-0.0733322 0.0152924 0)
(-0.0756331 0.0142033 0)
(-0.0777569 0.0130203 0)
(-0.0796905 0.0117466 0)
(-0.0814208 0.0103859 0)
(-0.0829358 0.00894298 0)
(-0.084224 0.00742342 0)
(-0.0852751 0.00583376 0)
(-0.0860795 0.00418156 0)
(-0.0866288 0.00247544 0)
(-0.0869162 0.000725033 0)
(-0.0869358 -0.00105898 0)
(-0.0866837 -0.00286495 0)
(-0.0861573 -0.00468028 0)
(-0.085356 -0.00649155 0)
(-0.0842811 -0.00828457 0)
(-0.0829356 -0.0100446 0)
(-0.0813248 -0.0117563 0)
(-0.079456 -0.0134042 0)
(-0.0773387 -0.0149727 0)
(-0.0749845 -0.0164462 0)
(-0.0724073 -0.0178094 0)
(-0.069623 -0.0190477 0)
(-0.0666496 -0.0201471 0)
(-0.0635071 -0.0210947 0)
(-0.0602173 -0.021879 0)
(-0.0568036 -0.0224896 0)
(-0.0532912 -0.0229183 0)
(-0.0497061 -0.0231585 0)
(-0.0460758 -0.0232058 0)
(-0.042428 -0.0230584 0)
(-0.0387912 -0.0227165 0)
(-0.0351936 -0.0221832 0)
(-0.0316633 -0.0214643 0)
(-0.0282277 -0.0205683 0)
(-0.0249128 -0.0195064 0)
(-0.0217433 -0.0182928 0)
(-0.0187422 -0.0169444 0)
(-0.0159297 -0.0154811 0)
(-0.0133239 -0.0139253 0)
(-0.0109397 -0.0123024 0)
(-0.00878851 -0.0106404 0)
(-0.00687857 -0.00897009 0)
(-0.00521418 -0.00732491 0)
(-0.00379585 -0.00574115 0)
(-0.00262013 -0.00425791 0)
(-0.00167976 -0.00291727 0)
(-0.000963326 -0.00176445 0)
(-0.000455095 -0.000847851 0)
(-0.000141071 -0.000219098 0)
(-1.56694e-05 6.41809e-05 0)
(-5.95371e-05 0.000804039 0)
(-0.00040871 0.00261314 0)
(-0.00117511 0.00453901 0)
(-0.00228842 0.00651541 0)
(-0.00371068 0.00849029 0)
(-0.00542008 0.0104213 0)
(-0.00739356 0.0122748 0)
(-0.00960777 0.0140251 0)
(-0.0120401 0.0156534 0)
(-0.0146687 0.0171462 0)
(-0.0174721 0.0184949 0)
(-0.0204294 0.0196947 0)
(-0.0235201 0.0207434 0)
(-0.0267244 0.0216413 0)
(-0.0300229 0.02239 0)
(-0.0333966 0.0229924 0)
(-0.036827 0.0234517 0)
(-0.040296 0.0237716 0)
(-0.0437859 0.0239556 0)
(-0.0472795 0.0240072 0)
(-0.0507596 0.0239294 0)
(-0.0542095 0.0237251 0)
(-0.0576127 0.0233964 0)
(-0.0609528 0.0229454 0)
(-0.0642136 0.0223736 0)
(-0.0673793 0.0216827 0)
(-0.0704339 0.0208739 0)
(-0.0733618 0.0199485 0)
(-0.0761476 0.0189083 0)
(-0.0787762 0.017755 0)
(-0.0812327 0.0164909 0)
(-0.0835026 0.0151191 0)
(-0.0855721 0.0136431 0)
(-0.0874276 0.0120674 0)
(-0.0890563 0.0103973 0)
(-0.0904464 0.00863943 0)
(-0.0915868 0.00680117 0)
(-0.0924674 0.0048912 0)
(-0.0930793 0.00291936 0)
(-0.0934149 0.000896648 0)
(-0.0934682 -0.00116478 0)
(-0.0932344 -0.00325164 0)
(-0.0927107 -0.00534962 0)
(-0.0918959 -0.00744344 0)
(-0.090791 -0.00951698 0)
(-0.0893986 -0.0115534 0)
(-0.0877239 -0.0135354 0)
(-0.0857739 -0.0154451 0)
(-0.083558 -0.0172649 0)
(-0.081088 -0.0189768 0)
(-0.0783776 -0.0205635 0)
(-0.0754432 -0.022008 0)
(-0.0723032 -0.0232944 0)
(-0.068978 -0.0244078 0)
(-0.0654902 -0.0253347 0)
(-0.0618643 -0.0260632 0)
(-0.0581261 -0.0265836 0)
(-0.0543032 -0.0268881 0)
(-0.0504241 -0.0269715 0)
(-0.0465185 -0.0268311 0)
(-0.0426161 -0.0264672 0)
(-0.0387473 -0.0258827 0)
(-0.0349419 -0.025084 0)
(-0.0312293 -0.0240804 0)
(-0.0276376 -0.0228845 0)
(-0.0241938 -0.0215122 0)
(-0.0209227 -0.0199824 0)
(-0.017847 -0.0183174 0)
(-0.0149868 -0.0165427 0)
(-0.0123588 -0.0146866 0)
(-0.00997693 -0.0127806 0)
(-0.00785109 -0.0108591 0)
(-0.00598759 -0.00895945 0)
(-0.00438874 -0.00712184 0)
(-0.00305294 -0.00538929 0)
(-0.00197467 -0.00380773 0)
(-0.00114422 -0.00242603 0)
(-0.000547365 -0.00129585 0)
(-0.000172835 -0.000471618 0)
(-2.01878e-05 -1.29591e-05 0)
(-6.61158e-05 0.00102137 0)
(-0.000451474 0.00323087 0)
(-0.0012944 0.00552558 0)
(-0.00251486 0.0078414 0)
(-0.0040688 0.0101279 0)
(-0.00593041 0.0123441 0)
(-0.00807297 0.0144575 0)
(-0.0104698 0.0164434 0)
(-0.0130956 0.0182836 0)
(-0.0159259 0.0199657 0)
(-0.0189375 0.0214816 0)
(-0.0221078 0.0228271 0)
(-0.025415 0.0240008 0)
(-0.0288379 0.0250035 0)
(-0.0323563 0.0258373 0)
(-0.0359502 0.0265057 0)
(-0.0396005 0.0270123 0)
(-0.0432885 0.0273613 0)
(-0.0469957 0.0275567 0)
(-0.0507044 0.0276021 0)
(-0.054397 0.027501 0)
(-0.0580561 0.0272563 0)
(-0.0616648 0.0268707 0)
(-0.065206 0.0263461 0)
(-0.0686633 0.0256845 0)
(-0.07202 0.0248875 0)
(-0.0752599 0.0239566 0)
(-0.0783667 0.0228933 0)
(-0.0813245 0.0216996 0)
(-0.0841176 0.0203776 0)
(-0.0867306 0.0189298 0)
(-0.0891485 0.0173598 0)
(-0.0913567 0.0156715 0)
(-0.0933413 0.0138702 0)
(-0.0950888 0.0119619 0)
(-0.0965867 0.00995396 0)
(-0.0978233 0.00785477 0)
(-0.098788 0.00567413 0)
(-0.0994713 0.00342308 0)
(-0.099865 0.00111401 0)
(-0.0999623 -0.00123944 0)
(-0.099758 -0.00362235 0)
(-0.0992486 -0.00601865 0)
(-0.0984325 -0.00841117 0)
(-0.0973099 -0.0107818 0)
(-0.0958832 -0.0131116 0)
(-0.0941569 -0.015381 0)
(-0.0921378 -0.0175701 0)
(-0.0898351 -0.0196586 0)
(-0.0872603 -0.0216266 0)
(-0.0844272 -0.0234541 0)
(-0.0813523 -0.0251221 0)
(-0.078054 -0.0266123 0)
(-0.0745535 -0.0279077 0)
(-0.0708738 -0.0289927 0)
(-0.06704 -0.0298538 0)