/*--------------------------------*- C++ -*----------------------------------*\
  =========                 |
  \\      /  F ield         | OpenFOAM: The Open Source CFD Toolbox
   \\    /   O peration     | Website:  https://openfoam.org
    \\  /    A nd           | Version:  7
     \\/     M anipulation  |
\*---------------------------------------------------------------------------*/
FoamFile
{
    version     2.0;
    format      ascii;
    class       surfaceScalarField;
    location    "0.15";
    object      phi;
}
// * * * * * * * * * * * * * * * * * * * * * * * * * * * * * * * * * * * * * //

dimensions      [0 3 -1 0 0 0 0];

internalField   nonuniform List<scalar> 
12640
(
1.41837e-10
-1.41902e-10
3.32319e-10
-1.90471e-10
4.05e-10
-7.26842e-11
3.06408e-10
9.85899e-11
1.76826e-11
2.8873e-10
-4.57699e-10
4.75388e-10
-1.10736e-09
6.49672e-10
-1.91422e-09
8.06865e-10
-2.85949e-09
9.45278e-10
-3.92441e-09
1.06492e-09
-5.09086e-09
1.16646e-09
-6.34171e-09
1.25086e-09
-7.66098e-09
1.31928e-09
-9.03401e-09
1.37304e-09
-1.04474e-08
1.41338e-09
-1.18889e-08
1.4415e-09
-1.33475e-08
1.45856e-09
-1.48131e-08
1.46566e-09
-1.62769e-08
1.46378e-09
-1.77307e-08
1.45378e-09
-1.91671e-08
1.43641e-09
-2.05794e-08
1.41232e-09
-2.19616e-08
1.38215e-09
-2.3308e-08
1.34642e-09
-2.46135e-08
1.3055e-09
-2.58733e-08
1.2597e-09
-2.70826e-08
1.20932e-09
-2.82372e-08
1.15461e-09
-2.93329e-08
1.09573e-09
-3.03658e-08
1.03282e-09
-3.13317e-08
9.65984e-10
-3.2227e-08
8.95301e-10
-3.30479e-08
8.20846e-10
-3.37906e-08
7.42693e-10
-3.44515e-08
6.60932e-10
-3.50272e-08
5.75667e-10
-3.55142e-08
4.86998e-10
-3.59092e-08
3.95037e-10
-3.62092e-08
2.99931e-10
-3.6411e-08
2.01871e-10
-3.65121e-08
1.01104e-10
-3.65101e-08
-2.07234e-12
-3.64028e-08
-1.07324e-10
-3.61885e-08
-2.14273e-10
-3.5866e-08
-3.22497e-10
-3.54345e-08
-4.31517e-10
-3.48937e-08
-5.40784e-10
-3.4244e-08
-6.49678e-10
-3.34865e-08
-7.57521e-10
-3.26229e-08
-8.6358e-10
-3.16558e-08
-9.67075e-10
-3.05886e-08
-1.06718e-09
-2.94256e-08
-1.16304e-09
-2.81719e-08
-1.25374e-09
-2.68335e-08
-1.33834e-09
-2.54177e-08
-1.41586e-09
-2.39324e-08
-1.48532e-09
-2.23866e-08
-1.54573e-09
-2.07905e-08
-1.59608e-09
-1.91551e-08
-1.63541e-09
-1.74924e-08
-1.66275e-09
-1.58152e-08
-1.67721e-09
-1.41373e-08
-1.6779e-09
-1.24733e-08
-1.66402e-09
-1.08384e-08
-1.63481e-09
-9.24884e-09
-1.58961e-09
-7.72102e-09
-1.52782e-09
-6.27207e-09
-1.44896e-09
-4.91939e-09
-1.35268e-09
-3.6806e-09
-1.23879e-09
-2.5733e-09
-1.1073e-09
-1.61474e-09
-9.58563e-10
-8.21297e-10
-7.93448e-10
-2.07618e-10
-6.13684e-10
2.14987e-10
-4.22603e-10
4.41449e-10
-2.26455e-10
4.78476e-10
-3.7026e-11
3.55078e-10
1.23393e-10
1.44778e-10
2.103e-10
1.44777e-10
1.67692e-10
-3.09583e-10
2.80108e-10
-3.02908e-10
1.12411e-10
9.502e-11
-4.55847e-10
6.66836e-10
-1.47157e-09
1.30445e-09
-2.94142e-09
1.94524e-09
-4.84631e-09
2.55457e-09
-7.15317e-09
3.11374e-09
-9.82161e-09
3.61373e-09
-1.2808e-08
4.05134e-09
-1.60682e-08
4.42662e-09
-1.95589e-08
4.74157e-09
-2.3239e-08
4.99934e-09
-2.70696e-08
5.20367e-09
-3.10148e-08
5.35851e-09
-3.50411e-08
5.46786e-09
-3.91182e-08
5.53566e-09
-4.32182e-08
5.56566e-09
-4.73157e-08
5.56127e-09
-5.13876e-08
5.52561e-09
-5.54126e-08
5.46147e-09
-5.93716e-08
5.37135e-09
-6.3247e-08
5.25748e-09
-6.70223e-08
5.12173e-09
-7.06824e-08
4.96567e-09
-7.42134e-08
4.79061e-09
-7.76017e-08
4.5977e-09
-8.0835e-08
4.38784e-09
-8.3901e-08
4.16178e-09
-8.67884e-08
3.92013e-09
-8.94858e-08
3.66339e-09
-9.19824e-08
3.39195e-09
-9.42678e-08
3.10619e-09
-9.63315e-08
2.80648e-09
-9.81638e-08
2.4932e-09
-9.97549e-08
2.16676e-09
-1.01096e-07
1.82764e-09
-1.02177e-07
1.47638e-09
-1.02991e-07
1.11362e-09
-1.03529e-07
7.40153e-10
-1.03785e-07
3.56925e-10
-1.03752e-07
-3.49529e-11
-1.03425e-07
-4.34199e-10
-1.028e-07
-8.39357e-10
-1.01874e-07
-1.24877e-09
-1.00645e-07
-1.66058e-09
-9.91126e-08
-2.07272e-09
-9.72794e-08
-2.48287e-09
-9.51484e-08
-2.88854e-09
-9.2725e-08
-3.28701e-09
-9.00167e-08
-3.67539e-09
-8.70333e-08
-4.05061e-09
-8.37869e-08
-4.40943e-09
-8.02922e-08
-4.74849e-09
-7.65662e-08
-5.0643e-09
-7.26288e-08
-5.35328e-09
-6.85023e-08
-5.61182e-09
-6.42118e-08
-5.83627e-09
-5.97848e-08
-6.02301e-09
-5.52517e-08
-6.16847e-09
-5.06453e-08
-6.26919e-09
-4.60007e-08
-6.32186e-09
-4.13552e-08
-6.32335e-09
-3.67485e-08
-6.27077e-09
-3.22218e-08
-6.16152e-09
-2.7818e-08
-5.99334e-09
-2.35815e-08
-5.76436e-09
-1.95572e-08
-5.47323e-09
-1.57907e-08
-5.1192e-09
-1.23272e-08
-4.70233e-09
-9.21071e-09
-4.22377e-09
-6.48307e-09
-3.6862e-09
-4.1819e-09
-3.09462e-09
-2.33795e-09
-2.45762e-09
-9.70938e-10
-1.78961e-09
-8.28015e-11
-1.11459e-09
3.52823e-10
-4.72659e-10
4.05904e-10
7.03113e-11
2.09828e-10
4.06374e-10
3.54604e-10
6.97148e-11
-3.793e-10
-1.08728e-10
-1.24459e-10
-7.45548e-10
7.31846e-10
-1.96783e-09
1.88913e-09
-3.8337e-09
3.17032e-09
-6.35411e-09
4.46566e-09
-9.50776e-09
5.70823e-09
-1.32531e-08
6.85903e-09
-1.75363e-08
7.89701e-09
-2.22975e-08
8.81248e-09
-2.74738e-08
9.60299e-09
-3.30029e-08
1.02706e-08
-3.88238e-08
1.08202e-08
-4.48784e-08
1.12583e-08
-5.11121e-08
1.15922e-08
-5.7474e-08
1.18297e-08
-6.39167e-08
1.19784e-08
-7.03967e-08
1.20457e-08
-7.68741e-08
1.20387e-08
-8.33122e-08
1.19637e-08
-8.96774e-08
1.18266e-08
-9.59388e-08
1.16328e-08
-1.02068e-07
1.13867e-08
-1.08039e-07
1.10925e-08
-1.13827e-07
1.07535e-08
-1.19409e-07
1.03728e-08
-1.24764e-07
9.95273e-09
-1.29871e-07
9.49542e-09
-1.34712e-07
9.00258e-09
-1.39268e-07
8.47562e-09
-1.4352e-07
7.91573e-09
-1.47452e-07
7.32393e-09
-1.51047e-07
6.70116e-09
-1.54289e-07
6.04833e-09
-1.57162e-07
5.36636e-09
-1.59652e-07
4.65624e-09
-1.61743e-07
3.9191e-09
-1.63423e-07
3.15622e-09
-1.64678e-07
2.36912e-09
-1.65498e-07
1.55958e-09
-1.65871e-07
7.29702e-10
-1.65787e-07
-1.18091e-10
-1.65241e-07
-9.80991e-10
-1.64224e-07
-1.85581e-09
-1.62734e-07
-2.73895e-09
-1.60768e-07
-3.62638e-09
-1.58327e-07
-4.51362e-09
-1.55414e-07
-5.39577e-09
-1.52035e-07
-6.26746e-09
-1.482e-07
-7.12292e-09
-1.43919e-07
-7.95599e-09
-1.39209e-07
-8.76013e-09
-1.3409e-07
-9.52847e-09
-1.28585e-07
-1.02539e-08
-1.2272e-07
-1.0929e-08
-1.16527e-07
-1.15462e-08
-1.10041e-07
-1.20979e-08
-1.03301e-07
-1.25764e-08
-9.63501e-08
-1.29742e-08
-8.92349e-08
-1.32836e-08
-8.20065e-08
-1.34976e-08
-7.47192e-08
-1.36092e-08
-6.74305e-08
-1.3612e-08
-6.02013e-08
-1.35001e-08
-5.30946e-08
-1.32682e-08
-4.6176e-08
-1.29119e-08
-3.95124e-08
-1.2428e-08
-3.31717e-08
-1.1814e-08
-2.72215e-08
-1.10693e-08
-2.17286e-08
-1.01952e-08
-1.67569e-08
-9.19551e-09
-1.23655e-08
-8.07757e-09
-8.60623e-09
-6.85393e-09
-5.51926e-09
-5.54459e-09
-3.12795e-09
-4.18091e-09
-1.4309e-09
-2.81165e-09
-3.91252e-10
-1.51231e-09
7.69216e-11
-3.97863e-10
1.24762e-10
3.5853e-10
4.79365e-10
-9.83471e-11
-2.80955e-10
-6.73136e-10
4.50317e-10
-1.90103e-09
1.95975e-09
-3.88861e-09
3.87671e-09
-6.68591e-09
5.96762e-09
-1.0299e-08
8.07875e-09
-1.47014e-08
1.01107e-08
-1.98445e-08
1.20021e-08
-2.56649e-08
1.37174e-08
-3.20907e-08
1.52383e-08
-3.90458e-08
1.65581e-08
-4.64531e-08
1.76779e-08
-5.42366e-08
1.86037e-08
-6.23229e-08
1.93446e-08
-7.06422e-08
1.99115e-08
-7.91287e-08
2.03162e-08
-8.77211e-08
2.05707e-08
-9.63623e-08
2.06869e-08
-1.05e-07
2.06761e-08
-1.13585e-07
2.05486e-08
-1.22072e-07
2.03142e-08
-1.30421e-07
1.99817e-08
-1.38593e-07
1.95588e-08
-1.46553e-07
1.90524e-08
-1.54268e-07
1.84682e-08
-1.61707e-07
1.78114e-08
-1.6884e-07
1.70863e-08
-1.75641e-07
1.62966e-08
-1.82084e-07
1.54452e-08
-1.88143e-07
1.45349e-08
-1.93795e-07
1.35677e-08
-1.99017e-07
1.25456e-08
-2.03786e-07
1.14704e-08
-2.08081e-07
1.03437e-08
-2.11883e-07
9.16747e-09
-2.1517e-07
7.94339e-09
-2.17924e-07
6.67358e-09
-2.20128e-07
5.36038e-09
-2.21766e-07
4.00652e-09
-2.22821e-07
2.61517e-09
-2.23282e-07
1.19001e-09
-2.23135e-07
-2.64727e-10
-2.22372e-07
-1.74418e-09
-2.20985e-07
-3.24284e-09
-2.18969e-07
-4.75453e-09
-2.16323e-07
-6.27233e-09
-2.13048e-07
-7.78861e-09
-2.09149e-07
-9.29499e-09
-2.04634e-07
-1.07824e-08
-1.99516e-07
-1.22411e-08
-1.93811e-07
-1.36605e-08
-1.87542e-07
-1.50297e-08
-1.80733e-07
-1.63371e-08
-1.73416e-07
-1.75707e-08
-1.65627e-07
-1.87179e-08
-1.57407e-07
-1.97662e-08
-1.48803e-07
-2.07027e-08
-1.39865e-07
-2.15145e-08
-1.3065e-07
-2.2189e-08
-1.2122e-07
-2.27137e-08
-1.11641e-07
-2.30766e-08
-1.01984e-07
-2.32664e-08
-9.23232e-08
-2.32724e-08
-8.27381e-08
-2.30851e-08
-7.33101e-08
-2.26962e-08
-6.41231e-08
-2.20989e-08
-5.52629e-08
-2.12882e-08
-4.68156e-08
-2.02613e-08
-3.88668e-08
-1.90181e-08
-3.14997e-08
-1.75623e-08
-2.47932e-08
-1.59019e-08
-1.88196e-08
-1.40512e-08
-1.36405e-08
-1.2033e-08
-9.3034e-09
-9.88171e-09
-5.83517e-09
-7.64914e-09
-3.23529e-09
-5.41155e-09
-1.46662e-09
-3.28098e-09
-4.45318e-10
-1.41916e-09
-2.94738e-11
-5.73154e-11
4.49894e-10
-2.85923e-10
4.97258e-12
-1.31268e-09
1.47707e-09
-3.19775e-09
3.84482e-09
-6.01313e-09
6.6921e-09
-9.78853e-09
9.74303e-09
-1.45172e-08
1.28074e-08
-2.01635e-08
1.5757e-08
-2.66702e-08
1.85089e-08
-3.39655e-08
2.10126e-08
-4.19678e-08
2.32406e-08
-5.05905e-08
2.51808e-08
-5.97452e-08
2.68326e-08
-6.93438e-08
2.82024e-08
-7.93009e-08
2.93017e-08
-8.95342e-08
3.01448e-08
-9.99658e-08
3.07479e-08
-1.10523e-07
3.11275e-08
-1.21136e-07
3.13003e-08
-1.31742e-07
3.12823e-08
-1.42282e-07
3.10887e-08
-1.52701e-07
3.07334e-08
-1.62949e-07
3.02294e-08
-1.72978e-07
2.9588e-08
-1.82745e-07
2.88193e-08
-1.92209e-07
2.79322e-08
-2.01332e-07
2.69343e-08
-2.10078e-07
2.58323e-08
-2.18413e-07
2.46317e-08
-2.26305e-07
2.33374e-08
-2.33724e-07
2.19533e-08
-2.40639e-07
2.04829e-08
-2.47023e-07
1.89295e-08
-2.52849e-07
1.72959e-08
-2.5809e-07
1.55849e-08
-2.62721e-07
1.37993e-08
-2.6672e-07
1.19421e-08
-2.70063e-07
1.00167e-08
-2.7273e-07
8.02672e-09
-2.747e-07
5.97649e-09
-2.75955e-07
3.87092e-09
-2.76481e-07
1.71568e-09
-2.76263e-07
-4.82733e-10
-2.7529e-07
-2.71693e-09
-2.73555e-07
-4.97857e-09
-2.71051e-07
-7.25828e-09
-2.67777e-07
-9.54563e-09
-2.63737e-07
-1.18292e-08
-2.58936e-07
-1.40963e-08
-2.53385e-07
-1.63335e-08
-2.471e-07
-1.85261e-08
-2.40102e-07
-2.06585e-08
-2.32417e-07
-2.27142e-08
-2.24078e-07
-2.46761e-08
-2.15123e-07
-2.65262e-08
-2.05594e-07
-2.82461e-08
-1.95544e-07
-2.9817e-08
-1.85026e-07
-3.12199e-08
-1.74105e-07
-3.24359e-08
-1.62848e-07
-3.34461e-08
-1.51329e-07
-3.42324e-08
-1.39629e-07
-3.47771e-08
-1.27831e-07
-3.50637e-08
-1.16027e-07
-3.5077e-08
-1.04309e-07
-3.48032e-08
-9.27741e-08
-3.42307e-08
-8.15228e-08
-3.33502e-08
-7.06559e-08
-3.21551e-08
-6.02744e-08
-3.06427e-08
-5.04783e-08
-2.88143e-08
-4.13638e-08
-2.66768e-08
-3.30219e-08
-2.42438e-08
-2.55349e-08
-2.15383e-08
-1.8973e-08
-1.85948e-08
-1.33903e-08
-1.54644e-08
-8.81935e-09
-1.22201e-08
-5.26521e-09
-8.96568e-09
-2.69911e-09
-5.84707e-09
-1.05178e-09
-3.06649e-09
-2.0793e-10
-9.01164e-10
2.41967e-10
-4.75296e-10
4.80277e-10
-1.97046e-09
2.97224e-09
-4.53764e-09
6.41201e-09
-8.20625e-09
1.03607e-08
-1.29777e-08
1.45145e-08
-1.88262e-08
1.8656e-08
-2.57028e-08
2.26335e-08
-3.35397e-08
2.63458e-08
-4.22557e-08
2.97287e-08
-5.17604e-08
3.27454e-08
-6.19583e-08
3.53787e-08
-7.27514e-08
3.76256e-08
-8.40419e-08
3.94929e-08
-9.57343e-08
4.09941e-08
-1.07736e-07
4.21469e-08
-1.1996e-07
4.29717e-08
-1.32322e-07
4.34897e-08
-1.44745e-07
4.37228e-08
-1.57155e-07
4.36919e-08
-1.69483e-07
4.34174e-08
-1.81668e-07
4.29178e-08
-1.93649e-07
4.22106e-08
-2.05372e-07
4.13112e-08
-2.16787e-07
4.02336e-08
-2.27844e-07
3.89898e-08
-2.385e-07
3.75905e-08
-2.48713e-07
3.6045e-08
-2.58442e-07
3.43612e-08
-2.67651e-07
3.25458e-08
-2.76302e-07
3.06048e-08
-2.84363e-07
2.85431e-08
-2.91799e-07
2.63655e-08
-2.98579e-07
2.40762e-08
-3.04674e-07
2.16793e-08
-3.10053e-07
1.91791e-08
-3.14691e-07
1.65798e-08
-3.18561e-07
1.38865e-08
-3.21638e-07
1.11043e-08
-3.23902e-07
8.23957e-09
-3.2533e-07
5.29923e-09
-3.25905e-07
2.29134e-09
-3.25613e-07
-7.74972e-10
-3.24441e-07
-3.88931e-09
-3.22379e-07
-7.04001e-09
-3.19424e-07
-1.0214e-08
-3.15573e-07
-1.33968e-08
-3.10829e-07
-1.65724e-08
-3.05202e-07
-1.97236e-08
-2.98704e-07
-2.28314e-08
-2.91354e-07
-2.58758e-08
-2.83178e-07
-2.88351e-08
-2.74205e-07
-3.16868e-08
-2.64474e-07
-3.44072e-08
-2.54029e-07
-3.69716e-08
-2.4292e-07
-3.93548e-08
-2.31206e-07
-4.1531e-08
-2.18952e-07
-4.34742e-08
-2.06229e-07
-4.51586e-08
-1.93117e-07
-4.65586e-08
-1.797e-07
-4.76494e-08
-1.66069e-07
-4.84072e-08
-1.52323e-07
-4.88098e-08
-1.38564e-07
-4.88368e-08
-1.24897e-07
-4.847e-08
-1.11433e-07
-4.76942e-08
-9.82859e-08
-4.64976e-08
-8.55683e-08
-4.48727e-08
-7.33942e-08
-4.28168e-08
-6.18753e-08
-4.03333e-08
-5.11188e-08
-3.74332e-08
-4.12256e-08
-3.4137e-08
-3.22869e-08
-3.04769e-08
-2.43812e-08
-2.65006e-08
-1.75699e-08
-2.22757e-08
-1.18938e-08
-1.78963e-08
-7.36801e-09
-1.34914e-08
-3.97846e-09
-9.23663e-09
-1.67859e-09
-5.36635e-09
-3.88807e-10
-2.19094e-09
-1.46839e-10
-6.57864e-10
1.13815e-09
-2.61516e-09
4.92953e-09
-5.8621e-09
9.65897e-09
-1.03827e-08
1.48813e-08
-1.61457e-08
2.02775e-08
-2.31022e-08
2.56125e-08
-3.11863e-08
3.07175e-08
-4.03173e-08
3.54768e-08
-5.04037e-08
3.98151e-08
-6.13459e-08
4.36875e-08
-7.30396e-08
4.70724e-08
-8.53784e-08
4.99645e-08
-9.82565e-08
5.2371e-08
-1.1157e-07
5.43072e-08
-1.25217e-07
5.57944e-08
-1.39102e-07
5.68571e-08
-1.53134e-07
5.75214e-08
-1.67226e-07
5.78144e-08
-1.81296e-07
5.77623e-08
-1.95269e-07
5.73906e-08
-2.09075e-07
5.67232e-08
-2.22646e-07
5.5782e-08
-2.35922e-07
5.4587e-08
-2.48844e-07
5.31562e-08
-2.6136e-07
5.15054e-08
-2.73418e-07
4.96486e-08
-2.84971e-07
4.75979e-08
-2.95973e-07
4.53638e-08
-3.06383e-07
4.29554e-08
-3.16159e-07
4.03807e-08
-3.25262e-07
3.76466e-08
-3.33656e-07
3.47594e-08
-3.41305e-07
3.17251e-08
-3.48175e-07
2.85493e-08
-3.54234e-07
2.52378e-08
-3.59451e-07
2.17967e-08
-3.63797e-07
1.82325e-08
-3.67245e-07
1.45527e-08
-3.69771e-07
1.07655e-08
-3.71352e-07
6.8803e-09
-3.71969e-07
2.90789e-09
-3.71604e-07
-1.13958e-09
-3.70245e-07
-5.24835e-09
-3.67882e-07
-9.40297e-09
-3.6451e-07
-1.35862e-08
-3.60128e-07
-1.77791e-08
-3.5474e-07
-2.19605e-08
-3.48355e-07
-2.61079e-08
-3.4099e-07
-3.01964e-08
-3.32666e-07
-3.41998e-08
-3.23412e-07
-3.809e-08
-3.13261e-07
-4.18373e-08
-3.02257e-07
-4.5411e-08
-2.9045e-07
-4.8779e-08
-2.77896e-07
-5.19084e-08
-2.64662e-07
-5.47657e-08
-2.50818e-07
-5.73174e-08
-2.36447e-07
-5.95298e-08
-2.21636e-07
-6.13701e-08
-2.06479e-07
-6.28063e-08
-1.91078e-07
-6.38078e-08
-1.75542e-07
-6.43463e-08
-1.59982e-07
-6.43959e-08
-1.44519e-07
-6.39338e-08
-1.29272e-07
-6.29412e-08
-1.14365e-07
-6.14039e-08
-9.99247e-08
-5.93133e-08
-8.60742e-08
-5.66673e-08
-7.29354e-08
-5.34721e-08
-6.06254e-08
-4.97433e-08
-4.92539e-08
-4.55085e-08
-3.89209e-08
-4.08099e-08
-2.97132e-08
-3.57083e-08
-2.17012e-08
-3.02876e-08
-1.49362e-08
-2.46613e-08
-9.44684e-09
-1.89808e-08
-5.23788e-09
-1.34456e-08
-2.28975e-09
-8.31448e-09
-5.61498e-10
-3.91919e-09
-7.08337e-10
-8.29262e-10
1.96742e-09
-3.23088e-09
7.33116e-09
-7.13865e-09
1.35667e-08
-1.24922e-08
2.02349e-08
-1.92263e-08
2.70116e-08
-2.72662e-08
3.36524e-08
-3.65268e-08
3.99781e-08
-4.69128e-08
4.58627e-08
-5.83205e-08
5.12228e-08
-7.06405e-08
5.60076e-08
-8.37599e-08
6.01918e-08
-9.75644e-08
6.37689e-08
-1.1194e-07
6.67467e-08
-1.26776e-07
6.91429e-08
-1.41963e-07
7.09818e-08
-1.57399e-07
7.22925e-08
-1.72983e-07
7.31061e-08
-1.88624e-07
7.34549e-08
-2.04232e-07
7.33707e-08
-2.19726e-07
7.28844e-08
-2.35028e-07
7.2025e-08
-2.50066e-07
7.08196e-08
-2.64771e-07
6.92929e-08
-2.79082e-07
6.74671e-08
-2.92939e-07
6.5362e-08
-3.06286e-07
6.29951e-08
-3.19069e-07
6.03818e-08
-3.31241e-07
5.75354e-08
-3.42753e-07
5.44676e-08
-3.53561e-07
5.11885e-08
-3.63622e-07
4.77072e-08
-3.72894e-07
4.4032e-08
-3.8134e-07
4.01705e-08
-3.88921e-07
3.61303e-08
-3.95602e-07
3.1919e-08
-4.0135e-07
2.75445e-08
-4.06132e-07
2.30153e-08
-4.09921e-07
1.83411e-08
-4.12688e-07
1.35325e-08
-4.14409e-07
8.6016e-09
-4.15063e-07
3.5622e-09
-4.14633e-07
-1.57022e-09
-4.13103e-07
-6.77816e-09
-4.10464e-07
-1.2042e-08
-4.0671e-07
-1.734e-08
-4.01841e-07
-2.26481e-08
-3.95862e-07
-2.79398e-08
-3.88783e-07
-3.31864e-08
-3.80623e-07
-3.83569e-08
-3.71405e-07
-4.34181e-08
-3.6116e-07
-4.83349e-08
-3.49927e-07
-5.307e-08
-3.37753e-07
-5.75848e-08
-3.24693e-07
-6.18392e-08
-3.10809e-07
-6.5792e-08
-2.96174e-07
-6.94014e-08
-2.80866e-07
-7.26254e-08
-2.64973e-07
-7.54224e-08
-2.48592e-07
-7.77513e-08
-2.31826e-07
-7.95725e-08
-2.14785e-07
-8.08484e-08
-1.97587e-07
-8.1544e-08
-1.80356e-07
-8.16277e-08
-1.63218e-07
-8.10719e-08
-1.46305e-07
-7.9854e-08
-1.29751e-07
-7.79575e-08
-1.13691e-07
-7.5373e-08
-9.82594e-08
-7.20994e-08
-8.35861e-08
-6.81454e-08
-6.97975e-08
-6.35319e-08
-5.70122e-08
-5.82938e-08
-4.53387e-08
-5.24833e-08
-3.48732e-08
-4.61738e-08
-2.56966e-08
-3.94643e-08
-1.78722e-08
-3.24857e-08
-1.14449e-08
-2.54082e-08
-6.44019e-09
-1.84503e-08
-2.86682e-09
-1.18878e-08
-7.21356e-10
-6.06465e-09
-1.42969e-09
-9.88456e-10
2.95588e-09
-3.8107e-09
1.01534e-08
-8.351e-09
1.8107e-08
-1.45075e-08
2.63913e-08
-2.21813e-08
3.46854e-08
-3.12713e-08
4.27424e-08
-4.16713e-08
5.03782e-08
-5.32698e-08
5.74613e-08
-6.59503e-08
6.39032e-08
-7.95925e-08
6.96498e-08
-9.40743e-08
7.46737e-08
-1.09274e-07
7.89682e-08
-1.25069e-07
8.25423e-08
-1.41343e-07
8.54163e-08
-1.57979e-07
8.76185e-08
-1.74869e-07
8.91823e-08
-1.91907e-07
9.01442e-08
-2.08994e-07
9.05416e-08
-2.26035e-07
9.04122e-08
-2.42943e-07
8.97925e-08
-2.59635e-07
8.87168e-08
-2.76033e-07
8.72175e-08
-2.92064e-07
8.53242e-08
-3.07661e-07
8.30636e-08
-3.22759e-07
8.04596e-08
-3.37297e-07
7.75337e-08
-3.5122e-07
7.43043e-08
-3.64472e-07
7.07881e-08
-3.77004e-07
6.69992e-08
-3.88766e-07
6.29505e-08
-3.99712e-07
5.86532e-08
-4.09798e-07
5.41177e-08
-4.18981e-07
4.93536e-08
-4.27221e-07
4.43706e-08
-4.3448e-07
3.9178e-08
-4.40721e-07
3.37859e-08
-4.45911e-07
2.82052e-08
-4.50018e-07
2.24477e-08
-4.53012e-07
1.65268e-08
-4.54868e-07
1.04575e-08
-4.55563e-07
4.25674e-09
-4.55077e-07
-2.05626e-09
-4.53395e-07
-8.46e-09
-4.50506e-07
-1.49304e-08
-4.46406e-07
-2.14407e-08
-4.41092e-07
-2.79613e-08
-4.34572e-07
-3.44601e-08
-4.26857e-07
-4.09017e-08
-4.17965e-07
-4.72485e-08
-4.07923e-07
-5.34598e-08
-3.96766e-07
-5.94928e-08
-3.84534e-07
-6.53021e-08
-3.71278e-07
-7.08406e-08
-3.57058e-07
-7.60595e-08
-3.41941e-07
-8.09088e-08
-3.26004e-07
-8.53378e-08
-3.09334e-07
-8.92956e-08
-2.92025e-07
-9.27316e-08
-2.7418e-07
-9.55964e-08
-2.5591e-07
-9.78422e-08
-2.37335e-07
-9.94237e-08
-2.1858e-07
-1.00299e-07
-1.99777e-07
-1.00431e-07
-1.81062e-07
-9.9786e-08
-1.62578e-07
-9.83386e-08
-1.44466e-07
-9.60696e-08
-1.2687e-07
-9.29687e-08
-1.09934e-07
-8.90359e-08
-9.37959e-08
-8.4283e-08
-7.85921e-08
-7.87357e-08
-6.44495e-08
-7.24364e-08
-5.14861e-08
-6.54468e-08
-3.98079e-08
-5.7852e-08
-2.95073e-08
-4.97649e-08
-2.06616e-08
-4.13314e-08
-1.33325e-08
-3.27373e-08
-7.56726e-09
-2.42155e-08
-3.40181e-09
-1.60533e-08
-8.66886e-10
-8.59957e-09
-2.29658e-09
-1.13554e-09
4.09143e-09
-4.35267e-09
1.33705e-08
-9.49287e-09
2.32473e-08
-1.64164e-08
3.33148e-08
-2.49924e-08
4.32614e-08
-3.50932e-08
5.28433e-08
-4.65916e-08
6.18765e-08
-5.93585e-08
7.02282e-08
-7.32636e-08
7.78083e-08
-8.81752e-08
8.45614e-08
-1.03962e-07
9.04602e-08
-1.20493e-07
9.54991e-08
-1.3764e-07
9.96892e-08
-1.55277e-07
1.03054e-07
-1.73286e-07
1.05627e-07
-1.91548e-07
1.07445e-07
-2.09954e-07
1.0855e-07
-2.28399e-07
1.08987e-07
-2.46785e-07
1.08797e-07
-2.65017e-07
1.08024e-07
-2.83008e-07
1.06708e-07
-3.00676e-07
1.04886e-07
-3.17944e-07
1.02592e-07
-3.34739e-07
9.98588e-08
-3.50993e-07
9.6714e-08
-3.66643e-07
9.31829e-08
-3.81626e-07
8.92878e-08
-3.95886e-07
8.50483e-08
-4.09369e-07
8.04816e-08
-4.22021e-07
7.56029e-08
-4.33794e-07
7.04262e-08
-4.4464e-07
6.49639e-08
-4.54515e-07
5.92278e-08
-4.63374e-07
5.32297e-08
-4.71177e-07
4.6981e-08
-4.77885e-07
4.04941e-08
-4.83462e-07
3.37821e-08
-4.87873e-07
2.68594e-08
-4.91089e-07
1.97423e-08
-4.9308e-07
1.24488e-08
-4.93823e-07
4.99936e-09
-4.93296e-07
-2.58292e-09
-4.91484e-07
-1.02722e-08
-4.88375e-07
-1.80397e-08
-4.83962e-07
-2.58533e-08
-4.78246e-07
-3.36777e-08
-4.71231e-07
-4.14743e-08
-4.62932e-07
-4.92012e-08
-4.53367e-07
-5.68132e-08
-4.42565e-07
-6.42619e-08
-4.30562e-07
-7.14961e-08
-4.17402e-07
-7.84619e-08
-4.03139e-07
-8.51032e-08
-3.87837e-07
-9.13618e-08
-3.71567e-07
-9.71784e-08
-3.54413e-07
-1.02493e-07
-3.36464e-07
-1.07244e-07
-3.17823e-07
-1.11373e-07
-2.98598e-07
-1.14821e-07
-2.7891e-07
-1.17531e-07
-2.58883e-07
-1.19451e-07
-2.38652e-07
-1.2053e-07
-2.18357e-07
-1.20726e-07
-1.98143e-07
-1.2e-07
-1.78159e-07
-1.18322e-07
-1.58558e-07
-1.15671e-07
-1.39492e-07
-1.12035e-07
-1.21112e-07
-1.07416e-07
-1.03567e-07
-1.01828e-07
-8.70003e-08
-9.53019e-08
-7.15496e-08
-8.7887e-08
-5.73423e-08
-7.96541e-08
-4.44952e-08
-7.06991e-08
-3.31132e-08
-6.11469e-08
-2.32879e-08
-5.11567e-08
-1.50985e-08
-4.09267e-08
-8.6131e-09
-3.07009e-08
-3.89292e-09
-2.07735e-08
-9.98277e-10
-1.14942e-08
-3.29485e-09
-1.27125e-09
5.36268e-09
-4.85772e-09
1.6957e-08
-1.0564e-08
2.89535e-08
-1.82163e-08
4.09671e-08
-2.76539e-08
5.2699e-08
-3.87239e-08
6.39133e-08
-5.12774e-08
7.443e-08
-6.5168e-08
8.41188e-08
-8.02508e-08
9.2891e-08
-9.6382e-08
1.00693e-07
-1.1342e-07
1.07498e-07
-1.31226e-07
1.13305e-07
-1.49664e-07
1.18127e-07
-1.68603e-07
1.21993e-07
-1.87915e-07
1.24939e-07
-2.0748e-07
1.2701e-07
-2.27182e-07
1.28252e-07
-2.46911e-07
1.28716e-07
-2.66565e-07
1.28451e-07
-2.86044e-07
1.27504e-07
-3.05259e-07
1.25922e-07
-3.24122e-07
1.23748e-07
-3.42552e-07
1.21022e-07
-3.60473e-07
1.1778e-07
-3.77814e-07
1.14055e-07
-3.94507e-07
1.09876e-07
-4.10488e-07
1.05269e-07
-4.25696e-07
1.00256e-07
-4.40073e-07
9.4859e-08
-4.53565e-07
8.9095e-08
-4.66119e-07
8.29803e-08
-4.77686e-07
7.653e-08
-4.88216e-07
6.97581e-08
-4.97664e-07
6.26783e-08
-5.05988e-07
5.53046e-08
-5.13145e-07
4.76515e-08
-5.19098e-07
3.97346e-08
-5.23809e-07
3.1571e-08
-5.27247e-07
2.31798e-08
-5.29381e-07
1.45825e-08
-5.30184e-07
5.80308e-09
-5.29636e-07
-3.13129e-09
-5.27718e-07
-1.21902e-08
-5.24418e-07
-2.13399e-08
-5.19728e-07
-3.05426e-08
-5.13649e-07
-3.9757e-08
-5.06186e-07
-4.89378e-08
-4.97351e-07
-5.80358e-08
-4.87166e-07
-6.69981e-08
-4.7566e-07
-7.5768e-08
-4.62871e-07
-8.42856e-08
-4.48845e-07
-9.24878e-08
-4.33639e-07
-1.00309e-07
-4.1732e-07
-1.07681e-07
-3.99964e-07
-1.14534e-07
-3.81658e-07
-1.20799e-07
-3.62499e-07
-1.26404e-07
-3.42592e-07
-1.3128e-07
-3.22054e-07
-1.35358e-07
-3.01011e-07
-1.38574e-07
-2.79596e-07
-1.40866e-07
-2.57951e-07
-1.42176e-07
-2.36223e-07
-1.42454e-07
-2.14566e-07
-1.41657e-07
-1.93138e-07
-1.3975e-07
-1.721e-07
-1.36709e-07
-1.51611e-07
-1.32523e-07
-1.31834e-07
-1.27193e-07
-1.12926e-07
-1.20736e-07
-9.504e-08
-1.13188e-07
-7.83224e-08
-1.04605e-07
-6.29118e-08
-9.50648e-08
-4.89365e-08
-8.46744e-08
-3.65141e-08
-7.35693e-08
-2.57511e-08
-6.19196e-08
-1.67436e-08
-4.99342e-08
-9.57938e-09
-3.78651e-08
-4.34199e-09
-2.60109e-08
-1.11659e-09
-1.47196e-08
-4.41145e-09
-1.39669e-09
6.75938e-09
-5.32828e-09
2.08885e-08
-1.15675e-08
3.51928e-08
-1.99106e-08
4.93102e-08
-3.01691e-08
6.29576e-08
-4.2166e-08
7.59102e-08
-5.57316e-08
8.79957e-08
-7.0702e-08
9.90892e-08
-8.69172e-08
1.09106e-07
-1.04221e-07
1.17997e-07
-1.22463e-07
1.2574e-07
-1.41493e-07
1.32335e-07
-1.61169e-07
1.37803e-07
-1.81353e-07
1.42177e-07
-2.01912e-07
1.45498e-07
-2.2272e-07
1.47818e-07
-2.43656e-07
1.49189e-07
-2.64607e-07
1.49667e-07
-2.85465e-07
1.49309e-07
-3.06129e-07
1.48168e-07
-3.26504e-07
1.46297e-07
-3.46499e-07
1.43743e-07
-3.6603e-07
1.40554e-07
-3.85018e-07
1.36769e-07
-4.03389e-07
1.32426e-07
-4.21071e-07
1.27558e-07
-4.37998e-07
1.22196e-07
-4.54107e-07
1.16365e-07
-4.69336e-07
1.10088e-07
-4.83629e-07
1.03388e-07
-4.96929e-07
9.62812e-08
-5.09186e-07
8.87865e-08
-5.20348e-07
8.09198e-08
-5.30367e-07
7.26972e-08
-5.39197e-07
6.41349e-08
-5.46795e-07
5.52496e-08
-5.5312e-07
4.60596e-08
-5.58134e-07
3.65848e-08
-5.61801e-07
2.68472e-08
-5.6409e-07
1.68716e-08
-5.64973e-07
6.68603e-09
-5.64426e-07
-3.67835e-09
-5.6243e-07
-1.41864e-08
-5.58971e-07
-2.47989e-08
-5.54041e-07
-3.54725e-08
-5.47639e-07
-4.61594e-08
-5.39769e-07
-5.68073e-08
-5.30446e-07
-6.73594e-08
-5.19689e-07
-7.77546e-08
-5.0753e-07
-8.79276e-08
-4.94006e-07
-9.78091e-08
-4.79167e-07
-1.07326e-07
-4.63073e-07
-1.16403e-07
-4.45791e-07
-1.24962e-07
-4.27403e-07
-1.32922e-07
-4.07999e-07
-1.40203e-07
-3.87681e-07
-1.46722e-07
-3.6656e-07
-1.524e-07
-3.44759e-07
-1.57159e-07
-3.22409e-07
-1.60924e-07
-2.99652e-07
-1.63623e-07
-2.76636e-07
-1.65192e-07
-2.53517e-07
-1.65573e-07
-2.30456e-07
-1.64717e-07
-2.07621e-07
-1.62585e-07
-1.8518e-07
-1.5915e-07
-1.63305e-07
-1.54399e-07
-1.42163e-07
-1.48334e-07
-1.21924e-07
-1.40975e-07
-1.0275e-07
-1.32362e-07
-8.47983e-08
-1.22556e-07
-6.8218e-08
-1.11645e-07
-5.31497e-08
-9.97426e-08
-3.97242e-08
-8.69948e-08
-2.80624e-08
-7.35814e-08
-1.82766e-08
-5.972e-08
-1.04725e-08
-4.56692e-08
-4.75297e-09
-3.17304e-08
-1.22334e-09
-1.82492e-08
-5.6348e-09
-1.51306e-09
8.27244e-09
-5.76757e-09
2.5143e-08
-1.2509e-08
4.19342e-08
-2.15065e-08
5.83076e-08
-3.25466e-08
7.39978e-08
-4.54296e-08
8.87932e-08
-5.99659e-08
1.02532e-07
-7.59739e-08
1.15097e-07
-9.32793e-08
1.26412e-07
-1.11713e-07
1.36431e-07
-1.31113e-07
1.4514e-07
-1.51323e-07
1.52544e-07
-1.7219e-07
1.58671e-07
-1.93572e-07
1.63558e-07
-2.15328e-07
1.67255e-07
-2.37329e-07
1.69818e-07
-2.59448e-07
1.71309e-07
-2.81569e-07
1.71788e-07
-3.0358e-07
1.7132e-07
-3.25376e-07
1.69964e-07
-3.46859e-07
1.67779e-07
-3.67935e-07
1.6482e-07
-3.88519e-07
1.61137e-07
-4.08527e-07
1.56777e-07
-4.27882e-07
1.51781e-07
-4.46511e-07
1.46187e-07
-4.64345e-07
1.4003e-07
-4.81318e-07
1.33338e-07
-4.97367e-07
1.26137e-07
-5.12433e-07
1.18453e-07
-5.26457e-07
1.10305e-07
-5.39384e-07
1.01714e-07
-5.51163e-07
9.26986e-08
-5.61742e-07
8.32767e-08
-5.71075e-07
7.34669e-08
-5.79113e-07
6.32885e-08
-5.85816e-07
5.27621e-08
-5.91142e-07
4.19105e-08
-5.95053e-07
3.07587e-08
-5.97517e-07
1.93351e-08
-5.98502e-07
7.67135e-09
-5.97983e-07
-4.1969e-09
-5.9594e-07
-1.62297e-08
-5.92357e-07
-2.83824e-08
-5.87223e-07
-4.06056e-08
-5.80538e-07
-5.28449e-08
-5.72305e-07
-6.50406e-08
-5.62536e-07
-7.71281e-08
-5.51253e-07
-8.90377e-08
-5.38486e-07
-1.00695e-07
-5.24274e-07
-1.1202e-07
-5.08669e-07
-1.22932e-07
-4.91731e-07
-1.33342e-07
-4.73532e-07
-1.43161e-07
-4.54155e-07
-1.52299e-07
-4.33694e-07
-1.60663e-07
-4.12257e-07
-1.6816e-07
-3.89959e-07
-1.74698e-07
-3.66929e-07
-1.80189e-07
-3.43305e-07
-1.84548e-07
-3.19235e-07
-1.87693e-07
-2.94875e-07
-1.89552e-07
-2.7039e-07
-1.90058e-07
-2.45949e-07
-1.89158e-07
-2.21729e-07
-1.86806e-07
-1.97906e-07
-1.82973e-07
-1.74662e-07
-1.77643e-07
-1.52176e-07
-1.7082e-07
-1.30626e-07
-1.62526e-07
-1.10186e-07
-1.52803e-07
-9.10227e-08
-1.41719e-07
-7.32982e-08
-1.29369e-07
-5.71652e-08
-1.15876e-07
-4.27676e-08
-1.01392e-07
-3.02405e-08
-8.61085e-08
-1.97114e-08
-7.02491e-08
-1.13018e-08
-5.40788e-08
-5.13099e-09
-3.79012e-08
-1.32021e-09
-2.206e-08
-6.95501e-09
-1.62151e-09
9.89396e-09
-6.17924e-09
2.97008e-08
-1.33948e-08
4.91498e-08
-2.30135e-08
6.79262e-08
-3.47988e-08
8.57831e-08
-4.85298e-08
1.02524e-07
-6.39979e-08
1.18e-07
-8.10047e-08
1.32104e-07
-9.9361e-08
1.44768e-07
-1.18886e-07
1.55956e-07
-1.39406e-07
1.65659e-07
-1.60754e-07
1.73893e-07
-1.82773e-07
1.8069e-07
-2.05311e-07
1.86096e-07
-2.28224e-07
1.90167e-07
-2.51375e-07
1.92969e-07
-2.74636e-07
1.94569e-07
-2.97884e-07
1.95037e-07
-3.21005e-07
1.94441e-07
-3.43892e-07
1.9285e-07
-3.66442e-07
1.90329e-07
-3.8856e-07
1.86938e-07
-4.10157e-07
1.82734e-07
-4.31148e-07
1.77768e-07
-4.51453e-07
1.72087e-07
-4.70998e-07
1.65732e-07
-4.89711e-07
1.58742e-07
-5.07523e-07
1.5115e-07
-5.2437e-07
1.42984e-07
-5.4019e-07
1.34273e-07
-5.54923e-07
1.25038e-07
-5.68513e-07
1.15303e-07
-5.80903e-07
1.05089e-07
-5.92042e-07
9.44159e-08
-6.0188e-07
8.33044e-08
-6.10368e-07
7.17762e-08
-6.1746e-07
5.98545e-08
-6.23114e-07
4.75648e-08
-6.27291e-07
3.49352e-08
-6.29953e-07
2.19975e-08
-6.31069e-07
8.78725e-09
-6.3061e-07
-4.65545e-09
-6.28554e-07
-1.82857e-08
-6.24883e-07
-3.20534e-08
-6.19586e-07
-4.59028e-08
-6.12658e-07
-5.97727e-08
-6.04103e-07
-7.35959e-08
-5.93932e-07
-8.72993e-08
-5.82165e-07
-1.00804e-07
-5.68833e-07
-1.14027e-07
-5.53975e-07
-1.26878e-07
-5.37644e-07
-1.39263e-07
-5.19901e-07
-1.51085e-07
-5.0082e-07
-1.62242e-07
-4.80487e-07
-1.72632e-07
-4.59001e-07
-1.82149e-07
-4.36472e-07
-1.90689e-07
-4.13023e-07
-1.98148e-07
-3.88785e-07
-2.04427e-07
-3.63906e-07
-2.09427e-07
-3.38538e-07
-2.1306e-07
-3.12848e-07
-2.15242e-07
-2.87006e-07
-2.159e-07
-2.61194e-07
-2.1497e-07
-2.35594e-07
-2.12405e-07
-2.10396e-07
-2.08171e-07
-1.85789e-07
-2.0225e-07
-1.61965e-07
-1.94644e-07
-1.39112e-07
-1.85379e-07
-1.17414e-07
-1.745e-07
-9.70526e-08
-1.62081e-07
-7.82e-08
-1.48222e-07
-6.10218e-08
-1.33054e-07
-4.56753e-08
-1.16739e-07
-3.23093e-08
-9.94745e-08
-2.10651e-08
-8.14934e-08
-1.20784e-08
-6.30655e-08
-5.48182e-09
-4.44978e-08
-1.409e-09
-2.61329e-08
-8.36402e-09
-1.72322e-09
1.16172e-08
-6.56708e-09
3.45446e-08
-1.42322e-08
5.68149e-08
-2.44422e-08
7.81363e-08
-3.694e-08
9.82809e-08
-5.14846e-08
1.17069e-07
-6.78493e-08
1.34365e-07
-8.58197e-08
1.50074e-07
-1.05192e-07
1.6414e-07
-1.25773e-07
1.76537e-07
-1.47378e-07
1.87265e-07
-1.69832e-07
1.96347e-07
-1.92968e-07
2.03826e-07
-2.16628e-07
2.09756e-07
-2.40663e-07
2.14202e-07
-2.64931e-07
2.17237e-07
-2.89299e-07
2.18937e-07
-3.13641e-07
2.19379e-07
-3.37839e-07
2.1864e-07
-3.61783e-07
2.16794e-07
-3.85368e-07
2.13915e-07
-4.08498e-07
2.10068e-07
-4.3108e-07
2.05316e-07
-4.53028e-07
1.99715e-07
-4.74259e-07
1.93318e-07
-4.94698e-07
1.86171e-07
-5.1427e-07
1.78315e-07
-5.32907e-07
1.69786e-07
-5.5054e-07
1.60618e-07
-5.67106e-07
1.50839e-07
-5.82544e-07
1.40476e-07
-5.96794e-07
1.29554e-07
-6.09799e-07
1.18095e-07
-6.21506e-07
1.06122e-07
-6.3186e-07
9.36589e-08
-6.40812e-07
8.07283e-08
-6.48314e-07
6.73563e-08
-6.54321e-07
5.3571e-08
-6.58789e-07
3.94036e-08
-6.6168e-07
2.48891e-08
-6.6296e-07
1.00671e-08
-6.62598e-07
-5.01798e-09
-6.60567e-07
-2.03162e-08
-6.56849e-07
-3.57718e-08
-6.51429e-07
-5.13227e-08
-6.44301e-07
-6.69007e-08
-6.35466e-07
-8.24306e-08
-6.24935e-07
-9.78309e-08
-6.12726e-07