/*--------------------------------*- C++ -*----------------------------------*\
  =========                 |
  \\      /  F ield         | OpenFOAM: The Open Source CFD Toolbox
   \\    /   O peration     | Website:  https://openfoam.org
    \\  /    A nd           | Version:  7
     \\/     M anipulation  |
\*---------------------------------------------------------------------------*/
FoamFile
{
    version     2.0;
    format      ascii;
    class       volScalarField;
    location    "1";
    object      p;
}
// * * * * * * * * * * * * * * * * * * * * * * * * * * * * * * * * * * * * * //

dimensions      [0 2 -2 0 0 0 0];

internalField   nonuniform List<scalar> 
6400
(
4.54831e-06
4.21845e-06
-0.00010805
-0.000327712
-0.000628155
-0.000985514
-0.00137867
-0.00178931
-0.00220204
-0.00260423
-0.00298557
-0.00333772
-0.00365401
-0.00392913
-0.00415897
-0.00434037
-0.00447098
-0.00454913
-0.00457373
-0.00454413
-0.00446011
-0.00432179
-0.00412955
-0.00388406
-0.0035862
-0.00323708
-0.00283799
-0.00239046
-0.00189618
-0.00135706
-0.000775219
-0.000153
0.000507032
0.00120207
0.00192907
0.00268472
0.00346547
0.00426751
0.00508678
0.00591898
0.00675957
0.0076038
0.00844674
0.0092833
0.0101082
0.0109163
0.011702
0.0124601
0.0131853
0.0138725
0.0145165
0.0151127
0.0156567
0.0161442
0.0165719
0.0169364
0.0172352
0.0174664
0.0176287
0.0177216
0.0177454
0.017701
0.0175905
0.0174166
0.0171832
0.0168948
0.0165573
0.0161773
0.0157625
0.0153219
0.0148655
0.0144046
0.0139519
0.0135214
0.0131289
0.0127911
0.0125257
0.0123499
0.0122791
0.0123027
1.11285e-05
8.24338e-06
-9.15708e-05
-0.000278102
-0.000529769
-0.000829493
-0.00116122
-0.00151016
-0.00186327
-0.00220942
-0.00253925
-0.00284497
-0.0031202
-0.00335977
-0.00355953
-0.00371624
-0.00382741
-0.00389121
-0.00390634
-0.00387198
-0.00378769
-0.00365341
-0.00346936
-0.003236
-0.00295408
-0.00262454
-0.00224854
-0.00182745
-0.00136284
-0.000856474
-0.000310341
0.000273364
0.000892225
0.0015436
0.00222461
0.00293214
0.00366286
0.00441317
0.00517927
0.00595713
0.0067425
0.00753096
0.00831791
0.00909861
0.00986823
0.0106218
0.0113545
0.0120613
0.0127374
0.013378
0.0139785
0.0145347
0.0150426
0.0154984
0.0158989
0.0162413
0.0165233
0.0167434
0.0169004
0.0169941
0.0170248
0.0169936
0.0169025
0.0167544
0.0165526
0.0163019
0.0160076
0.0156759
0.0153141
0.0149305
0.0145341
0.0141353
0.0137451
0.0133757
0.0130402
0.0127521
0.0125243
0.0123692
0.0123022
0.0123262
0.000124776
0.000108405
8.08916e-06
-0.000164077
-0.000389989
-0.000656109
-0.000949589
-0.00125817
-0.00157079
-0.00187773
-0.00217063
-0.00244241
-0.00268711
-0.00289986
-0.00307667
-0.00321436
-0.00331043
-0.00336302
-0.00337074
-0.00333267
-0.00324827
-0.00311736
-0.00294002
-0.00271661
-0.00244775
-0.00213426
-0.00177717
-0.00137773
-0.000937393
-0.000457807
5.91723e-05
0.000611482
0.00119684
0.00181276
0.00245652
0.00312518
0.00381557
0.00452431
0.0052478
0.00598222
0.0067236
0.00746774
0.00821032
0.0089469
0.00967292
0.0103838
0.0110748
0.0117415
0.0123792
0.0129836
0.0135504
0.0140756
0.0145555
0.0149867
0.0153662
0.0156915
0.0159606
0.0161719
0.0163246
0.0164186
0.0164542
0.0164326
0.0163558
0.0162264
0.0160479
0.0158246
0.0155617
0.0152649
0.0149411
0.0145979
0.0142436
0.0138874
0.0135393
0.01321
0.0129105
0.0126522
0.0124457
0.0123012
0.0122348
0.012256
0.00034565
0.000295675
0.000179502
6.15435e-06
-0.000211227
-0.000461339
-0.000733427
-0.00101725
-0.00130342
-0.00158355
-0.00185031
-0.00209736
-0.00231934
-0.00251175
-0.0026709
-0.00279379
-0.00287803
-0.00292179
-0.00292372
-0.00288286
-0.00279865
-0.00267081
-0.00249936
-0.00228458
-0.00202699
-0.0017273
-0.00138646
-0.00100559
-0.000586051
-0.000129358
0.000362748
0.000888333
0.00144525
0.00203115
0.00264346
0.00327939
0.00393595
0.00460993
0.00529792
0.0059963
0.00670128
0.0074089
0.00811507
0.00881554
0.00950603
0.0101822
0.0108395
0.0114738
0.0120807
0.012656
0.0131958
0.0136962
0.0141538
0.0145654
0.0149282
0.0152398
0.0154984
0.0157026
0.0158517
0.0159455
0.0159844
0.0159697
0.0159032
0.0157876
0.0156261
0.0154228
0.0151825
0.0149107
0.0146138
0.0142988
0.0139733
0.0136457
0.0133248
0.01302
0.0127411
0.0124979
0.0122996
0.0121553
0.0120795
0.0120821
0.000649723
0.00054975
0.000405517
0.000220451
1.07941e-06
-0.000243276
-0.00050361
-0.000771525
-0.0010392
-0.00129955
-0.00154624
-0.00177377
-0.00197741
-0.00215313
-0.00229761
-0.00240808
-0.00248237
-0.00251874
-0.00251592
-0.00247296
-0.0023893
-0.00226464
-0.00209895
-0.00189244
-0.00164555
-0.00135891
-0.00103337
-0.000669958
-0.000269901
0.000165385
0.000634287
0.001135
0.00166551
0.00222361
0.00280688
0.00341269
0.00403821
0.0046804
0.00533601
0.00600163
0.00667365
0.00734831
0.00802171
0.00868982
0.00934855
0.00999374
0.0106212
0.0112268
0.0118065
0.0123563
0.0128723
0.013351
0.0137891
0.0141836
0.0145317
0.0148314
0.0150807
0.0152785
0.0154241
0.0155174
0.0155587
0.0155493
0.015491
0.0153863
0.0152382
0.0150506
0.0148281
0.0145759
0.0142996
0.0140059
0.0137017
0.0133944
0.0130922
0.0128031
0.0125357
0.0122985
0.0120995
0.011947
0.0118513
0.0118193
0.00101488
0.000854707
0.000673476
0.000468289
0.000238357
-8.73816e-06
-0.000265478
-0.000525131
-0.000781336
-0.0010282
-0.00126042
-0.00147331
-0.00166279
-0.00182538
-0.00195813
-0.00205863
-0.0021249
-0.0021554
-0.00214894
-0.00210466
-0.00202202
-0.00190072
-0.00174071
-0.00154215
-0.00130543
-0.00103109
-0.000719901
-0.000372792
9.11667e-06
0.000424524
0.00087194
0.00134969
0.00185589
0.00238849
0.0029452
0.00352355
0.00412086
0.00473427
0.00536069
0.00599688
0.0066394
0.00728468
0.00792898
0.00856846
0.00919922
0.00981726
0.0104186
0.0109992
0.0115553
0.0120829
0.0125785
0.0130385
0.0134598
0.0138396
0.0141752
0.0144645
0.0147059
0.0148981
0.0150405
0.0151329
0.0151758
0.0151704
0.0151182
0.0150216
0.0148837
0.014708
0.0144987
0.0142607
0.0139994
0.0137206
0.0134308
0.0131366
0.0128452
0.0125639
0.0123
0.0120608
0.0118535
0.0116851
0.0115611
0.0114837
0.0014216
0.00119558
0.000971281
0.00073949
0.000492078
0.000235175
-2.49311e-05
-0.00028299
-0.000533963
-0.000773079
-0.000995991
-0.00119882
-0.00137814
-0.00153104
-0.001655
-0.00174794
-0.00180818
-0.00183435
-0.00182544
-0.00178068
-0.00169957
-0.00158186
-0.00142749
-0.00123659
-0.0010095
-0.00074671
-0.000448897
-0.000116905
0.000248249
0.000645374
0.0010731
0.00152988
0.00201398
0.00252345
0.00305618
0.00360984
0.0041819
0.00476964
0.00537014
0.00598032
0.0065969
0.00721645
0.00783541
0.00845008
0.00905671
0.00965145
0.0102304
0.0107899
0.0113259
0.0118349
0.0123133
0.0127577
0.0131651
0.0135327
0.0138579
0.0141387
0.0143734
0.0145608
0.0147003
0.0147917
0.0148355
0.0148326
0.0147846
0.0146938
0.014563
0.0143954
0.0141951
0.0139666
0.0137147
0.013445
0.0131631
0.0128753
0.0125879
0.0123072
0.0120396
0.0117915
0.0115691
0.0113787
0.01122
0.0110903
0.0018529
0.00155837
0.00128718
0.00102413
0.000754015
0.000481795
0.000212753
-4.91672e-05
-0.000300113
-0.000536344
-0.000754405
-0.000951186
-0.00112393
-0.00127025
-0.00138809
-0.00147575
-0.00153182
-0.00155519
-0.00154499
-0.00150058
-0.00142157
-0.00130772
-0.00115901
-0.000975545
-0.000757633
-0.000505714
-0.000220391
9.75764e-05
0.00044727
0.000827608
0.00123734
0.00167503
0.00213909
0.0026277
0.0031389
0.00367048
0.00422007
0.0047851
0.0053628
0.00595021
0.0065442
0.0071415
0.00773866
0.00833212
0.00891826
0.00949333
0.0100536
0.0105954
0.0111149
0.0116085
0.0120729
0.0125047
0.0129009
0.0132586
0.0135755
0.0138494
0.0140788
0.0142624
0.0143995
0.0144898
0.0145339
0.0145325
0.0144872
0.0143999
0.0142734
0.0141108
0.0139157
0.0136923
0.0134451
0.0131792
0.0128999
0.0126126
0.0123231
0.0120369
0.0117597
0.0114968
0.0112539
0.0110364
0.0108386
0.0106529
0.00229424
0.00193052
0.00161028
0.00131279
0.00101617
0.000724446
0.000442101
0.000171935
-8.32592e-05
-0.000320672
-0.000537677
-0.000731891
-0.000901186
-0.00104371
-0.00115786
-0.00124231
-0.00129596
-0.00131794
-0.00130757
-0.00126436
-0.001188
-0.00107833
-0.000935331
-0.000759141
-0.000550022
-0.000308374
-3.47364e-05
0.000270213
0.000605649
0.000970593
0.00136391
0.00178429
0.00223026
0.00270015
0.00319211
0.0037041
0.00423387
0.00477899
0.00533681
0.00590452
0.00647912
0.00705744
0.00763617
0.00821185
0.00878094
0.00933982
0.00988482
0.0104123
0.0109186
0.0114001
0.0118535
0.0122754
0.012663
0.0130133
0.0133239
0.0135927
0.0138181
0.0139988
0.014134
0.0142235
0.0142675
0.0142668
0.0142227
0.0141373
0.0140128
0.0138523
0.0136591
0.0134371
0.0131906
0.0129241
0.0126424
0.0123507
0.0120538
0.011757
0.0114651
0.0111826
0.0109148
0.0106666
0.0104267
0.0101831
0.00273335
0.00230091
0.00193064
0.00159667
0.00127087
0.000956529
0.000657506
0.000375608
0.000112688
-0.000129282
-0.000348435
-0.000543065
-0.00071164
-0.000852821
-0.00096546
-0.00104859
-0.00110143
-0.00112335
-0.00111387
-0.00107266
-0.000999508
-0.000894331
-0.000757152
-0.000588108
-0.000387448
-0.000155532
0.00010716
0.000400025
0.000722327
0.00107319
0.00145159
0.00185633
0.00228607
0.00273927
0.00321421
0.00370896
0.00422143
0.0047493
0.00529006
0.00584101
0.00639926
0.00696175
0.00752526
0.00808644
0.00864181
0.00918782
0.00972085
0.0102373
0.0107335
0.011206
0.0116514
0.0120663
0.0124478
0.0127929
0.0130994
0.0133649
0.0135877
0.0137666
0.0139007
0.0139895
0.0140333
0.0140328
0.013989
0.0139039
0.0137795
0.0136187
0.0134246
0.0132009
0.0129513
0.0126803
0.0123922
0.0120916
0.0117831
0.0114713
0.0111604
0.0108544
0.0105583
0.0102764
0.0099927
0.00969062
0.0031597
0.00265973
0.00223927
0.00186764
0.00151084
0.00117164
0.000853386
0.000557033
0.000283601
3.43112e-05
-0.000189661
-0.000387236
-0.000557441
-0.000699429
-0.000812476
-0.000895982
-0.000949462
-0.000972544
-0.000964951
-0.000926503
-0.000857104
-0.000756746
-0.000625496
-0.000463507
-0.000271014
-4.83422e-05
0.000204082
0.000485729
0.000795949
0.00113396
0.00149886
0.00188956
0.00230483
0.00274326
0.00320327
0.00368305
0.00418062
0.0046938
0.00522018
0.00575718
0.006302
0.00685168
0.00740308
0.00795292
0.00849776
0.00903412
0.00955839
0.010067
0.0105563
0.0110228
0.011463
0.0118737
0.0122516
0.0125941
0.0128985
0.0131625
0.0133844
0.0135627
0.0136964
0.0137851
0.0138289
0.0138281
0.0137839
0.0136979
0.0135721
0.013409
0.0132117
0.0129834
0.0127278
0.0124489
0.0121508
0.0118377
0.0115138
0.0111832
0.0108498
0.0105171
0.0101899
0.00987233
0.00954359
0.0091832
0.00356422
0.00299829
0.00252799
0.00211815
0.00172923
0.00136361
0.00102425
0.000711358
0.000425222
0.000166387
-6.45991e-05
-0.000267235
-0.000441068
-0.000585713
-0.000700851
-0.00078623
-0.000841662
-0.000867019
-0.000862223
-0.000827248
-0.000762114
-0.000666892
-0.000541695
-0.000386693
-0.000202111
1.17569e-05
0.000254538
0.00052577
0.00082489
0.00115122
0.00150394
0.00188209
0.00228457
0.00271007
0.00315714
0.00362409
0.00410907
0.00460999
0.00512458
0.00565032
0.00618453
0.00672431
0.00726658
0.00780813
0.00834556
0.00887539
0.00939404
0.00989791
0.0103834
0.0108468
0.0112848
0.011694
0.0120711
0.0124132
0.0127177
0.0129822
0.0132048
0.0133839
0.0135184
0.0136077
0.0136516
0.0136506
0.0136056
0.0135179
0.0133894
0.0132224
0.0130199
0.0127847
0.0125205
0.0122309
0.0119197
0.0115909
0.0112484
0.010896
0.0105372
0.0101751
0.00981458
0.00945973
0.00908529
0.00866709
0.00393892
0.0033088
0.00278938
0.00234123
0.00191958
0.00152652
0.00116472
0.000833746
0.000533216
0.000263073
2.3295e-05
-0.000186147
-0.000365283
-0.000514162
-0.000632845
-0.000721411
-0.000779954
-0.000808583
-0.000807411
-0.000776564
-0.000716176
-0.000626392
-0.000507375
-0.000359311
-0.000182416
2.30464e-05
0.000256755
0.000518318
0.000807252
0.00112297
0.00146477
0.00183179
0.00222305
0.00263737
0.00307339
0.00352957
0.00400415
0.00449516
0.00500041
0.00551749
0.00604379
0.00657648
0.00711253
0.00764875
0.00818179
0.00870816
0.00922428
0.00972649
0.0102111
0.0106746
0.0111132
0.0115237
0.0119026
0.0122469
0.0125538
0.0128209
0.013046
0.0132274
0.0133639
0.0134547
0.0134994
0.0134984
0.0134523
0.0133624
0.0132304
0.0130584
0.012849
0.0126051
0.0123301
0.0120273
0.0117005
0.0113533
0.0109895
0.0106126
0.0102258
0.00983221
0.00943661
0.00904323
0.00862267
0.00814727
0.00427671
0.00358423
0.00301663
0.00253039
0.0020758
0.0016547
0.00126959
0.000919409
0.000603214
0.000320395
7.04101e-05
-0.000147257
-0.000333085
-0.000487524
-0.000610993
-0.000703883
-0.000766555
-0.00079934
-0.000802537
-0.000776414
-0.000721213
-0.000637155
-0.000524445
-0.000383284
-0.00021388
-1.64644e-05
0.000208694
0.000461271
0.000740867
0.00104699
0.00137903
0.00173626
0.00211779
0.00252256
0.00294935
0.0033967
0.00386298
0.00434631
0.0048446
0.00535552
0.00587653
0.00640484
0.00693749
0.00747129
0.00800291
0.00852883
0.00904544
0.00954906
0.0100359
0.0105024
0.0109446
0.0113592
0.0117426
0.0120917
0.0124035
0.0126753
0.0129049
0.0130904
0.0132303
0.0133238
0.0133702
0.0133697
0.0133227
0.0132304
0.0130943
0.0129163
0.0126989
0.0124448
0.0121572
0.0118393
0.0114947
0.0111268
0.0107393
0.0103357
0.00991888
0.00949184
0.00905964
0.00862671
0.0081597
0.00762762
0.00457118
0.00381819
0.00320347
0.0026796
0.00219213
0.00174274
0.00133376
0.000963627
0.000630847
0.000334318
7.30211e-05
-0.000154008
-0.00034766
-0.000508761
-0.000638065
-0.000736252
-0.000803936
-0.000841656
-0.000849884
-0.000829023
-0.000779415
-0.00070135
-0.000595073
-0.000460795
-0.000298713
-0.000109024
0.000108056
0.000352273
0.000623311
0.000920772
0.00124415
0.00159283
0.00196603
0.00236282
0.00278207
0.00322245
0.00368242
0.00416022
0.00465382
0.00516099
0.00567924
0.00620583
0.00673782
0.00727204
0.00780514
0.00833359
0.00885373
0.00936179
0.00985396
0.0103264
0.0107753
0.0111969
0.0115877
0.0119442
0.0122634
0.0125424
0.0127787
0.0129702
0.0131153
0.0132128
0.013262
0.0132627
0.0132154
0.0131209
0.0129804
0.0127959
0.0125697
0.0123042
0.0120026
0.0116679
0.0113036
0.0109132
0.0105001
0.0100677
0.00961905
0.00915696
0.00868685
0.00821342
0.00769959
0.00711118
0.00481647
0.00400478
0.00334406
0.00278318
0.00226312
0.00178543
0.00135233
0.000961765
0.000611766
0.000300771
2.73223e-05
-0.000209959
-0.000412347
-0.000581015
-0.000717027
-0.000821338
-0.000894794
-0.000938129
-0.000951975
-0.000936858
-0.000893215
-0.000821394
-0.000721674
-0.000594273
-0.000439371
-0.000257129
-4.7704e-05
0.000188719
0.000451912
0.000741572
0.0010573
0.00139859
0.00176477
0.00215503
0.00256835
0.00300352
0.0034591
0.0039334
0.00442451
0.00493025
0.00544819
0.00597563
0.00650964
0.00704707
0.00758453
0.00811847
0.00864515
0.00916072
0.00966126
0.0101428
0.0106013
0.0110331
0.0114342
0.011801
0.0121304
0.0124191
0.0126645
0.0128642
0.0130164
0.0131196
0.013173
0.0131761
0.0131291
0.0130328
0.0128882
0.012697
0.0124613
0.0121837
0.011867
0.0115142
0.0111288
0.0107142
0.0102737
0.00981092
0.00932879
0.0088302
0.00832093
0.00780611
0.007245
0.00660029
0.00500715
0.00413849
0.00343296
0.00283579
0.00228357
0.00177778
0.00132051
0.000909273
0.000541656
0.000215672
-7.05447e-05
-0.000318759
-0.000530602
-0.000707569
-0.000851013
-0.000962143
-0.00104202
-0.00109156
-0.00111154
-0.0011026
-0.00106526
-0.000999925
-0.000906889
-0.000786376
-0.000638543
-0.000463507
-0.000261368
-3.22339e-05
0.000223755
0.000506396
0.000815401
0.00115037
0.00151075
0.00189584
0.00230475
0.00273636
0.00318935
0.00366212
0.00415283
0.00465938
0.00517937
0.00571017
0.00624884
0.00679222
0.0073369
0.00787927
0.00841552
0.00894169
0.00945374
0.00994753
0.0104189
0.0108639
0.0112784
0.0116586
0.012001
0.0123022
0.0125593
0.0127697
0.0129311
0.0130421
0.0131013
0.0131082
0.0130628
0.0129653
0.012817
0.0126192
0.012374
0.0120837
0.0117512
0.0113794
0.0109716
0.0105314
0.0100622
0.00956744
0.00905036
0.00851389
0.00796428
0.0074071
0.00679806
0.00609678
0.00513812
0.00421419
0.00346502
0.00283235
0.00224854
0.00171497
0.00123365
0.000801693
0.000416251
7.49461e-05
-0.000224471
-0.000484123
-0.000705975
-0.000891824
-0.00104329
-0.00116182
-0.00124868
-0.00130493
-0.00133151
-0.00132914
-0.00129842
-0.00123979
-0.00115357
-0.00103997
-0.00089913
-0.000731107
-0.00053594
-0.000313656
-6.43024e-05
0.000212021
0.000515137
0.000844758
0.00120046
0.00158165
0.00198755
0.00241717
0.00286927
0.00334236
0.00383468
0.00434418
0.00486854
0.00540513
0.00595104
0.00650309
0.00705782
0.00761156
0.00816042
0.00870033
0.00922707
0.00973637
0.0102239
0.0106853
0.0111165
0.0115133
0.0118719
0.0121886
0.0124603
0.012684
0.0128573
0.0129782
0.0130453
0.0130577
0.0130151
0.0129178
0.0127665
0.0125626
0.012308
0.0120049
0.011656
0.0112644
0.0108334
0.0103665
0.00986719
0.00933922
0.00878583
0.00821017
0.007619
0.00701841
0.00636058
0.00560207
0.00520456
0.00422696
0.00343535
0.00276802
0.00215326
0.00159235
0.00108725
0.000634656
0.000231336
-0.000125468
-0.000438362
-0.00070981
-0.000942088
-0.00113728
-0.00129725
-0.00142366
-0.00151796
-0.00158138
-0.00161496
-0.00161952
-0.00159571
-0.00154401
-0.00146475
-0.00135813
-0.00122424
-0.00106308
-0.000874631
-0.000658827
-0.00041562
-0.000145
0.00015297
0.000478123
0.000830158
0.00120861
0.00161281
0.00204188
0.00249469
0.00296986
0.00346569
0.00398023
0.00451117
0.00505593
0.00561161
0.00617499
0.0067426
0.00731066
0.0078752
0.00843201
0.00897672
0.00950487
0.0100119
0.0104933
0.0109446
0.0113613
0.0117395
0.012075
0.0123644
0.0126044
0.0127923
0.0129258
0.0130031
0.0130231
0.0129852
0.0128894
0.0127363
0.0125271
0.0122635
0.0119477
0.0115824
0.0111705
0.0107156
0.010221
0.0096906
0.00912817
0.00853718
0.00792102
0.00728701
0.00664184
0.00593411
0.00511731
0.00520185
0.00417216
0.00333927
0.00263817
0.00199315
0.00140544
0.000876903
0.000403883
-1.72482e-05
-0.000389601
-0.000716125
-0.000999604
-0.00124261
-0.00144749
-0.00161634
-0.00175104
-0.00185319
-0.00192418
-0.00196512
-0.00197694
-0.00196033
-0.00191579
-0.00184365
-0.00174409
-0.00161714
-0.00146276
-0.00128084
-0.00107123
-0.000833762
-0.000568324
-0.000274856
4.66017e-05
0.000395875
0.000772625
0.00117631
0.00160618
0.0020612
0.00254009
0.00304126
0.00356279
0.00410247
0.00465771
0.00522563
0.00580299
0.00638626
0.00697161
0.00755492
0.00813186
0.0086979
0.00924835
0.00977845
0.0102834
0.0107584
0.0111987
0.0116
0.0119579
0.0122684
0.0125281
0.0127337
0.0128827
0.0129729
0.013003
0.0129719
0.0128795
0.0127261
0.0125127
0.012241
0.0119129
0.0115312
0.011099
0.0106195
0.0100966
0.00953415
0.00893615
0.00830631
0.00764833
0.00697014
0.00627903
0.00552004
0.00464346
0.00512556
0.00404529
0.00317229
0.00243831
0.00176379
0.00114986
0.000598334
0.000105181
-0.000333595
-0.000721447
-0.00106165
-0.0013573
-0.00161124
-0.00182607
-0.00200412
-0.00214744
-0.00225779
-0.00233668
-0.00238534
-0.00240473
-0.0023956
-0.00235846
-0.00229362
-0.00220123
-0.00208129
-0.00193366
-0.00175815
-0.00155451
-0.00132248
-0.0010618
-0.000772296
-0.000453874
-0.000106573
0.000269402
0.000673646
0.00110552
0.00156413
0.00204829
0.00255649
0.0030869
0.00363736
0.00420532
0.0047879
0.00538184
0.00598357
0.00658915
0.00719436
0.00779473
0.00838553
0.00896186
0.00951868
0.0100509
0.0105534
0.0110213
0.0114495
0.0118336
0.0121691
0.012452
0.0126789
0.0128467
0.0129529
0.0129958
0.0129741
0.0128873
0.0127355
0.0125195
0.0122407
0.0119012
0.0115036
0.011051
0.0105468
0.00999503
0.00939968
0.00876505
0.00809516
0.00739398
0.00667014
0.00593159
0.00511967
0.00418143
0.00497139
0.00384203
0.00293008
0.00216414
0.00146089
0.00082139
0.000247366
-0.000265556
-0.000721735
-0.00112496
-0.00147881
-0.00178668
-0.0020517
-0.00227668
-0.00246417
-0.00261638
-0.00273524
-0.00282236
-0.00287904
-0.00290631
-0.00290495
-0.00287546
-0.00281814
-0.00273309
-0.00262025
-0.00247941
-0.00231028
-0.00211249
-0.00188567
-0.00162944
-0.00134348
-0.00102756
-0.000681565
-0.000305568
0.00010017
0.000535147
0.000998587
0.00148942
0.00200624
0.00254731
0.00311051
0.00369335
0.00429294
0.00490603
0.00552896
0.00615774
0.00678803
0.00741517
0.00803425
0.00864014
0.00922753
0.00979101
0.0103252
0.0108246
0.011284
0.0116983
0.0120628
0.0123731
0.0126251
0.0128154
0.0129412
0.0130002
0.0129908
0.0129122
0.0127642
0.0125474
0.0122632
0.0119134
0.0115006
0.0110279
0.0104991
0.00991798
0.00928906
0.00861686
0.00790569
0.0071599
0.00638883
0.00560115
0.00473435
0.00373213
0.00473519
0.00355819
0.00260844
0.00181147
0.0010803
0.000415897
-0.000180077
-0.000712349
-0.00118563
-0.00160403
-0.00197144
-0.00229154
-0.00256769
-0.00280296
-0.00300008
-0.00316144
-0.00328908
-0.00338471
-0.00344973
-0.00348519
-0.00349189
-0.00347033
-0.00342078
-0.00334329
-0.00323771
-0.00310377
-0.00294106
-0.00274911
-0.00252739
-0.00227541
-0.00199269
-0.00167886
-0.00133365
-0.000956971
-0.000548941
-0.000109917
0.000359465
0.000858256
0.00138517
0.00193854
0.00251634
0.00311612
0.00373501
0.00436974
0.00501662
0.00567156
0.0063301
0.00698742
0.0076384
0.00827766
0.0088996
0.00949848
0.0100685
0.0106039
0.0110989
0.0115481
0.011946
0.012288
0.0125694
0.0127864
0.0129357
0.0130144
0.0130207
0.0129534
0.012812
0.0125968
0.0123089
0.0119503
0.0115233
0.0110313
0.0104779
0.00986738
0.00920433
0.00849366
0.00774001
0.00694813
0.00612813
0.00528941
0.0043655
0.00329654
0.0044129
0.00318971
0.00220331
0.00137624
0.000617965
-7.06293e-05
-0.000687974
-0.00123914
-0.00172917
-0.00216251
-0.00254333
-0.0028756
-0.00316292
-0.00340858
-0.00361549
-0.0037862
-0.00392287
-0.00402731
-0.00410095
-0.00414492
-0.00416
-0.00414668
-0.0041052
-0.00403552
-0.00393745
-0.0038106
-0.00365444
-0.00346839
-0.00325179
-0.00300398
-0.00272433
-0.00241232
-0.0020675
-0.00168964
-0.00127867
-0.000834807
-0.000358525
0.000149359
0.00068768
0.00125489
0.00184903
0.0024677
0.00310809
0.00376691
0.00444042
0.00512446
0.00581445
0.0065054
0.00719198
0.00786854
0.00852919
0.00916783
0.00977826
0.0103543
0.0108896
0.0113784
0.0118147
0.0121932
0.0125088
0.0127571
0.0129341
0.0130368
0.0130628
0.0130103
0.0128785
0.0126677
0.0123786
0.0120129
0.0115732
0.0110627
0.0104853
0.00984529
0.00914769
0.00839771
0.00760038
0.00676087
0.0058901
0.00499826
0.00401468
0.00287582
0.00400056
0.00273263
0.00171073
0.000854506
6.99665e-05
-0.000642098
-0.00128021
-0.00184977
-0.00235618
-0.00280417
-0.00319823
-0.00354257
-0.00384106
-0.00409717
-0.00431401
-0.00449425
-0.00464018
-0.00475369
-0.00483628
-0.00488908
-0.00491288
-0.00490815
-0.00487506
-0.00481354
-0.00472327
-0.00460378
-0.00445442
-0.00427445
-0.00406308
-0.00381949
-0.0035429
-0.00323257
-0.00288793
-0.00250852
-0.00209414
-0.0016448
-0.00116082
-0.000642873
-9.19728e-05
0.000490447
0.00110253
0.00174195
0.00240593
0.00309119
0.00379398
0.00451004
0.00523469
0.00596276
0.00668871
0.00740662
0.00811028
0.00879322
0.00944881
0.0100704
0.0106512
0.0111848
0.0116647
0.0120849
0.0124399
0.0127245
0.0129343
0.0130657
0.0131156
0.013082
0.0129636
0.0127603
0.0124727
0.0121024
0.0116517
0.011124
0.0105232
0.00985396
0.00912153
0.0083315
0.00748931
0.00660056
0.00567705
0.0047298
0.00368371
0.00247134
0.00349434
0.0021831
0.00112686
0.000242434
-0.00056752
-0.00130232
-0.00196057
-0.00254801
-0.00307039
-0.00353273
-0.00393982
-0.00429611
-0.00460572
-0.00487233
-0.00509919
-0.00528914
-0.00544457
-0.00556743
-0.00565927
-0.00572124
-0.00575413
-0.00575836
-0.00573406
-0.00568108
-0.005599
-0.00548723
-0.00534499
-0.00517141
-0.00496552
-0.00472634
-0.0044529
-0.00414431
-0.00379976
-0.00341864
-0.00300053
-0.00254526
-0.00205298
-0.00152416
-0.000959683
-0.000360836
0.000270639
0.000932517
0.00162207
0.00233604
0.00307066
0.00382163
0.00458412
0.00535283
0.00612199
0.0068854
0.00763652
0.00836849
0.00907425
0.00974661
0.0103783
0.0109622
0.0114914
0.0119591
0.0123591
0.0126857
0.0129338
0.013099
0.0131778
0.0131677
0.013067
0.012875
0.0125922
0.0122198
0.0117603
0.011217
0.0105939
0.00989589
0.00912852
0.00829779
0.00740956
0.00646993
0.00549159
0.00448644
0.00337471
0.00208482
0.0028905
0.0015374
0.00044797
-0.000463698
-0.00129821
-0.00205499
-0.00273274
-0.00333754
-0.00387545
-0.00435182
-0.0047717
-0.00513981
-0.00546048
-0.00573759
-0.00597458
-0.0061744
-0.00633953
-0.00647201
-0.00657342
-0.00664493
-0.00668729
-0.00670092
-0.00668585
-0.00664185
-0.00656842
-0.00646482
-0.00633015
-0.00616336
-0.00596333
-0.00572889
-0.00545888
-0.00515221
-0.00480787
-0.00442503
-0.00400306
-0.0035416
-0.00304058
-0.0025003
-0.00192143
-0.00130512
-0.000652967
3.29142e-05
0.000749875
0.00149471
0.00226363
0.0030523
0.00385581
0.00466867
0.00548492
0.00629808
0.00710125
0.00788719
0.00864835
0.00937701
0.0100654
0.0107056
0.0112901
0.0118115
0.0122627
0.0126374
0.0129298
0.0131347
0.0132481
0.0132667
0.0131883
0.013012
0.0127377
0.0123666
0.011901
0.011344
0.0106999
0.00997385
0.00917163
0.00829966
0.00736426
0.00637205
0.00533667
0.00427096
0.00309016
0.00171831
0.00218538
0.000791893
-0.000329554
-0.00126751
-0.00212571
-0.00290371
-0.00360032
-0.00422193
-0.00477494
-0.00526499
-0.0056974
-0.00607716
-0.00640881
-0.00669644
-0.00694362
-0.00715344
-0.00732849
-0.00747086
-0.00758217
-0.00766359
-0.00771586
-0.00773934
-0.00773399
-0.0076995
-0.00763524
-0.00754036
-0.00741379
-0.00725433
-0.00706066
-0.00683144
-0.00656529
-0.0062609
-0.00591705
-0.00553268
-0.00510694
-0.00463922
-0.00412924
-0.00357709
-0.00298323
-0.00234862
-0.0016747
-0.000963439
-0.000217392
0.000560302
0.00136589
0.00219499
0.00304261
0.00390313
0.00477037
0.00563759
0.00649753
0.00734253
0.00816456
0.00895533
0.00970641
0.0104093
0.0110557
0.0116374
0.0121467
0.0125762
0.0129195
0.0131706
0.0133247
0.0133779
0.0133274
0.0131717
0.0129104
0.0125443
0.0120755
0.0115074
0.0108441
0.0100909
0.00925415
0.00834055
0.00735692
0.0063104
0.00521568
0.00408657
0.00283298
0.00137432
0.00137548
-5.69292e-05
-0.00120922
-0.00217249
-0.00305354
-0.003852
-0.0045668
-0.00520467
-0.00577232
-0.00627569
-0.00672036
-0.00711158
-0.00745412
-0.00775223
-0.00800967
-0.00822963
-0.0084148
-0.00856732
-0.00868886
-0.00878058
-0.0088432
-0.00887702
-0.00888194
-0.00885753
-0.00880305
-0.00871751
-0.00859968
-0.0084482
-0.00826154
-0.00803815
-0.00777645
-0.00747488
-0.00713199
-0.00674648
-0.00631724
-0.00584342
-0.00532448
-0.00476027
-0.00415104
-0.00349752
-0.00280095
-0.00206314
-0.00128652
-0.000474129
0.000370325
0.00124246
0.00213722
0.00304886
0.003971
0.00489663
0.00581815
0.00672746
0.00761603
0.00847499
0.00929524
0.0100676
0.0107829
0.0114321
0.0120067
0.0124985
0.0128999
0.0132043
0.0134061
0.0135004
0.0134839
0.0133544
0.0131111
0.0127545
0.0122863
0.0117098
0.0110294
0.0102506
0.00937981
0.00842435
0.0073915
0.00628896
0.0051325
0.00393698
0.00260663
0.00105591
0.000457396
-0.00101246
-0.00219442
-0.00318206
-0.00408507
-0.00490324
-0.00563558
-0.00628915
-0.00687097
-0.00738727
-0.00784392
-0.00824639
-0.00859969
-0.00890824
-0.00917596
-0.00940617
-0.00960164
-0.00976459
-0.00989668
-0.0099991
-0.0100725
-0.0101172
-0.010133
-0.0101193
-0.0100752
-0.00999975
-0.00989141
-0.00974865
-0.00956978
-0.00935299
-0.00909648
-0.00879845
-0.00845719
-0.00807112
-0.00763887
-0.00715932
-0.00663166
-0.00605546
-0.00543071
-0.00475789
-0.00403803
-0.00327274
-0.00246427
-0.00161554
-0.000730179
0.000187452
0.00113226
0.0020984
0.00307931
0.00406772
0.0050557
0.0060347
0.00699568
0.00792916
0.00882535
0.00967427
0.0104659
0.0111904
0.0118382
0.0124002
0.0128678
0.0132334
0.0134904
0.0136332
0.0136576
0.0135607
0.0133411
0.0129989
0.0125357
0.0119544
0.0112595
0.0104567
0.00955278
0.00855544
0.0074725
0.00631224
0.00509158
0.00382649
0.00241512
0.000766682
-0.000572148
-0.00207797
-0.00328844
-0.00429948
-0.00522361
-0.00606071
-0.00680994
-0.00747863
-0.00807415
-0.00860299
-0.0090713
-0.00948479
-0.00984869
-0.0101676
-0.0104456
-0.0106862
-0.0108921
-0.0110657
-0.0112086
-0.0113221
-0.0114068
-0.0114629
-0.0114901
-0.0114878
-0.0114549
-0.0113903
-0.0112923
-0.0111591
-0.0109889
-0.0107796
-0.0105292
-0.0102356
-0.00989684
-0.00951101
-0.00907648
-0.00859181
-0.00805589
-0.007468
-0.00682784
-0.00613561
-0.00539208
-0.00459861
-0.00375725
-0.00287077
-0.00194268
-0.000977275
2.03415e-05
0.00104426
0.00208774
0.00314329
0.00420263
0.00525681
0.00629623
0.00731078
0.00828996
0.00922298
0.0100989
0.0109069
0.0116364
0.0122772
0.0128196
0.0132551
0.0135757
0.0137752
0.0138482
0.0137911
0.0136018
0.0132798
0.0128264
0.0122444
0.0115382
0.0107136
0.00977773
0.00873876
0.007605
0.00638537
0.00509801
0.00376005
0.00226316
0.000510949
-0.00171628
-0.00325659
-0.00449442
-0.00552792
-0.00647232
-0.00732762
-0.00809306
-0.00877631
-0.00938502
-0.00992598
-0.0104056
-0.0108299
-0.0112041
-0.0115333
-0.0118216
-0.0120725
-0.012289
-0.0124734
-0.0126275
-0.0127525
-0.0128489
-0.0129169
-0.0129561
-0.0129659
-0.012945
-0.012892
-0.0128052
-0.0126827
-0.0125221
-0.0123214
-0.0120782
-0.01179
-0.0114548
-0.0110702
-0.0106343
-0.0101454
-0.00960191
-0.00900291
-0.00834772
-0.00763623
-0.0068689
-0.00604684
-0.00517185
-0.00424646
-0.00327405
-0.00225881
-0.00120581
-0.000121009
0.000988748
0.00211573
0.00325135
0.00438623
0.00551024
0.00661264
0.00768216
0.00870714
0.00967573
0.010576
0.0113963
0.0121252
0.0127519
0.0132665
0.0136602
0.0139252
0.0140554
0.0140461
0.0138945
0.0135994
0.0131616
0.0125836
0.0118698
0.0110261
0.0100599
0.00897984
0.00779475
0.00651419
0.0051576
0.00374335
0.00215619
0.000293767
-0.00297798
-0.00455134
-0.00581539
-0.00687044
-0.00783429
-0.00870703
-0.00948803
-0.0101852
-0.0108066
-0.0113593
-0.0118498
-0.0122845
-0.012669
-0.0130082
-0.0133066
-0.0135678
-0.0137949
-0.0139904
-0.0141558
-0.0142926
-0.0144011
-0.0144816
-0.0145335
-0.014556
-0.0145479
-0.0145075
-0.0144329
-0.0143219
-0.0141722
-0.0139812
-0.0137463
-0.0134649
-0.0131343
-0.0127522
-0.0123161
-0.011824
-0.011274
-0.0106647
-0.00999515
-0.00926485
-0.00847392
-0.00762315
-0.00671404
-0.00574889
-0.00473085
-0.00366397
-0.00255325
-0.00140464
-0.000225069
0.000977533
0.0021943
0.00341542
0.00463028
0.00582744
0.00699488
0.00812004
0.00919005
0.0101919
0.0111126
0.0119396
0.0126608
0.0132649
0.0137417
0.0140822
0.014279
0.0143266
0.0142209
0.0139601
0.0135444
0.0129761
0.0122591
0.0113996
0.0104052
0.00928494
0.00804823
0.0067053
0.00527697
0.00378292
0.00210052
0.000121044
-0.00436006
-0.00596508
-0.00725427
-0.00832998
-0.00931247
-0.0102019
-0.0109978
-0.0117084
-0.012342
-0.0129058
-0.0134068