/*--------------------------------*- C++ -*----------------------------------*\
  =========                 |
  \\      /  F ield         | OpenFOAM: The Open Source CFD Toolbox
   \\    /   O peration     | Website:  https://openfoam.org
    \\  /    A nd           | Version:  7
     \\/     M anipulation  |
\*---------------------------------------------------------------------------*/
FoamFile
{
    version     2.0;
    format      ascii;
    class       surfaceScalarField;
    location    "1";
    object      phi;
}
// * * * * * * * * * * * * * * * * * * * * * * * * * * * * * * * * * * * * * //

dimensions      [0 3 -1 0 0 0 0];

internalField   nonuniform List<scalar> 
12640
(
1.96157e-10
-2.07853e-10
5.64593e-10
-3.68424e-10
8.71559e-10
-3.06954e-10
9.9345e-10
-1.21894e-10
8.72432e-10
1.21011e-10
4.86714e-10
3.85714e-10
-1.65124e-10
6.51839e-10
-1.07294e-09
9.07816e-10
-2.22012e-09
1.14718e-09
-3.58654e-09
1.36642e-09
-5.15033e-09
1.56379e-09
-6.889e-09
1.73867e-09
-8.78006e-09
1.89107e-09
-1.08015e-08
2.02146e-09
-1.29321e-08
2.13055e-09
-1.51513e-08
2.21919e-09
-1.74396e-08
2.28833e-09
-1.97785e-08
2.33891e-09
-2.21503e-08
2.37186e-09
-2.45384e-08
2.38809e-09
-2.69269e-08
2.38844e-09
-2.93005e-08
2.37369e-09
-3.16451e-08
2.34456e-09
-3.39468e-08
2.30169e-09
-3.61925e-08
2.24567e-09
-3.83695e-08
2.17703e-09
-4.04658e-08
2.09627e-09
-4.24696e-08
2.00384e-09
-4.43697e-08
1.90016e-09
-4.61554e-08
1.78566e-09
-4.78161e-08
1.66075e-09
-4.9342e-08
1.52587e-09
-5.07235e-08
1.38149e-09
-5.19516e-08
1.2281e-09
-5.30178e-08
1.06625e-09
-5.39144e-08
8.96563e-10
-5.46341e-08
7.19712e-10
-5.51706e-08
5.36457e-10
-5.55182e-08
3.47645e-10
-5.56724e-08
1.54206e-10
-5.56296e-08
-4.28337e-11
-5.53872e-08
-2.42358e-10
-5.49441e-08
-4.43161e-10
-5.43001e-08
-6.43945e-10
-5.34568e-08
-8.43334e-10
-5.24169e-08
-1.03988e-09
-5.11849e-08
-1.23205e-09
-4.97666e-08
-1.4183e-09
-4.81696e-08
-1.597e-09
-4.64031e-08
-1.76652e-09
-4.44778e-08
-1.92524e-09
-4.24063e-08
-2.07152e-09
-4.02025e-08
-2.20378e-09
-3.7882e-08
-2.32048e-09
-3.54619e-08
-2.42018e-09
-3.29604e-08
-2.50149e-09
-3.03972e-08
-2.56318e-09
-2.77931e-08
-2.60414e-09
-2.51696e-08
-2.62342e-09
-2.25494e-08
-2.62023e-09
-1.99554e-08
-2.594e-09
-1.74111e-08
-2.54434e-09
-1.494e-08
-2.47109e-09
-1.25657e-08
-2.37432e-09
-1.03113e-08
-2.25435e-09
-8.1996e-09
-2.11174e-09
-6.25225e-09
-1.94736e-09
-4.48987e-09
-1.76238e-09
-2.93154e-09
-1.55832e-09
-1.59438e-09
-1.33715e-09
-4.93003e-10
-1.10137e-09
3.61286e-10
-8.54283e-10
9.61551e-10
-6.00266e-10
1.30695e-09
-3.45415e-10
1.40557e-09
-9.86512e-11
1.27899e-09
1.26561e-10
9.69734e-10
3.09274e-10
5.54238e-10
4.1553e-10
1.65862e-10
3.8846e-10
1.6597e-10
3.6353e-10
-5.71381e-10
8.51395e-10
-8.56277e-10
1.10539e-09
-5.60947e-10
9.03092e-10
8.03994e-11
1.14401e-10
9.09699e-10
-1.32379e-09
1.82391e-09
-3.42897e-09
2.75702e-09
-6.18854e-09
3.66739e-09
-9.5706e-09
4.52925e-09
-1.35312e-08
5.327e-09
-1.8019e-08
6.05166e-09
-2.2979e-08
6.69863e-09
-2.83541e-08
7.2662e-09
-3.40873e-08
7.75458e-09
-4.01219e-08
8.16521e-09
-4.64031e-08
8.50037e-09
-5.28776e-08
8.76278e-09
-5.94941e-08
8.95542e-09
-6.62035e-08
9.08132e-09
-7.2959e-08
9.14353e-09
-7.97155e-08
9.14493e-09
-8.64301e-08
9.08831e-09
-9.30618e-08
8.97622e-09
-9.95712e-08
8.81107e-09
-1.05921e-07
8.59505e-09
-1.12074e-07
8.33022e-09
-1.17996e-07
8.01848e-09
-1.23654e-07
7.66163e-09
-1.29015e-07
7.26142e-09
-1.34049e-07
6.81956e-09
-1.38726e-07
6.33779e-09
-1.43018e-07
5.8179e-09
-1.46898e-07
5.26179e-09
-1.50342e-07
4.67151e-09
-1.53325e-07
4.04931e-09
-1.55826e-07
3.39765e-09
-1.57826e-07
2.71925e-09
-1.59306e-07
2.0171e-09
-1.60253e-07
1.29453e-09
-1.60654e-07
5.55146e-10
-1.605e-07
-1.97082e-10
-1.59784e-07
-9.5787e-10
-1.58505e-07
-1.72261e-09
-1.56662e-07
-2.48637e-09
-1.54262e-07
-3.24394e-09
-1.51312e-07
-3.98986e-09
-1.47826e-07
-4.71842e-09
-1.4382e-07
-5.42375e-09
-1.39317e-07
-6.09986e-09
-1.34343e-07
-6.74068e-09
-1.28928e-07
-7.34013e-09
-1.23107e-07
-7.89222e-09
-1.1692e-07
-8.39108e-09
-1.1041e-07
-8.83106e-09
-1.03623e-07
-9.2068e-09
-9.66111e-08
-9.51332e-09
-8.94282e-08
-9.74609e-09
-8.21313e-08
-9.90107e-09
-7.47798e-08
-9.97486e-09
-6.74354e-08
-9.9647e-09
-6.01608e-08
-9.86856e-09
-5.302e-08
-9.68519e-09
-4.60768e-08
-9.41421e-09
-3.9395e-08
-9.05613e-09
-3.3037e-08
-8.61243e-09
-2.70631e-08
-8.08563e-09
-2.15311e-08
-7.47939e-09
-1.64948e-08
-6.79868e-09
-1.20032e-08
-6.04991e-09
-8.09904e-09
-5.24131e-09
-4.81707e-09
-4.38335e-09
-2.18188e-09
-3.48949e-09
-2.04825e-10
-2.57734e-09
1.12026e-09
-1.67051e-09
1.82296e-09
-8.01359e-10
1.96499e-09
-1.54915e-11
1.65177e-09
6.22453e-10
1.0473e-09
1.01986e-09
3.87479e-10
1.04804e-09
5.53493e-10
3.08828e-10
-8.80197e-10
5.65792e-10
-1.11324e-09
3.70873e-10
-3.66034e-10
-5.3277e-10
9.84037e-10
-2.30538e-09
2.68231e-09
-5.03179e-09
4.55033e-09
-8.74048e-09
6.46571e-09
-1.34196e-08
8.34652e-09
-1.90292e-08
1.01389e-08
-2.55102e-08
1.1808e-08
-3.27911e-08
1.33326e-08
-4.07927e-08
1.47002e-08
-4.94316e-08
1.59051e-08
-5.86226e-08
1.69456e-08
-6.82805e-08
1.78232e-08
-7.83213e-08
1.85412e-08
-8.86629e-08
1.91044e-08
-9.92258e-08
1.95182e-08
-1.09933e-07
1.97884e-08
-1.2071e-07
1.99209e-08
-1.31487e-07
1.99214e-08
-1.42194e-07
1.97957e-08
-1.52767e-07
1.9549e-08
-1.63142e-07
1.91863e-08
-1.73259e-07
1.87123e-08
-1.8306e-07
1.81315e-08
-1.9249e-07
1.74481e-08
-2.01494e-07
1.6666e-08
-2.10022e-07
1.57892e-08
-2.18024e-07
1.48215e-08
-2.25453e-07
1.37669e-08
-2.32265e-07
1.26295e-08
-2.38417e-07
1.14136e-08
-2.43869e-07
1.01239e-08
-2.48585e-07
8.7655e-09
-2.52531e-07
7.34384e-09
-2.55677e-07
5.86505e-09
-2.57996e-07
4.33578e-09
-2.59465e-07
2.76335e-09
-2.60065e-07
1.15573e-09
-2.59784e-07
-4.78418e-10
-2.58612e-07
-2.12976e-09
-2.56546e-07
-3.78829e-09
-2.53589e-07
-5.44337e-09
-2.4975e-07
-7.08375e-09
-2.45042e-07
-8.69767e-09
-2.39487e-07
-1.02729e-08
-2.33114e-07
-1.1797e-08
-2.25957e-07
-1.3257e-08
-2.18058e-07
-1.464e-08
-2.09465e-07
-1.59332e-08
-2.00233e-07
-1.71238e-08
-1.90425e-07
-1.81995e-08
-1.80108e-07
-1.91481e-08
-1.69356e-07
-1.99585e-08
-1.58249e-07
-2.06202e-08
-1.46871e-07
-2.11236e-08
-1.35312e-07
-2.14604e-08
-1.23663e-07
-2.16235e-08
-1.12021e-07
-2.16071e-08
-1.00482e-07
-2.14073e-08
-8.91457e-08
-2.10217e-08
-7.81103e-08
-2.04497e-08
-6.74736e-08
-1.96928e-08
-5.73314e-08
-1.87547e-08
-4.77758e-08
-1.76413e-08
-3.88941e-08
-1.63611e-08
-3.07674e-08
-1.49254e-08
-2.34683e-08
-1.3349e-08
-1.70593e-08
-1.16503e-08
-1.15897e-08
-9.85296e-09
-7.09257e-09
-7.98662e-09
-3.58052e-09
-6.0894e-09
-1.04019e-09
-4.21083e-09
5.74748e-10
-2.41627e-09
1.35255e-09
-7.93233e-10
1.43476e-09
5.40332e-10
1.02809e-09
1.42661e-09
4.16824e-10
1.65923e-09
9.7031e-10
1.29101e-10
-1.00929e-09
-6.68227e-11
-9.17327e-10
-9.70374e-10
5.37512e-10
-2.83566e-09
2.84932e-09
-5.82491e-09
5.67156e-09
-1.00265e-08
8.75191e-09
-1.54705e-08
1.19097e-08
-2.21428e-08
1.50188e-08
-2.99965e-08
1.79926e-08
-3.89611e-08
2.07726e-08
-4.89499e-08
2.33213e-08
-5.98652e-08
2.56155e-08
-7.16028e-08
2.76427e-08
-8.40551e-08
2.93979e-08
-9.71133e-08
3.08813e-08
-1.10669e-07
3.20969e-08
-1.24616e-07
3.3051e-08
-1.38849e-07
3.37515e-08
-1.53268e-07
3.42071e-08
-1.67774e-07
3.44271e-08
-1.82273e-07
3.44206e-08
-1.96674e-07
3.41967e-08
-2.10889e-07
3.37641e-08
-2.24834e-07
3.31311e-08
-2.38427e-07
3.23058e-08
-2.51592e-07
3.12956e-08
-2.64251e-07
3.01078e-08
-2.76335e-07
2.87493e-08
-2.87772e-07
2.72271e-08
-2.98499e-07
2.5548e-08
-3.08451e-07
2.37191e-08
-3.17569e-07
2.17476e-08
-3.25797e-07
1.96414e-08
-3.33082e-07
1.74087e-08
-3.39375e-07
1.50586e-08
-3.44632e-07
1.26007e-08
-3.48813e-07
1.00458e-08
-3.51882e-07
7.40563e-09
-3.53812e-07
4.69287e-09
-3.54578e-07
1.92138e-09
-3.54162e-07
-8.93856e-10
-3.52555e-07
-3.73673e-09
-3.49753e-07
-6.59004e-09
-3.45761e-07
-9.43555e-09
-3.40591e-07
-1.2254e-08
-3.34263e-07
-1.50255e-08
-3.26807e-07
-1.7729e-08
-3.18261e-07
-2.03434e-08
-3.08671e-07
-2.28469e-08
-2.98093e-07
-2.52177e-08
-2.86592e-07
-2.74339e-08
-2.74242e-07
-2.94741e-08
-2.61124e-07
-3.13174e-08
-2.47329e-07
-3.29436e-08
-2.32953e-07
-3.43338e-08
-2.18103e-07
-3.54705e-08
-2.02889e-07
-3.63377e-08
-1.87428e-07
-3.69215e-08
-1.71841e-07
-3.72102e-08
-1.56254e-07
-3.71944e-08
-1.40793e-07
-3.68677e-08
-1.25589e-07
-3.62263e-08
-1.10768e-07
-3.527e-08
-9.64595e-08
-3.40017e-08
-8.27858e-08
-3.24283e-08
-6.98665e-08
-3.05605e-08
-5.78139e-08
-2.84137e-08
-4.67314e-08
-2.6008e-08
-3.67112e-08
-2.33692e-08
-2.78315e-08
-2.053e-08
-2.01533e-08
-1.75311e-08
-1.37166e-08
-1.44233e-08
-8.53546e-09
-1.12705e-08
-4.59272e-09
-8.15359e-09
-1.83282e-09
-5.17622e-09
-1.53855e-10
-2.47226e-09
6.01993e-10
-2.15541e-10
6.58632e-10
1.37004e-09
3.18725e-10
1.99916e-09
1.28903e-09
-1.11136e-10
-8.9816e-10
-8.97143e-10
-1.31328e-10
-2.68224e-09
2.32261e-09
-5.69008e-09
5.85716e-09
-1.00649e-08
1.00464e-08
-1.58842e-08
1.45712e-08
-2.31704e-08
1.91959e-08
-3.1902e-08
2.37504e-08
-4.20235e-08
2.8114e-08
-5.34537e-08
3.22028e-08
-6.60928e-08
3.59604e-08
-7.98281e-08
3.93508e-08
-9.45384e-08
4.2353e-08
-1.10097e-07
4.4957e-08
-1.26377e-07
4.71607e-08
-1.43248e-07
4.89677e-08
-1.60582e-07
5.03857e-08
-1.78255e-07
5.14246e-08
-1.96144e-07
5.20962e-08
-2.1413e-07
5.2413e-08
-2.32098e-07
5.2388e-08
-2.49935e-07
5.20341e-08
-2.67535e-07
5.13639e-08
-2.84793e-07
5.03895e-08
-3.0161e-07
4.91227e-08
-3.1789e-07
4.75748e-08
-3.33538e-07
4.57567e-08
-3.48468e-07
4.36792e-08
-3.62594e-07
4.13528e-08
-3.75835e-07
3.87883e-08
-3.88112e-07
3.59965e-08
-3.99353e-07
3.2989e-08
-4.0949e-07
2.97777e-08
-4.18456e-07
2.63755e-08
-4.26194e-07
2.27966e-08
-4.3265e-07
1.90559e-08
-4.37774e-07
1.517e-08
-4.41525e-07
1.11569e-08
-4.43868e-07
7.03603e-09
-4.44775e-07
2.82859e-09
-4.44227e-07
-1.44265e-09
-4.4221e-07
-5.75327e-09
-4.38723e-07
-1.00773e-08
-4.33771e-07
-1.43871e-08
-4.27371e-07
-1.86539e-08
-4.19549e-07
-2.28475e-08
-4.10342e-07
-2.69367e-08
-3.99795e-07
-3.08897e-08
-3.87968e-07
-3.4674e-08
-3.74929e-07
-3.8257e-08
-3.60757e-07
-4.16062e-08
-3.45541e-07
-4.46897e-08
-3.29382e-07
-4.74763e-08
-3.12389e-07
-4.99363e-08
-2.94682e-07
-5.20415e-08
-2.76386e-07
-5.3766e-08
-2.57638e-07
-5.50864e-08
-2.38577e-07
-5.5982e-08
-2.19352e-07
-5.64358e-08
-2.00112e-07
-5.64342e-08
-1.81012e-07
-5.59679e-08
-1.62206e-07
-5.50321e-08
-1.43849e-07
-5.36267e-08
-1.26094e-07
-5.17569e-08
-1.09089e-07
-4.94337e-08
-9.29753e-08
-4.6674e-08
-7.78875e-08
-4.35015e-08
-6.39479e-08
-3.99475e-08
-5.12655e-08
-3.60517e-08
-3.99321e-08
-3.18634e-08
-3.00194e-08
-2.74439e-08
-2.15741e-08
-2.28686e-08
-1.4614e-08
-1.82306e-08
-9.12218e-09
-1.36454e-08
-5.04111e-09
-9.25727e-09
-2.26581e-09
-5.24759e-09
-6.3632e-10
-1.84508e-09
7.04935e-11
6.63236e-10
1.51116e-10
1.91855e-09
1.44015e-09
-3.7817e-10
-5.19992e-10
-1.83113e-09
1.32162e-09
-4.60485e-09
5.09633e-09
-8.87438e-09
1.01267e-08
-1.47515e-08
1.59235e-08
-2.22914e-08
2.21112e-08
-3.15006e-08
2.84051e-08
-4.23446e-08
3.45945e-08
-5.47563e-08
4.05258e-08
-6.86429e-08
4.60894e-08
-8.38921e-08
5.12096e-08
-1.00377e-07
5.58362e-08
-1.17963e-07
5.99386e-08
-1.36507e-07
6.35007e-08
-1.55863e-07
6.65172e-08
-1.75886e-07
6.89907e-08
-1.9643e-07
7.09294e-08
-2.1735e-07
7.23452e-08
-2.38507e-07
7.32528e-08
-2.59762e-07
7.36679e-08
-2.80981e-07
7.36075e-08
-3.02036e-07
7.30884e-08
-3.22799e-07
7.21274e-08
-3.43151e-07
7.0741e-08
-3.62973e-07
6.89452e-08
-3.82154e-07
6.67556e-08
-4.00585e-07
6.41874e-08
-4.18161e-07
6.12556e-08
-4.34784e-07
5.79754e-08
-4.50357e-07
5.43617e-08
-4.64791e-07
5.04303e-08
-4.77999e-07
4.61976e-08
-4.89903e-07
4.16807e-08
-5.00425e-07
3.68982e-08
-5.09499e-07
3.18699e-08
-5.1706e-07
2.66174e-08
-5.23054e-07
2.11642e-08
-5.27433e-07
1.55355e-08
-5.30156e-07
9.759e-09
-5.31192e-07
3.86429e-09
-5.30518e-07
-2.11667e-09
-5.28121e-07
-8.14976e-09
-5.24e-07
-1.41987e-08
-5.18162e-07
-2.02251e-08
-5.10626e-07
-2.6189e-08
-5.01425e-07
-3.20485e-08
-4.90602e-07
-3.77606e-08
-4.7821e-07
-4.3281e-08
-4.64319e-07
-4.85651e-08
-4.49008e-07
-5.35679e-08
-4.3237e-07
-5.82447e-08
-4.14508e-07
-6.25515e-08
-3.95539e-07
-6.64456e-08
-3.75589e-07
-6.98862e-08
-3.54796e-07
-7.28347e-08
-3.33306e-07
-7.52555e-08
-3.11276e-07
-7.71168e-08
-2.88867e-07
-7.83904e-08
-2.6625e-07
-7.90531e-08
-2.43598e-07
-7.90868e-08
-2.21086e-07
-7.8479e-08
-1.98895e-07
-7.72237e-08
-1.772e-07
-7.53215e-08
-1.56177e-07
-7.27802e-08
-1.35995e-07
-6.96156e-08
-1.16817e-07
-6.58522e-08
-9.87945e-08
-6.15235e-08
-8.20685e-08
-5.66736e-08
-6.67623e-08
-5.13578e-08
-5.29809e-08
-4.56448e-08
-4.08063e-08
-3.96186e-08
-3.02936e-08
-3.33813e-08
-2.14667e-08
-2.70575e-08
-1.43136e-08
-2.07985e-08
-8.78089e-09
-1.47899e-08
-4.76915e-09
-9.25929e-09
-2.12694e-09
-4.48729e-09
-6.45453e-10
-8.18255e-10
-5.23652e-11
1.32544e-09
1.38777e-09
-6.53962e-10
1.33971e-10
-2.81103e-09
3.47869e-09
-6.63287e-09
8.91816e-09
-1.2236e-08
1.57298e-08
-1.969e-08
2.33775e-08
-2.90194e-08
3.14405e-08
-4.02075e-08
3.95932e-08
-5.3202e-08
4.7589e-08
-6.79208e-08
5.52445e-08
-8.42572e-08
6.24258e-08
-1.02086e-07
6.90382e-08
-1.21267e-07
7.50174e-08
-1.41651e-07
8.03226e-08
-1.63082e-07
8.49313e-08
-1.85399e-07
8.88342e-08
-2.0844e-07
9.20324e-08
-2.32045e-07
9.45343e-08
-2.56053e-07
9.63535e-08
-2.80308e-07
9.7507e-08
-3.04654e-07
9.80142e-08
-3.28942e-07
9.78958e-08
-3.53027e-07
9.71727e-08
-3.76765e-07
9.58663e-08
-4.00022e-07
9.39976e-08
-4.22664e-07
9.15872e-08
-4.44564e-07
8.86554e-08
-4.65599e-07
8.52224e-08
-4.85651e-07
8.13079e-08
-5.04608e-07
7.6932e-08
-5.22361e-07
7.2115e-08
-5.38809e-07
6.68779e-08
-5.53854e-07
6.12427e-08
-5.67406e-07
5.52327e-08
-5.7938e-07
4.88728e-08
-5.897e-07
4.21897e-08
-5.98295e-07
3.52122e-08
-6.05103e-07
2.79718e-08
-6.10069e-07
2.05023e-08
-6.13151e-07
1.28403e-08
-6.14311e-07
5.02514e-09
-6.13527e-07
-2.90079e-09
-6.10785e-07
-1.08924e-08
-6.06081e-07
-1.89019e-08
-5.99428e-07
-2.68789e-08
-5.90846e-07
-3.47707e-08
-5.80372e-07
-4.25224e-08
-5.68055e-07
-5.00775e-08
-5.53958e-07
-5.73785e-08
-5.38156e-07
-6.43667e-08
-5.20741e-07
-7.09835e-08
-5.01815e-07
-7.71705e-08
-4.81496e-07
-8.28705e-08
-4.59914e-07
-8.80279e-08
-4.3721e-07
-9.25894e-08
-4.1354e-07
-9.65051e-08
-3.89066e-07
-9.97288e-08
-3.63964e-07
-1.02219e-07
-3.38415e-07
-1.0394e-07
-3.12608e-07
-1.0486e-07
-2.86736e-07
-1.04958e-07
-2.60998e-07
-1.04217e-07
-2.35591e-07
-1.02631e-07
-2.10713e-07
-1.00199e-07
-1.8656e-07
-9.69339e-08
-1.63319e-07
-9.28564e-08
-1.41172e-07
-8.79992e-08
-1.20288e-07
-8.24071e-08
-1.00824e-07
-7.6138e-08
-8.2917e-08
-6.92646e-08
-6.66854e-08
-6.18764e-08
-5.22224e-08
-5.40815e-08
-3.95933e-08
-4.60104e-08
-2.88311e-08
-3.78197e-08
-1.99326e-08
-2.9697e-08
-1.28546e-08
-2.1868e-08
-7.50964e-09
-1.46043e-08
-3.76291e-09
-8.234e-09
-1.42944e-09
-3.15172e-09
-2.72114e-10
1.68099e-10
1.11564e-09
-9.28907e-10
1.06288e-09
-3.80237e-09
6.35216e-09
-8.69915e-09
1.38149e-08
-1.56731e-08
2.27038e-08
-2.47458e-08
3.24503e-08
-3.59053e-08
4.26e-08
-4.91064e-08
5.27943e-08
-6.42745e-08
6.27571e-08
-8.13088e-08
7.22788e-08
-1.00087e-07
8.12038e-08
-1.20469e-07
8.94201e-08
-1.42301e-07
9.68499e-08
-1.65421e-07
1.03443e-07
-1.89659e-07
1.09169e-07
-2.14841e-07
1.14016e-07
-2.40792e-07
1.17983e-07
-2.67335e-07
1.21078e-07
-2.94298e-07
1.23316e-07
-3.21507e-07
1.24717e-07
-3.48795e-07
1.25303e-07
-3.75998e-07
1.25098e-07
-4.02954e-07
1.24129e-07
-4.29509e-07
1.22421e-07
-4.55511e-07
1.2e-07
-4.80814e-07
1.16891e-07
-5.05279e-07
1.1312e-07
-5.28768e-07
1.08712e-07
-5.51152e-07
1.03692e-07
-5.72305e-07
9.80858e-08
-5.9211e-07
9.19197e-08
-6.10453e-07
8.52205e-08
-6.27227e-07
7.80165e-08
-6.42331e-07
7.03376e-08
-6.55675e-07
6.2216e-08
-6.67171e-07
5.36859e-08
-6.76743e-07
4.47845e-08
-6.84323e-07
3.55519e-08
-6.89852e-07
2.60314e-08
-6.93282e-07
1.62697e-08
-6.94574e-07
6.31698e-09
-6.93701e-07
-3.77311e-09
-6.9065e-07
-1.39434e-08
-6.85419e-07
-2.41333e-08
-6.78019e-07
-3.42792e-08
-6.68475e-07
-4.43145e-08
-6.56827e-07
-5.41702e-08
-6.43129e-07
-6.37752e-08
-6.27451e-07
-7.3057e-08
-6.09875e-07
-8.19421e-08
-5.90502e-07
-9.03567e-08
-5.69445e-07
-9.82278e-08
-5.46832e-07
-1.05484e-07
-5.22805e-07
-1.12054e-07
-4.97522e-07
-1.17873e-07
-4.71149e-07
-1.22878e-07
-4.43867e-07
-1.27011e-07
-4.15865e-07
-1.3022e-07
-3.87344e-07
-1.3246e-07
-3.5851e-07
-1.33695e-07
-3.29575e-07
-1.33894e-07
-3.00754e-07
-1.33038e-07
-2.72265e-07
-1.3112e-07
-2.44323e-07
-1.2814e-07
-2.17143e-07
-1.24114e-07
-1.9093e-07
-1.19069e-07
-1.65882e-07
-1.13047e-07
-1.42187e-07
-1.06103e-07
-1.20014e-07
-9.83105e-08
-9.95179e-08
-8.97612e-08
-8.08284e-08
-8.05659e-08
-6.40521e-08
-7.08578e-08
-4.92663e-08
-6.07962e-08
-3.65161e-08
-5.05698e-08
-2.58112e-08
-4.04019e-08
-1.71227e-08
-3.05565e-08
-1.03806e-08
-2.13464e-08
-5.47252e-09
-1.3142e-08
-2.24337e-09
-6.38087e-09
-4.96751e-10
-1.57852e-09
6.18889e-10
-1.19813e-09
2.26101e-09
-4.78516e-09
9.93919e-09
-1.07619e-08
1.97916e-08
-1.9119e-08
3.10609e-08
-2.98277e-08
4.3159e-08
-4.28354e-08
5.56077e-08
-5.80649e-08
6.80239e-08
-7.54155e-08
8.01077e-08
-9.4765e-08
9.16282e-08
-1.15973e-07
1.02412e-07
-1.38883e-07
1.1233e-07
-1.63328e-07
1.21295e-07
-1.89131e-07
1.29246e-07
-2.1611e-07
1.36148e-07
-2.44077e-07
1.41983e-07
-2.72845e-07
1.46751e-07
-3.02225e-07
1.50458e-07
-3.32029e-07
1.53121e-07
-3.62075e-07
1.54762e-07
-3.9218e-07
1.55407e-07
-4.22166e-07
1.55085e-07
-4.51861e-07
1.53824e-07
-4.81097e-07
1.51657e-07
-5.0971e-07
1.48612e-07
-5.37542e-07
1.44723e-07
-5.6444e-07
1.40018e-07
-5.90257e-07
1.34529e-07
-6.14852e-07
1.28287e-07
-6.3809e-07
1.21323e-07
-6.5984e-07
1.1367e-07
-6.79981e-07
1.05361e-07
-6.98396e-07
9.64318e-08
-7.14978e-07
8.6919e-08
-7.29624e-07
7.68627e-08
-7.42244e-07
6.63058e-08
-7.52754e-07
5.52942e-08
-7.6108e-07
4.38777e-08
-7.67158e-07
3.21097e-08
-7.70936e-07
2.0048e-08
-7.72374e-07
7.75433e-09
-7.71442e-07
-4.70523e-09
-7.68124e-07
-1.72605e-08
-7.62421e-07
-2.98371e-08
-7.54343e-07
-4.23572e-08
-7.43918e-07
-5.47394e-08
-7.31189e-07
-6.68992e-08
-7.16214e-07
-7.87499e-08
-6.99068e-07
-9.0203e-08
-6.79841e-07
-1.01169e-07
-6.5864e-07
-1.11558e-07
-6.35588e-07
-1.2128e-07
-6.10822e-07
-1.30249e-07
-5.84496e-07
-1.3838e-07
-5.56778e-07
-1.45591e-07
-5.27849e-07
-1.51807e-07
-4.97902e-07
-1.56957e-07
-4.67144e-07
-1.60979e-07
-4.35788e-07
-1.63817e-07
-4.04056e-07
-1.65426e-07
-3.72179e-07
-1.65771e-07
-3.40387e-07
-1.6483e-07
-3.08916e-07
-1.62591e-07
-2.78e-07
-1.59057e-07
-2.47867e-07
-1.54247e-07
-2.18743e-07
-1.48194e-07
-1.90841e-07
-1.40948e-07
-1.64365e-07
-1.32579e-07
-1.395e-07
-1.23175e-07
-1.16415e-07
-1.12846e-07
-9.52554e-08
-1.01725e-07
-7.61419e-08
-8.99713e-08
-5.9166e-08
-7.77721e-08
-4.43877e-08
-6.53482e-08
-3.18325e-08
-5.29571e-08
-2.14897e-08
-4.08994e-08
-1.33108e-08
-2.95253e-08
-7.20964e-09
-1.92432e-08
-3.06404e-09
-1.05265e-08
-7.19925e-10
-3.92261e-09
-1.01027e-10
-1.45929e-09
3.7203e-09
-5.74823e-09
1.42281e-08
-1.27957e-08
2.68391e-08
-2.25312e-08
4.07965e-08
-3.48749e-08
5.55026e-08
-4.97317e-08
7.04645e-08
-6.69898e-08
8.5282e-08
-8.65197e-08
9.96376e-08
-1.08175e-07
1.13284e-07
-1.31796e-07
1.26032e-07
-1.57209e-07
1.37743e-07
-1.84231e-07
1.48317e-07
-2.1267e-07
1.57686e-07
-2.42332e-07
1.65809e-07
-2.73017e-07
1.72668e-07
-3.04524e-07
1.78258e-07
-3.36654e-07
1.82587e-07
-3.69208e-07
1.85674e-07
-4.01989e-07
1.87543e-07
-4.34804e-07
1.88223e-07
-4.67465e-07
1.87746e-07
-4.99787e-07
1.86146e-07
-5.31591e-07
1.8346e-07
-5.62702e-07
1.79723e-07
-5.92951e-07
1.74972e-07
-6.22175e-07
1.69242e-07
-6.50216e-07
1.6257e-07
-6.76923e-07
1.54994e-07
-7.02151e-07
1.46551e-07
-7.25761e-07
1.37281e-07
-7.47623e-07
1.27223e-07
-7.67611e-07
1.1642e-07
-7.8561e-07
1.04918e-07
-8.01513e-07
9.27651e-08
-8.15219e-07
8.00124e-08
-8.26641e-07
6.67159e-08
-8.35699e-07
5.29354e-08
-8.42325e-07
3.87356e-08
-8.46462e-07
2.41856e-08
-8.48068e-07
9.35993e-09
-8.47111e-07
-5.66236e-09
-8.43574e-07
-2.07971e-08
-8.37456e-07
-3.59555e-08
-8.28768e-07
-5.10444e-08
-8.17541e-07
-6.59665e-08
-8.03819e-07
-8.06211e-08
-7.87665e-07
-9.49048e-08
-7.69156e-07
-1.08712e-07
-7.48388e-07
-1.21936e-07
-7.25476e-07
-1.3447e-07
-7.00548e-07
-1.46208e-07
-6.73752e-07
-1.57045e-07
-6.45251e-07
-1.66882e-07
-6.15222e-07
-1.7562e-07
-5.83859e-07
-1.8317e-07
-5.51367e-07
-1.89449e-07
-5.17966e-07
-1.9438e-07
-4.83883e-07
-1.97899e-07
-4.49357e-07
-1.99952e-07
-4.1463e-07
-2.00498e-07
-3.79953e-07
-1.99508e-07
-3.45574e-07
-1.96969e-07
-3.11745e-07
-1.92886e-07
-2.78711e-07
-1.8728e-07
-2.46715e-07
-1.80191e-07
-2.15985e-07
-1.71677e-07
-1.86742e-07
-1.61822e-07
-1.59189e-07
-1.50729e-07
-1.33508e-07
-1.38527e-07
-1.09863e-07
-1.25371e-07
-8.83886e-08
-1.11445e-07
-6.91941e-08
-9.69667e-08
-5.23562e-08
-8.2186e-08
-3.79195e-08
-6.73938e-08
-2.5894e-08
-5.29248e-08
-1.62555e-08
-3.91638e-08
-8.94621e-09
-2.65525e-08
-3.8781e-09
-1.55946e-08
-9.38395e-10
-6.8623e-09
-1.03941e-09
-1.71148e-09
5.43177e-09
-6.68576e-09
1.92024e-08
-1.47861e-08
3.49394e-08
-2.58837e-08
5.18941e-08
-3.98483e-08
6.94672e-08
-5.6542e-08
8.71582e-08
-7.58167e-08
1.04557e-07
-9.75125e-08
1.21333e-07
-1.21458e-07
1.37229e-07
-1.4747e-07
1.52045e-07
-1.75358e-07
1.65631e-07
-2.04921e-07
1.77879e-07
-2.35954e-07
1.88719e-07
-2.68248e-07
1.98104e-07
-3.01591e-07
2.06012e-07
-3.35772e-07
2.12439e-07
-3.70578e-07
2.17394e-07
-4.05801e-07
2.20897e-07
-4.41232e-07
2.22974e-07
-4.7667e-07
2.2366e-07
-5.11913e-07
2.22989e-07
-5.46768e-07
2.21001e-07
-5.81045e-07
2.17737e-07
-6.1456e-07
2.13238e-07
-6.47134e-07
2.07545e-07
-6.78594e-07
2.00702e-07
-7.08773e-07
1.9275e-07
-7.37512e-07
1.83733e-07
-7.64656e-07
1.73695e-07
-7.90059e-07
1.62683e-07
-8.13581e-07
1.50745e-07
-8.35091e-07
1.3793e-07
-8.54466e-07
1.24293e-07
-8.71591e-07
1.0989e-07
-8.86361e-07
9.4783e-08
-8.98683e-07
7.90372e-08
-9.08471e-07
6.27236e-08
-9.15653e-07
4.59182e-08
-9.2017e-07
2.87027e-08
-9.21975e-07
1.11644e-08
-9.21034e-07
-6.60348e-09
-9.17329e-07
-2.45023e-08
-9.10856e-07
-4.24279e-08
-9.01629e-07
-6.02711e-08
-8.89678e-07
-7.79179e-08
-8.75048e-07
-9.52507e-08
-8.57805e-07
-1.12148e-07
-8.3803e-07
-1.28487e-07
-8.15824e-07
-1.44143e-07
-7.91304e-07
-1.5899e-07
-7.64608e-07
-1.72904e-07
-7.35889e-07
-1.85764e-07
-7.05319e-07
-1.97452e-07
-6.73085e-07
-2.07854e-07
-6.39389e-07
-2.16866e-07
-6.04451e-07
-2.24387e-07
-5.68499e-07
-2.30332e-07
-5.31776e-07
-2.34623e-07
-4.94532e-07
-2.37196e-07
-4.57027e-07
-2.38003e-07
-4.19524e-07
-2.37011e-07
-3.82288e-07
-2.34205e-07
-3.45587e-07
-2.29587e-07
-3.09684e-07
-2.23184e-07
-2.74835e-07
-2.1504e-07
-2.41288e-07
-2.05224e-07
-2.0928e-07
-1.9383e-07
-1.7903e-07
-1.80979e-07
-1.5074e-07
-1.66817e-07
-1.24588e-07
-1.51522e-07
-1.0073e-07
-1.35304e-07
-7.92902e-08
-1.18406e-07
-6.03671e-08
-1.01109e-07
-4.40256e-08
-8.37353e-08
-3.0299e-08
-6.66514e-08
-1.91888e-08
-5.0274e-08
-1.06669e-08
-3.50745e-08
-4.67881e-09
-2.15826e-08
-1.1508e-09
-1.03903e-08
-2.1902e-09
-1.95454e-09
7.38631e-09
-7.59518e-09
2.48431e-08
-1.67252e-08
4.40694e-08
-2.91612e-08
6.43301e-08
-4.47238e-08
8.50298e-08
-6.32326e-08
1.05667e-07
-8.45028e-08
1.25827e-07
-1.08343e-07
1.45174e-07
-1.34555e-07
1.63441e-07
-1.62932e-07
1.80422e-07
-1.93264e-07
1.95962e-07
-2.25333e-07
2.09949e-07
-2.58919e-07
2.22305e-07
-2.93798e-07
2.32983e-07
-3.29748e-07
2.41961e-07
-3.66544e-07
2.49234e-07
-4.03963e-07
2.54813e-07
-4.41786e-07
2.5872e-07
-4.79796e-07
2.60984e-07
-5.17779e-07
2.61643e-07
-5.55527e-07
2.60737e-07
-5.92836e-07
2.58311e-07
-6.29508e-07
2.54409e-07
-6.65349e-07
2.49079e-07
-7.00172e-07
2.42368e-07
-7.33795e-07
2.34325e-07
-7.66043e-07
2.24998e-07
-7.96749e-07
2.14439e-07
-8.25751e-07
2.02697e-07
-8.52895e-07
1.89827e-07
-8.78033e-07
1.75883e-07
-9.01028e-07
1.60926e-07
-9.21751e-07
1.45015e-07
-9.4008e-07
1.28219e-07
-9.55904e-07
1.10608e-07
-9.69125e-07
9.22581e-08
-9.79653e-07
7.32516e-08
-9.87412e-07
5.36767e-08
-9.92337e-07
3.36278e-08
-9.94379e-07
1.32059e-08
-9.93501e-07
-7.48142e-09
-9.89683e-07
-2.83203e-08
-9.8292e-07
-4.91906e-08
-9.73225e-07
-6.99662e-08
-9.60627e-07
-9.05162e-08
-9.45173e-07
-1.10705e-07
-9.26929e-07
-1.30392e-07
-9.0598e-07
-1.49436e-07
-8.82428e-07
-1.67694e-07
-8.56398e-07
-1.8502e-07
-8.28029e-07
-2.01273e-07
-7.97483e-07
-2.16311e-07
-7.64937e-07
-2.29998e-07
-7.30587e-07
-2.42204e-07
-6.94645e-07
-2.52807e-07
-6.57339e-07
-2.61693e-07
-6.18911e-07
-2.6876e-07
-5.79614e-07
-2.7392e-07
-5.39712e-07
-2.77098e-07
-4.99478e-07
-2.78237e-07
-4.5919e-07
-2.77299e-07
-4.1913e-07
-2.74265e-07
-3.7958e-07
-2.69138e-07
-3.40819e-07
-2.61944e-07
-3.03123e-07
-2.52736e-07
-2.66756e-07
-2.41591e-07
-2.31971e-07
-2.28614e-07
-1.99009e-07
-2.13942e-07
-1.68087e-07
-1.97739e-07
-1.39404e-07
-1.80205e-07
-1.13134e-07
-1.61574e-07
-8.94244e-08
-1.42116e-07
-6.83928e-08
-1.22141e-07
-5.01277e-08
-1.02e-07
-3.46869e-08
-8.20922e-08
-2.20989e-08
-6.2862e-08
-1.23651e-08
-4.48083e-08
-5.46383e-09
-2.84839e-08
-1.35693e-09
-1.44972e-08
-3.54712e-09
-2.18871e-09
9.57502e-09
-8.47579e-09
3.11302e-08
-1.86097e-08
5.42033e-08
-3.23556e-08
7.8076e-08
-4.94875e-08
1.02162e-07
-6.9783e-08
1.25963e-07
-9.30208e-08
1.49065e-07
-1.18977e-07
1.7113e-07
-1.47426e-07
1.9189e-07
-1.78139e-07
2.11135e-07
-2.10882e-07
2.28705e-07
-2.45421e-07
2.44487e-07
-2.81519e-07
2.58403e-07
-3.1894e-07
2.70404e-07
-3.57448e-07
2.80469e-07
-3.96806e-07
2.88593e-07
-4.36782e-07
2.94789e-07
-4.77146e-07
2.99084e-07
-5.17672e-07
3.0151e-07
-5.58137e-07
3.02108e-07
-5.98324e-07
3.00925e-07
-6.38022e-07
2.98008e-07
-6.77022e-07
2.93409e-07
-7.15125e-07
2.87181e-07
-7.52134e-07
2.79378e-07
-7.87862e-07
2.70052e-07
-8.22125e-07
2.59262e-07
-8.54749e-07
2.47062e-07
-8.85564e-07
2.33512e-07
-9.1441e-07
2.18673e-07
-9.41134e-07
2.02607e-07
-9.65592e-07
1.85383e-07
-9.87646e-07
1.6707e-07
-1.00717e-06
1.47745e-07
-1.02405e-06
1.27489e-07
-1.03818e-06
1.06389e-07
-1.04947e-06
8.45393e-08
-1.05784e-06
6.20397e-08
-1.06321e-06
3.89982e-08
-1.06553e-06
1.55299e-08
-1.06477e-06
-8.24293e-09
-1.0609e-06
-3.21905e-08
-1.05391e-06
-5.61761e-08
-1.04382e-06
-8.00566e-08
-1.03066e-06
-1.03683e-07
-1.01446e-06
-1.269e-07
-9.95301e-07
-1.49551e-07
-9.73266e-07
-1.71472e-07
-9.48459e-07
-1.92501e-07
-9.21006e-07
-2.12473e-07
-8.91053e-07
-2.31226e-07
-8.58765e-07
-2.48599e-07
-8.24326e-07
-2.64437e-07
-7.87938e-07
-2.78592e-07
-7.49822e-07
-2.90923e-07
-7.10215e-07
-3.013e-07
-6.69369e-07
-3.09606e-07
-6.27549e-07
-3.1574e-07
-5.85031e-07
-3.19615e-07
-5.42102e-07
-3.21166e-07
-4.99054e-07
-3.20347e-07
-4.56185e-07
-3.17134e-07
-4.13793e-07
-3.1153e-07
-3.72174e-07
-3.03563e-07
-3.31621e-07
-2.93289e-07
-2.92418e-07
-2.80794e-07
-2.54836e-07
-2.66196e-07
-2.19134e-07
-2.49643e-07
-1.85552e-07
-2.31321e-07
-1.54308e-07
-2.11449e-07
-1.25598e-07
-1.90284e-07
-9.95903e-08
-1.68123e-07
-7.64268e-08
-1.45304e-07
-5.622e-08
-1.22207e-07
-3.90537e-08
-9.92585e-08
-2.49838e-08
-7.69319e-08
-1.40406e-08
-5.57514e-08
-6.23373e-09
-3.62908e-08
-1.55731e-09
-1.91736e-08
-5.10443e-09
-2.41446e-09
1.19895e-08
-9.32804e-09
3.80437e-08
-2.04388e-08
6.53141e-08
-3.54638e-08
9.31009e-08
-5.41322e-08
1.2083e-07
-7.61815e-08
1.48012e-07
-1.01354e-07
1.74237e-07
-1.29394e-07
1.9917e-07
-1.60047e-07
2.22543e-07
-1.9306e-07
2.44147e-07
-2.28179e-07
2.63824e-07
-2.6515e-07
2.81459e-07
-3.03722e-07
2.96975e-07
-3.43642e-07
3.10325e-07
-3.84662e-07
3.21488e-07
-4.26535e-07
3.30465e-07
-4.69017e-07
3.37272e-07
-5.11869e-07
3.41936e-07
-5.54856e-07
3.44497e-07
-5.97748e-07
3.45e-07
-6.40318e-07
3.43495e-07
-6.82348e-07
3.40038e-07
-7.23623e-07
3.34684e-07
-7.63934e-07
3.27493e-07
-8.0308e-07
3.18524e-07
-8.40865e-07
3.07838e-07
-8.77101e-07
2.95497e-07
-9.11604e-07
2.81566e-07
-9.44201e-07
2.66109e-07
-9.74725e-07
2.49196e-07
-1.00302e-06
2.30898e-07
-1.02892e-06
2.11291e-07
-1.05231e-06
1.90453e-07
-1.07303e-06
1.68472e-07
-1.09098e-06
1.45439e-07
-1.10605e-06
1.21451e-07
-1.11812e-06
9.66154e-08
-1.12713e-06
7.10441e-08
-1.13299e-06
4.48586e-08
-1.13565e-06
1.81884e-08
-1.13506e-06
-8.82875e-09
-1.1312e-06
-3.60472e-08
-1.12407e-06
-6.33132e-08
-1.11366e-06
-9.04659e-08
-1.1e-06
-1.17337e-07
-1.08315e-06
-1.43754e-07
-1.06316e-06
-1.69538e-07
-1.04012e-06
-1.94507e-07
-1.01415e-06
-2.18477e-07
-9.85358e-07
-2.41263e-07
-9.53903e-07
-2.62681e-07
-9.19952e-07
-2.8255e-07
-8.83693e-07
-3.00696e-07
-8.45336e-07
-3.16949e-07
-8.05109e-07
-3.3115e-07
-7.63255e-07
-3.43153e-07
-7.20038e-07
-3.52823e-07
-6.75734e-07
-3.60045e-07
-6.3063e-07
-3.64719e-07
-5.85026e-07
-3.6677e-07
-5.3923e-07
-3.66143e-07
-4.93554e-07
-3.6281e-07
-4.48314e-07
-3.5677e-07
-4.03823e-07
-3.48053e-07
-3.60393e-07
-3.36719e-07
-3.18327e-07
-3.22861e-07
-2.77916e-07
-3.06606e-07
-2.39441e-07
-2.88119e-07
-2.03162e-07
-2.676e-07
-1.69321e-07
-2.4529e-07
-1.38136e-07
-2.2147e-07
-1.09799e-07
-1.9646e-07
-8.44782e-08
-1.70625e-07
-6.23102e-08
-1.44375e-07
-4.34059e-08
-1.18163e-07
-2.78486e-08
-9.24892e-08
-1.56975e-08
-6.79025e-08
-6.99105e-09
-4.49973e-08
-1.75294e-09
-2.44117e-08
-6.85737e-09
-2.63229e-09
1.46218e-08
-1.01529e-08
4.55644e-08
-2.22133e-08
7.73744e-08
-3.84852e-08
1.09373e-07
-5.86555e-08
1.41e-07
-8.24224e-08
1.71779e-07
-1.09493e-07
2.01307e-07
-1.39579e-07
2.29257e-07
-1.724e-07
2.55364e-07
-2.07677e-07
2.79424e-07
-2.45134e-07
3.01281e-07
-2.84499e-07
3.20824e-07
-3.25503e-07
3.37979e-07
-3.6788e-07
3.52702e-07
-4.11369e-07
3.64977e-07
-4.55712e-07
3.74808e-07
-5.00654e-07
3.82214e-07
-5.45947e-07
3.87229e-07
-5.91347e-07
3.89897e-07
-6.36616e-07
3.90269e-07
-6.81521e-07
3.884e-07
-7.25835e-07
3.84352e-07
-7.69338e-07
3.78187e-07
-8.11815e-07
3.69969e-07
-8.53057e-07
3.59766e-07
-8.92863e-07
3.47644e-07
-9.31038e-07
3.33672e-07
-9.67394e-07
3.17922e-07
-1.00175e-06
3.00467e-07
-1.03394e-06
2.81382e-07
-1.06379e-06
2.60747e-07
-1.09114e-06
2.38648e-07
-1.11586e-06
2.15172e-07
-1.1378e-06
1.90415e-07
-1.15684e-06
1.64479e-07
-1.17287e-06
1.37474e-07
-1.18577e-06
1.09517e-07
-1.19546e-06
8.07347e-08
-1.20186e-06
5.12611e-08
-1.20491e-06
2.12406e-08
-1.20457e-06
-9.17373e-09
-1.2008e-06
-3.98197e-08
-1.19358e-06
-7.05263e-08
-1.18293e-06
-1.01114e-07
-1.16887e-06
-1.31398e-07
-1.15145e-06
-1.61182e-07
-1.13072e-06
-1.9027e-07
-1.10677e-06
-2.18457e-07
-1.0797e-06
-2.45538e-07
-1.04966e-06