/*--------------------------------*- C++ -*----------------------------------*\
  =========                 |
  \\      /  F ield         | OpenFOAM: The Open Source CFD Toolbox
   \\    /   O peration     | Website:  https://openfoam.org
    \\  /    A nd           | Version:  7
     \\/     M anipulation  |
\*---------------------------------------------------------------------------*/
FoamFile
{
    version     2.0;
    format      ascii;
    class       volVectorField;
    location    "1";
    object      U;
}
// * * * * * * * * * * * * * * * * * * * * * * * * * * * * * * * * * * * * * //

dimensions      [0 1 -1 0 0 0 0];

internalField   nonuniform List<vector> 
6400
(
(7.5504e-06 -8.04656e-06 0)
(3.05822e-05 -1.4859e-05 0)
(5.94686e-05 -1.3864e-05 0)
(7.83201e-05 -8.77454e-06 0)
(7.9142e-05 -1.97891e-06 0)
(5.91289e-05 5.30602e-06 0)
(1.76025e-05 1.2471e-05 0)
(-4.49795e-05 1.92179e-05 0)
(-0.00012748 2.54082e-05 0)
(-0.000228384 3.09847e-05 0)
(-0.000345984 3.59334e-05 0)
(-0.000478487 4.02634e-05 0)
(-0.000624083 4.39958e-05 0)
(-0.000780985 4.71582e-05 0)
(-0.000947455 4.97812e-05 0)
(-0.00112182 5.18964e-05 0)
(-0.00130248 5.35344e-05 0)
(-0.00148792 5.47249e-05 0)
(-0.00167668 5.54956e-05 0)
(-0.00186739 5.58721e-05 0)
(-0.00205875 5.58774e-05 0)
(-0.00224952 5.55322e-05 0)
(-0.00243852 5.48551e-05 0)
(-0.00262464 5.3862e-05 0)
(-0.00280678 5.25673e-05 0)
(-0.00298393 5.09834e-05 0)
(-0.00315509 4.91212e-05 0)
(-0.00331932 4.69906e-05 0)
(-0.00347569 4.46006e-05 0)
(-0.00362333 4.19597e-05 0)
(-0.00376138 3.90765e-05 0)
(-0.00388904 3.59597e-05 0)
(-0.00400551 3.26187e-05 0)
(-0.00411006 2.90636e-05 0)
(-0.00420199 2.5306e-05 0)
(-0.00428064 2.13589e-05 0)
(-0.00434542 1.7237e-05 0)
(-0.00439578 1.2957e-05 0)
(-0.00443124 8.53785e-06 0)
(-0.00445139 4.0007e-06 0)
(-0.0044559 -6.30882e-07 0)
(-0.00444453 -5.33094e-06 0)
(-0.00441711 -1.00711e-05 0)
(-0.00437361 -1.48208e-05 0)
(-0.00431408 -1.95469e-05 0)
(-0.00423868 -2.42148e-05 0)
(-0.0041477 -2.87877e-05 0)
(-0.00404155 -3.32273e-05 0)
(-0.00392078 -3.74945e-05 0)
(-0.00378604 -4.15491e-05 0)
(-0.00363815 -4.53508e-05 0)
(-0.00347803 -4.88593e-05 0)
(-0.00330673 -5.20354e-05 0)
(-0.00312545 -5.48405e-05 0)
(-0.00293548 -5.72381e-05 0)
(-0.00273825 -5.91939e-05 0)
(-0.00253528 -6.06761e-05 0)
(-0.00232819 -6.16565e-05 0)
(-0.00211867 -6.21104e-05 0)
(-0.00190849 -6.20171e-05 0)
(-0.00169948 -6.13607e-05 0)
(-0.0014935 -6.01298e-05 0)
(-0.00129244 -5.83182e-05 0)
(-0.00109819 -5.59247e-05 0)
(-0.000912613 -5.29538e-05 0)
(-0.000737556 -4.94152e-05 0)
(-0.0005748 -4.53247e-05 0)
(-0.000426045 -4.07045e-05 0)
(-0.000292888 -3.55838e-05 0)
(-0.000176786 -3.00003e-05 0)
(-7.90216e-05 -2.40033e-05 0)
(-6.4885e-07 -1.76588e-05 0)
(5.75748e-05 -1.10599e-05 0)
(9.52984e-05 -4.34578e-06 0)
(0.000112755 2.25796e-06 0)
(0.000111042 8.37122e-06 0)
(9.25195e-05 1.33352e-05 0)
(6.16688e-05 1.59572e-05 0)
(2.76812e-05 1.41512e-05 0)
(5.73494e-06 5.7422e-06 0)
(1.46182e-05 -3.13627e-05 0)
(5.07089e-05 -5.11237e-05 0)
(8.47171e-05 -4.05342e-05 0)
(9.04617e-05 -1.25255e-05 0)
(5.27005e-05 2.432e-05 0)
(-3.56371e-05 6.47952e-05 0)
(-0.000177326 0.000105785 0)
(-0.000372327 0.000145447 0)
(-0.000618708 0.00018271 0)
(-0.00091332 0.000216968 0)
(-0.00125228 0.000247905 0)
(-0.00163127 0.000275384 0)
(-0.00204578 0.000299383 0)
(-0.00249121 0.000319954 0)
(-0.002963 0.000337194 0)
(-0.0034567 0.000351224 0)
(-0.00396794 0.000362184 0)
(-0.00449257 0.000370215 0)
(-0.00502655 0.00037546 0)
(-0.00556605 0.000378056 0)
(-0.00610739 0.000378135 0)
(-0.00664707 0.000375817 0)
(-0.00718171 0.000371213 0)
(-0.00770812 0.000364426 0)
(-0.0082232 0.000355549 0)
(-0.008724 0.000344667 0)
(-0.00920769 0.000331856 0)
(-0.00967154 0.000317191 0)
(-0.0101129 0.000300741 0)
(-0.0105293 0.000282573 0)
(-0.0109183 0.000262756 0)
(-0.0112776 0.00024136 0)
(-0.011605 0.000218459 0)
(-0.0118985 0.000194136 0)
(-0.012156 0.000168479 0)
(-0.0123757 0.000141586 0)
(-0.0125561 0.000113567 0)
(-0.0126957 8.45426e-05 0)
(-0.012793 5.4648e-05 0)
(-0.0128471 2.40315e-05 0)
(-0.0128572 -7.14417e-06 0)
(-0.0128225 -3.8702e-05 0)
(-0.0127427 -7.04508e-05 0)
(-0.0126177 -0.000102186 0)
(-0.0124479 -0.000133689 0)
(-0.0122336 -0.000164733 0)
(-0.0119759 -0.000195076 0)
(-0.0116758 -0.000224474 0)
(-0.011335 -0.000252672 0)
(-0.0109554 -0.000279414 0)
(-0.0105392 -0.000304444 0)
(-0.010089 -0.000327507 0)
(-0.00960789 -0.000348353 0)
(-0.00909908 -0.000366743 0)
(-0.00856623 -0.000382448 0)
(-0.00801326 -0.000395255 0)
(-0.00744438 -0.00040497 0)
(-0.00686405 -0.000411418 0)
(-0.00627693 -0.000414453 0)
(-0.00568787 -0.000413953 0)
(-0.00510187 -0.000409829 0)
(-0.00452401 -0.000402022 0)
(-0.0039594 -0.000390509 0)
(-0.00341318 -0.000375305 0)
(-0.00289038 -0.000356462 0)
(-0.00239595 -0.000334076 0)
(-0.00193463 -0.000308287 0)
(-0.0015109 -0.000279287 0)
(-0.0011289 -0.000247327 0)
(-0.000792327 -0.00021273 0)
(-0.000504315 -0.000175908 0)
(-0.000267291 -0.000137399 0)
(-8.27593e-05 -9.79227e-05 0)
(4.89735e-05 -5.84676e-05 0)
(0.000129213 -2.04465e-05 0)
(0.000161446 1.40591e-05 0)
(0.000151993 4.19175e-05 0)
(0.000111085 5.83606e-05 0)
(5.6263e-05 5.62937e-05 0)
(1.40952e-05 2.76363e-05 0)
(1.39326e-05 -6.00684e-05 0)
(4.08297e-05 -8.51759e-05 0)
(4.87537e-05 -4.83258e-05 0)
(9.1768e-06 2.60257e-05 0)
(-9.54754e-05 0.00012142 0)
(-0.000274388 0.000226716 0)
(-0.000531656 0.00033453 0)
(-0.000867686 0.000440078 0)
(-0.00128021 0.000540316 0)
(-0.00176512 0.000633352 0)
(-0.00231707 0.000718064 0)
(-0.00292997 0.000793846 0)
(-0.00359724 0.000860444 0)
(-0.00431212 0.000917836 0)
(-0.00506774 0.000966155 0)
(-0.00585733 0.00100564 0)
(-0.00667423 0.00103658 0)
(-0.00751195 0.00105931 0)
(-0.00836424 0.00107418 0)
(-0.00922505 0.00108152 0)
(-0.0100886 0.00108168 0)
(-0.0109493 0.00107497 0)
(-0.0118017 0.00106169 0)
(-0.0126409 0.00104212 0)
(-0.0134618 0.00101652 0)
(-0.0142596 0.000985129 0)
(-0.0150299 0.000948179 0)
(-0.0157683 0.000905882 0)
(-0.0164706 0.000858448 0)
(-0.0171328 0.000806081 0)
(-0.0177509 0.000748992 0)
(-0.0183214 0.000687397 0)
(-0.0188408 0.000621524 0)
(-0.0193057 0.00055162 0)
(-0.0197131 0.000477955 0)
(-0.0200603 0.000400822 0)
(-0.0203445 0.000320548 0)
(-0.0205636 0.00023749 0)
(-0.0207155 0.000152041 0)
(-0.0207986 6.46325e-05 0)
(-0.0208116 -2.42666e-05 0)
(-0.0207535 -0.000114149 0)
(-0.020624 -0.00020447 0)
(-0.020423 -0.000294648 0)
(-0.0201509 -0.000384068 0)
(-0.0198087 -0.000472088 0)
(-0.0193977 -0.000558035 0)
(-0.0189199 -0.000641221 0)
(-0.018378 -0.00072094 0)
(-0.0177748 -0.000796481 0)
(-0.0171141 -0.000867131 0)
(-0.0163999 -0.000932188 0)
(-0.0156371 -0.000990964 0)
(-0.0148306 -0.0010428 0)
(-0.0139864 -0.00108706 0)
(-0.0131104 -0.00112318 0)
(-0.0122093 -0.00115061 0)
(-0.01129 -0.0011689 0)
(-0.0103599 -0.00117764 0)
(-0.00942631 -0.00117652 0)
(-0.00849713 -0.0011653 0)
(-0.00758017 -0.00114383 0)
(-0.00668336 -0.0011121 0)
(-0.00581456 -0.00107015 0)
(-0.00498155 -0.00101817 0)
(-0.00419187 -0.00095648 0)
(-0.00345272 -0.000885516 0)
(-0.00277087 -0.000805879 0)
(-0.0021525 -0.000718346 0)
(-0.00160308 -0.000623909 0)
(-0.00112713 -0.000523829 0)
(-0.000728004 -0.00041972 0)
(-0.000407637 -0.000313678 0)
(-0.000166116 -0.00020848 0)
(-1.19847e-06 -0.000107875 0)
(9.23274e-05 -1.70218e-05 0)
(0.000123288 5.69189e-05 0)
(0.000105018 0.000104072 0)
(5.87228e-05 0.000111172 0)
(1.59427e-05 6.1566e-05 0)
(9.1018e-06 -7.92634e-05 0)
(1.34643e-05 -9.1359e-05 0)
(-2.48538e-05 -8.90462e-06 0)
(-0.000131431 0.000132368 0)
(-0.000323157 0.000308174 0)
(-0.000609669 0.000501188 0)
(-0.000995369 0.000699271 0)
(-0.00148065 0.000894126 0)
(-0.00206286 0.00108019 0)
(-0.00273716 0.00125379 0)
(-0.00349712 0.00141264 0)
(-0.00433528 0.00155537 0)
(-0.0052435 0.00168129 0)
(-0.00621324 0.00179015 0)
(-0.00723581 0.00188206 0)
(-0.0083025 0.00195733 0)
(-0.00940468 0.00201639 0)
(-0.0105339 0.00205979 0)
(-0.011682 0.00208811 0)
(-0.0128409 0.00210194 0)
(-0.0140029 0.00210188 0)
(-0.0151607 0.0020885 0)
(-0.0163071 0.00206236 0)
(-0.0174351 0.00202398 0)
(-0.0185382 0.00197384 0)
(-0.0196101 0.00191242 0)
(-0.0206445 0.00184015 0)
(-0.0216356 0.00175747 0)
(-0.0225778 0.00166478 0)
(-0.0234657 0.0015625 0)
(-0.024294 0.00145106 0)
(-0.025058 0.00133089 0)
(-0.0257529 0.00120246 0)
(-0.0263744 0.00106627 0)
(-0.0269185 0.000922848 0)
(-0.0273813 0.000772793 0)
(-0.0277595 0.00061675 0)
(-0.0280502 0.000455427 0)
(-0.0282507 0.000289598 0)
(-0.0283589 0.000120107 0)
(-0.0283732 -5.21315e-05 0)
(-0.0282924 -0.000226133 0)
(-0.0281161 -0.000400843 0)
(-0.0278441 -0.000575142 0)
(-0.0274773 -0.000747848 0)
(-0.0270169 -0.000917727 0)
(-0.0264649 -0.0010835 0)
(-0.0258239 -0.00124384 0)
(-0.0250975 -0.00139742 0)
(-0.0242895 -0.00154288 0)
(-0.023405 -0.00167888 0)
(-0.0224495 -0.00180407 0)
(-0.021429 -0.00191717 0)
(-0.0203506 -0.00201692 0)
(-0.0192218 -0.00210215 0)
(-0.0180506 -0.00217177 0)
(-0.0168458 -0.00222478 0)
(-0.0156164 -0.00226031 0)
(-0.014372 -0.00227763 0)
(-0.0131226 -0.00227615 0)
(-0.0118781 -0.00225545 0)
(-0.010649 -0.00221529 0)
(-0.00944543 -0.00215564 0)
(-0.00827777 -0.00207666 0)
(-0.00715606 -0.00197876 0)
(-0.00609005 -0.00186256 0)
(-0.00508903 -0.00172899 0)
(-0.00416169 -0.00157926 0)
(-0.00331588 -0.00141494 0)
(-0.0025585 -0.001238 0)
(-0.00189518 -0.00105095 0)
(-0.00133004 -0.000856922 0)
(-0.000865342 -0.000659908 0)
(-0.000501091 -0.000465043 0)
(-0.000234511 -0.000279015 0)
(-5.94625e-05 -0.000110625 0)
(3.41368e-05 2.84705e-05 0)
(6.10574e-05 0.000122981 0)
(4.35515e-05 0.000153148 0)
(1.35422e-05 9.27412e-05 0)
(2.4969e-06 -8.08425e-05 0)
(-2.31377e-05 -5.41709e-05 0)
(-0.000120673 9.58939e-05 0)
(-0.000308995 0.000324345 0)
(-0.000602146 0.000599945 0)
(-0.00100895 0.00089965 0)
(-0.00153319 0.0012067 0)
(-0.00217469 0.00150921 0)
(-0.00293019 0.00179887 0)
(-0.00379406 0.00207002 0)
(-0.00475895 0.00231892 0)
(-0.00581626 0.00254324 0)
(-0.00695655 0.00274166 0)
(-0.00816985 0.00291362 0)
(-0.00944595 0.00305905 0)
(-0.0107745 0.00317829 0)
(-0.0121452 0.00327188 0)
(-0.013548 0.00334056 0)
(-0.0149729 0.00338515 0)
(-0.0164102 0.00340652 0)
(-0.0178506 0.00340555 0)
(-0.019285 0.00338311 0)
(-0.0207046 0.00334004 0)
(-0.022101 0.00327716 0)
(-0.0234659 0.00319524 0)
(-0.0247917 0.00309504 0)
(-0.0260706 0.00297725 0)
(-0.0272955 0.00284258 0)
(-0.0284594 0.0026917 0)
(-0.0295556 0.00252532 0)
(-0.0305778 0.00234413 0)
(-0.03152 0.00214886 0)
(-0.0323764 0.0019403 0)
(-0.0331417 0.00171926 0)
(-0.0338111 0.00148665 0)
(-0.0343798 0.00124344 0)
(-0.0348439 0.000990698 0)
(-0.0351997 0.000729586 0)
(-0.0354441 0.000461368 0)
(-0.0355746 0.000187418 0)
(-0.0355892 -9.0783e-05 0)
(-0.0354867 -0.000371643 0)
(-0.0352665 -0.000653464 0)
(-0.0349288 -0.000934446 0)
(-0.0344743 -0.0012127 0)
(-0.0339048 -0.00148625 0)
(-0.0332228 -0.00175304 0)
(-0.0324316 -0.002011 0)
(-0.0315354 -0.00225798 0)
(-0.0305392 -0.00249184 0)
(-0.0294491 -0.00271044 0)
(-0.0282717 -0.00291167 0)
(-0.0270146 -0.00309349 0)
(-0.0256863 -0.00325393 0)
(-0.0242958 -0.00339114 0)
(-0.0228531 -0.00350339 0)
(-0.0213686 -0.00358914 0)
(-0.0198534 -0.00364702 0)
(-0.018319 -0.00367589 0)
(-0.0167773 -0.00367486 0)
(-0.0152407 -0.00364328 0)
(-0.0137213 -0.00358083 0)
(-0.0122318 -0.00348748 0)
(-0.0107843 -0.00336355 0)
(-0.00939102 -0.00320973 0)
(-0.00806353 -0.0030271 0)
(-0.00681293 -0.0028172 0)
(-0.00564953 -0.00258204 0)
(-0.00458264 -0.0023242 0)
(-0.00362038 -0.00204691 0)
(-0.00276935 -0.00175419 0)
(-0.00203437 -0.00145103 0)
(-0.00141813 -0.00114366 0)
(-0.00092077 -0.000839898 0)
(-0.00053944 -0.000549632 0)
(-0.000267773 -0.000285476 0)
(-9.53869e-05 -6.35782e-05 0)
(-7.24535e-06 9.55242e-05 0)
(1.7997e-05 0.000165859 0)
(9.01713e-06 0.000112513 0)
(-4.72017e-06 -6.16454e-05 0)
(-6.41494e-05 3.43178e-05 0)
(-0.000228605 0.000276668 0)
(-0.000508109 0.000613596 0)
(-0.000912384 0.00100815 0)
(-0.00144844 0.0014323 0)
(-0.00211871 0.00186511 0)
(-0.00292188 0.00229124 0)
(-0.00385372 0.00269969 0)
(-0.00490771 0.00308271 0)
(-0.00607553 0.00343499 0)
(-0.00734753 0.00375311 0)
(-0.00871314 0.00403502 0)
(-0.0101612 0.0042797 0)
(-0.0116801 0.00448685 0)
(-0.0132582 0.00465675 0)
(-0.0148837 0.00479003 0)
(-0.0165451 0.00488757 0)
(-0.018231 0.00495044 0)
(-0.0199302 0.00497977 0)
(-0.0216318 0.00497675 0)
(-0.0233253 0.00494257 0)
(-0.0250004 0.0048784 0)
(-0.0266474 0.00478538 0)
(-0.0282567 0.00466461 0)
(-0.029819 0.00451715 0)
(-0.0313256 0.00434405 0)
(-0.0327679 0.00414632 0)
(-0.0341378 0.00392497 0)
(-0.0354275 0.00368102 0)
(-0.0366295 0.00341552 0)
(-0.0377369 0.00312957 0)
(-0.0387429 0.00282432 0)
(-0.0396413 0.00250101 0)
(-0.0404265 0.00216097 0)
(-0.0410931 0.00180567 0)
(-0.0416363 0.00143666 0)
(-0.0420521 0.00105566 0)
(-0.0423369 0.000664537 0)
(-0.0424878 0.000265291 0)
(-0.0425026 -0.000139914 0)
(-0.0423799 -0.000548761 0)
(-0.0421191 -0.000958785 0)
(-0.0417205 -0.00136738 0)
(-0.0411851 -0.00177182 0)
(-0.0405149 -0.00216925 0)
(-0.0397129 -0.00255674 0)
(-0.0387831 -0.00293127 0)
(-0.0377303 -0.00328978 0)
(-0.0365605 -0.00362921 0)
(-0.0352806 -0.00394648 0)
(-0.0338984 -0.0042386 0)
(-0.0324227 -0.00450264 0)
(-0.0308633 -0.0047358 0)
(-0.0292308 -0.00493544 0)
(-0.0275364 -0.00509911 0)
(-0.0257925 -0.00522463 0)
(-0.0240116 -0.00531005 0)
(-0.0222072 -0.00535379 0)
(-0.0203929 -0.00535458 0)
(-0.0185828 -0.00531156 0)
(-0.0167912 -0.00522429 0)
(-0.0150322 -0.00509279 0)
(-0.01332 -0.00491757 0)
(-0.0116685 -0.00469969 0)
(-0.010091 -0.00444078 0)
(-0.00860005 -0.00414311 0)
(-0.00720749 -0.00380965 0)
(-0.00592392 -0.00344419 0)
(-0.00475855 -0.00305139 0)
(-0.00371893 -0.00263704 0)
(-0.00281063 -0.00220819 0)
(-0.00203691 -0.00177353 0)
(-0.00139834 -0.00134372 0)
(-0.000892399 -0.000931962 0)
(-0.000513102 -0.000554643 0)
(-0.000250511 -0.000232222 0)
(-9.0224e-05 9.90796e-06 0)
(-1.32234e-05 0.000140251 0)
(3.55586e-06 0.000116963 0)
(-1.20002e-05 -2.04919e-05 0)
(-0.000106817 0.000178234 0)
(-0.000342227 0.000539662 0)
(-0.000718397 0.00100745 0)
(-0.00123984 0.00154026 0)
(-0.00191105 0.00210601 0)
(-0.00273246 0.00268012 0)
(-0.00370113 0.00324419 0)
(-0.00481157 0.00378466 0)
(-0.0060561 0.00429177 0)
(-0.00742535 0.00475866 0)
(-0.00890864 0.00518075 0)
(-0.0104943 0.00555518 0)
(-0.01217 0.00588042 0)
(-0.0139232 0.00615589 0)
(-0.0157407 0.00638174 0)
(-0.0176098 0.00655865 0)
(-0.0195175 0.00668763 0)
(-0.0214511 0.00676997 0)
(-0.0233982 0.00680707 0)
(-0.0253465 0.00680042 0)
(-0.0272843 0.00675154 0)
(-0.0292 0.00666196 0)
(-0.0310825 0.00653316 0)
(-0.032921 0.00636661 0)
(-0.0347052 0.00616373 0)
(-0.036425 0.00592593 0)
(-0.0380708 0.00565459 0)
(-0.0396333 0.00535111 0)
(-0.0411038 0.00501688 0)
(-0.0424738 0.00465337 0)
(-0.0437354 0.00426209 0)
(-0.044881 0.00384465 0)
(-0.0459037 0.00340276 0)
(-0.046797 0.00293828 0)
(-0.0475549 0.00245321 0)
(-0.0481721 0.00194971 0)
(-0.0486441 0.00143013 0)
(-0.0489668 0.000897026 0)
(-0.0491371 0.000353133 0)
(-0.0491525 -0.000198601 0)
(-0.0490116 -0.000755032 0)
(-0.0487137 -0.00131282 0)
(-0.0482591 -0.00186844 0)
(-0.0476491 -0.0024182 0)
(-0.046886 -0.00295828 0)
(-0.0459732 -0.0034847 0)
(-0.0449153 -0.00399343 0)
(-0.0437177 -0.00448036 0)
(-0.042387 -0.00494137 0)
(-0.0409312 -0.00537237 0)
(-0.0393589 -0.00576932 0)
(-0.0376802 -0.00612833 0)
(-0.0359058 -0.00644566 0)
(-0.0340477 -0.00671777 0)
(-0.0321186 -0.00694144 0)
(-0.030132 -0.00711372 0)
(-0.0281022 -0.00723207 0)
(-0.0260442 -0.00729438 0)
(-0.0239731 -0.00729899 0)
(-0.0219048 -0.00724479 0)
(-0.019855 -0.00713123 0)
(-0.0178397 -0.00695839 0)
(-0.0158746 -0.00672702 0)
(-0.0139752 -0.00643861 0)
(-0.0121562 -0.00609541 0)
(-0.0104317 -0.00570053 0)
(-0.00881482 -0.00525804 0)
(-0.00731741 -0.00477303 0)
(-0.00594976 -0.0042518 0)
(-0.00472038 -0.00370202 0)
(-0.0036357 -0.00313298 0)
(-0.00269973 -0.0025559 0)
(-0.00191374 -0.00198436 0)
(-0.00127597 -0.00143483 0)
(-0.00078127 -0.000927338 0)
(-0.000420749 -0.000486334 0)
(-0.000181307 -0.000141522 0)
(-4.71896e-05 7.09781e-05 0)
(-2.21677e-06 0.000104223 0)
(-1.90956e-05 4.28301e-05 0)
(-0.000149607 0.000379339 0)
(-0.000457586 0.000888096 0)
(-0.000933091 0.00151006 0)
(-0.00157499 0.00220077 0)
(-0.00238476 0.002925 0)
(-0.00336039 0.00365522 0)
(-0.00449694 0.0043704 0)
(-0.00578727 0.00505472 0)
(-0.0072224 0.00569657 0)
(-0.00879173 0.00628761 0)
(-0.0104835 0.00682215 0)
(-0.0122849 0.00729652 0)
(-0.0141827 0.00770864 0)
(-0.0161629 0.00805761 0)
(-0.0182117 0.00834346 0)
(-0.020315 0.00856685 0)
(-0.0224587 0.00872892 0)
(-0.024629 0.00883115 0)
(-0.0268122 0.00887521 0)
(-0.0289951 0.00886291 0)
(-0.0311646 0.0087961 0)
(-0.0333081 0.00867666 0)
(-0.0354133 0.00850646 0)
(-0.0374684 0.00828735 0)
(-0.0394619 0.00802116 0)
(-0.0413826 0.00770968 0)
(-0.0432201 0.0073547 0)
(-0.0449641 0.00695805 0)
(-0.0466047 0.00652156 0)
(-0.0481328 0.00604715 0)
(-0.0495395 0.00553681 0)
(-0.0508166 0.00499266 0)
(-0.0519563 0.00441697 0)
(-0.0529515 0.00381216 0)
(-0.0537957 0.00318086 0)
(-0.054483 0.00252591 0)
(-0.0550085 0.00185037 0)
(-0.0553677 0.00115756 0)
(-0.0555572 0.000451046 0)
(-0.0555744 -0.000265354 0)
(-0.0554176 -0.000987571 0)
(-0.0550862 -0.00171129 0)
(-0.0545806 -0.00243198 0)
(-0.0539021 -0.00314487 0)
(-0.0530535 -0.00384506 0)
(-0.0520385 -0.00452745 0)
(-0.0508619 -0.00518686 0)
(-0.0495299 -0.00581803 0)
(-0.0480499 -0.00641569 0)
(-0.0464302 -0.00697461 0)
(-0.0446807 -0.00748965 0)
(-0.0428122 -0.00795581 0)
(-0.0408365 -0.00836833 0)
(-0.0387668 -0.00872273 0)
(-0.0366169 -0.00901486 0)
(-0.0344017 -0.00924101 0)
(-0.0321367 -0.00939794 0)
(-0.0298384 -0.00948297 0)
(-0.0275233 -0.00949404 0)
(-0.0252087 -0.00942974 0)
(-0.022912 -0.00928942 0)
(-0.0206505 -0.00907323 0)
(-0.0184414 -0.00878219 0)
(-0.0163016 -0.00841824 0)
(-0.0142474 -0.00798433 0)
(-0.0122941 -0.00748451 0)
(-0.0104562 -0.00692398 0)
(-0.00874655 -0.0063093 0)
(-0.00717673 -0.00564846 0)
(-0.00575625 -0.00495112 0)
(-0.00449253 -0.00422886 0)
(-0.00339052 -0.00349548 0)
(-0.00245249 -0.00276747 0)
(-0.00167772 -0.00206443 0)
(-0.00106235 -0.00140981 0)
(-0.000598954 -0.000831656 0)
(-0.000276205 -0.000363394 0)
(-8.21408e-05 -4.48362e-05 0)
(-7.9759e-06 7.35503e-05 0)
(-2.59081e-05 0.000127998 0)
(-0.000191696 0.000637874 0)
(-0.00057231 0.00132307 0)
(-0.00114788 0.00212323 0)
(-0.00191147 0.00299188 0)
(-0.00286131 0.00389151 0)
(-0.00399258 0.00479231 0)
(-0.00529803 0.0056711 0)
(-0.00676867 0.00651018 0)
(-0.00839393 0.00729629 0)
(-0.0101619 0.00801981 0)
(-0.0120596 0.008674 0)
(-0.0140731 0.00925445 0)
(-0.016188 0.00975854 0)
(-0.0183896 0.0101851 0)
(-0.0206628 0.0105339 0)
(-0.0229924 0.0108057 0)
(-0.0253635 0.0110017 0)
(-0.0277612 0.0111235 0)
(-0.0301708 0.0111732 0)
(-0.0325779 0.0111529 0)
(-0.0349686 0.0110646 0)
(-0.0373292 0.0109107 0)
(-0.0396463 0.0106935 0)
(-0.0419072 0.0104152 0)
(-0.0440994 0.010078 0)
(-0.0462109 0.00968424 0)
(-0.0482302 0.00923606 0)
(-0.0501461 0.00873576 0)
(-0.0519482 0.00818568 0)
(-0.0536262 0.00758823 0)
(-0.0551707 0.00694593 0)
(-0.0565726 0.00626147 0)
(-0.0578237 0.0055377 0)
(-0.0589161 0.00477771 0)
(-0.0598428 0.0039848 0)
(-0.0605976 0.00316255 0)
(-0.0611749 0.00231482 0)
(-0.0615701 0.00144576 0)
(-0.0617794 0.000559848 0)
(-0.0618001 -0.000338156 0)
(-0.0616303 -0.00124317 0)
(-0.0612693 -0.00214983 0)
(-0.0607177 -0.00305247 0)
(-0.0599769 -0.00394521 0)
(-0.0590497 -0.00482193 0)
(-0.0579402 -0.00567634 0)
(-0.0566537 -0.00650201 0)
(-0.0551969 -0.00729244 0)
(-0.0535775 -0.00804111 0)
(-0.0518047 -0.00874156 0)
(-0.0498891 -0.00938743 0)
(-0.0478422 -0.00997257 0)
(-0.045677 -0.0104911 0)
(-0.0434073 -0.0109375 0)
(-0.0410483 -0.0113066 0)
(-0.038616 -0.0115939 0)
(-0.036127 -0.0117955 0)
(-0.033599 -0.0119079 0)
(-0.03105 -0.0119287 0)
(-0.0284986 -0.0118562 0)
(-0.0259634 -0.0116896 0)
(-0.0234633 -0.0114291 0)
(-0.0210168 -0.011076 0)
(-0.0186422 -0.0106327 0)
(-0.016357 -0.010103 0)
(-0.0141779 -0.00949184 0)
(-0.0121207 -0.00880567 0)
(-0.0101996 -0.00805251 0)
(-0.00842715 -0.00724214 0)
(-0.0068141 -0.00638625 0)
(-0.005369 -0.00549871 0)
(-0.00409796 -0.00459592 0)
(-0.00300445 -0.00369713 0)
(-0.00208911 -0.00282498 0)
(-0.00134966 -0.00200604 0)
(-0.000780447 -0.00127156 0)
(-0.000372232 -0.000658114 0)
(-0.00011706 -0.000208378 0)
(-1.35636e-05 2.48718e-05 0)
(-3.2409e-05 0.00023442 0)
(-0.000232666 0.000953163 0)
(-0.00068503 0.00184429 0)
(-0.00136008 0.00284715 0)
(-0.00224517 0.00391413 0)
(-0.0033351 0.00500622 0)
(-0.00462211 0.00609195 0)
(-0.0060964 0.0071465 0)
(-0.0077469 0.00815066 0)
(-0.00956131 0.00908983 0)
(-0.0115262 0.00995328 0)
(-0.0136273 0.0107334 0)
(-0.0158497 0.0114251 0)
(-0.0181777 0.0120252 0)
(-0.0205955 0.0125324 0)
(-0.0230872 0.0129463 0)
(-0.0256367 0.0132676 0)
(-0.028228 0.0134977 0)
(-0.0308453 0.0136385 0)
(-0.0334729 0.013692 0)
(-0.0360957 0.0136608 0)
(-0.0386987 0.0135474 0)
(-0.0412673 0.0133544 0)
(-0.0437873 0.0130845 0)
(-0.046245 0.0127405 0)
(-0.0486271 0.0123249 0)
(-0.0509208 0.0118405 0)
(-0.0531137 0.0112899 0)
(-0.0551939 0.0106761 0)
(-0.0571501 0.0100016 0)
(-0.0589716 0.00926969 0)
(-0.060648 0.00848328 0)
(-0.0621697 0.0076457 0)
(-0.0635278 0.00676048 0)
(-0.0647141 0.00583137 0)
(-0.0657209 0.00486243 0)
(-0.0665415 0.00385804 0)
(-0.0671701 0.00282291 0)
(-0.0676016 0.0017621 0)
(-0.0678321 0.000681039 0)
(-0.0678585 -0.000414476 0)
(-0.0676789 -0.00151829 0)
(-0.0672926 -0.00262389 0)
(-0.0667 -0.00372445 0)
(-0.0659027 -0.00481285 0)
(-0.0649037 -0.00588169 0)
(-0.0637072 -0.00692339 0)
(-0.0623189 -0.00793021 0)
(-0.0607457 -0.00889431 0)
(-0.0589961 -0.00980784 0)
(-0.0570797 -0.010663 0)
(-0.0550077 -0.0114522 0)
(-0.0527924 -0.012168 0)
(-0.0504475 -0.0128032 0)
(-0.0479878 -0.0133514 0)
(-0.0454294 -0.0138063 0)
(-0.0427892 -0.0141624 0)
(-0.0400852 -0.014415 0)
(-0.0373361 -0.01456 0)
(-0.034561 -0.0145945 0)
(-0.0317799 -0.0145164 0)
(-0.0290126 -0.0143248 0)
(-0.0262794 -0.0140199 0)
(-0.0236 -0.0136034 0)
(-0.0209941 -0.0130782 0)
(-0.0184805 -0.0124486 0)
(-0.0160774 -0.0117208 0)
(-0.0138017 -0.0109024 0)
(-0.0116688 -0.0100029 0)
(-0.00969281 -0.00903398 0)
(-0.00788558 -0.00800928 0)
(-0.00625697 -0.006945 0)
(-0.00481444 -0.00586001 0)
(-0.00356289 -0.00477627 0)
(-0.00250454 -0.00371925 0)
(-0.00163889 -0.00271839 0)
(-0.000962328 -0.00180779 0)
(-0.000467806 -0.00102662 0)
(-0.000151401 -0.000419792 0)
(-1.89151e-05 -4.15225e-05 0)
(-3.86028e-05 0.000361396 0)
(-0.00027233 0.00132402 0)
(-0.000794996 0.0024506 0)
(-0.00156812 0.00368087 0)
(-0.00257349 0.00496683 0)
(-0.00380249 0.00626858 0)
(-0.0052443 0.0075536 0)
(-0.00688645 0.00879589 0)
(-0.00871565 0.00997511 0)
(-0.0107177 0.0110756 0)
(-0.0128776 0.0120859 0)
(-0.0151797 0.0129975 0)
(-0.0176077 0.0138048 0)
(-0.020145 0.0145045 0)
(-0.0227747 0.0150947 0)
(-0.0254799 0.0155751 0)
(-0.0282436 0.0159465 0)
(-0.031049 0.0162103 0)
(-0.0338792 0.0163685 0)
(-0.036718 0.0164237 0)
(-0.0395491 0.0163786 0)
(-0.0423569 0.0162362 0)
(-0.0451259 0.0159994 0)
(-0.0478412 0.0156713 0)
(-0.0504883 0.0152551 0)
(-0.053053 0.0147539 0)
(-0.0555219 0.0141709 0)
(-0.0578818 0.0135092 0)
(-0.0601201 0.0127723 0)
(-0.0622248 0.0119634 0)
(-0.0641845 0.0110861 0)
(-0.0659883 0.0101441 0)
(-0.0676261 0.00914137 0)
(-0.0690883 0.0080821 0)
(-0.0703661 0.00697078 0)
(-0.0714516 0.00581228 0)
(-0.0723375 0.00461181 0)
(-0.0730176 0.00337497 0)
(-0.0734867 0.00210781 0)
(-0.0737404 0.000816762 0)
(-0.0737754 -0.00049128 0)
(-0.0735898 -0.00180902 0)
(-0.0731826 -0.00312876 0)
(-0.0725542 -0.0044424 0)
(-0.0717063 -0.00574153 0)
(-0.0706419 -0.00701742 0)
(-0.0693655 -0.00826111 0)
(-0.067883 -0.00946345 0)
(-0.0662015 -0.0106152 0)
(-0.06433 -0.0117071 0)
(-0.0622784 -0.01273 0)
(-0.0600586 -0.0136748 0)
(-0.0576834 -0.0145328 0)
(-0.0551674 -0.0152957 0)
(-0.052526 -0.0159556 0)
(-0.0497762 -0.0165053 0)
(-0.0469358 -0.0169382 0)
(-0.0440239 -0.0172487 0)
(-0.0410602 -0.0174322 0)
(-0.038065 -0.0174849 0)
(-0.0350594 -0.0174046 0)
(-0.0320645 -0.0171901 0)
(-0.0291018 -0.0168418 0)
(-0.0261924 -0.0163613 0)
(-0.0233572 -0.0157522 0)
(-0.0206166 -0.0150197 0)
(-0.0179898 -0.0141707 0)
(-0.0154953 -0.0132143 0)
(-0.0131499 -0.0121614 0)
(-0.0109689 -0.0110254 0)
(-0.00896562 -0.0098221 0)
(-0.00715144 -0.00856984 0)
(-0.00553531 -0.00728996 0)
(-0.00412372 -0.00600699 0)
(-0.00292065 -0.00474902 0)
(-0.00192757 -0.00354816 0)
(-0.00114297 -0.002441 0)
(-0.000562097 -0.00146894 0)
(-0.000184915 -0.000678637 0)
(-2.4016e-05 -0.000125173 0)
(-4.45085e-05 0.000508187 0)
(-0.000310633 0.00174898 0)
(-0.000901848 0.00314028 0)
(-0.0017711 0.00462273 0)
(-0.00289487 0.00614843 0)
(-0.00426116 0.00767719 0)
(-0.00585607 0.00917589 0)
(-0.0076644 0.0106178 0)
(-0.00967052 0.0119819 0)
(-0.0118583 0.0132518 0)
(-0.0142109 0.0144153 0)
(-0.0167113 0.0154635 0)
(-0.019342 0.0163904 0)
(-0.0220851 0.0171923 0)
(-0.0249227 0.0178674 0)
(-0.027837 0.0184153 0)
(-0.03081 0.0188367 0)
(-0.0338241 0.0191334 0)
(-0.0368617 0.0193075 0)
(-0.0399056 0.0193619 0)
(-0.042939 0.0192997 0)
(-0.0459453 0.0191242 0)
(-0.0489085 0.0188388 0)
(-0.0518128 0.0184469 0)
(-0.054643 0.0179523 0)
(-0.0573844 0.0173585 0)
(-0.0600227 0.0166692 0)
(-0.0625442 0.0158881 0)
(-0.0649357 0.0150191 0)
(-0.0671845 0.0140661 0)
(-0.0692786 0.0130333 0)
(-0.0712066 0.0119249 0)
(-0.0729578 0.0107457 0)
(-0.0745222 0.00950052 0)
(-0.0758904 0.00819469 0)
(-0.0770541 0.00683387 0)
(-0.0780058 0.00542417 0)
(-0.0787386 0.00397215 0)
(-0.0792471 0.00248484 0)
(-0.0795266 0.000969775 0)
(-0.0795737 -0.000565039 0)
(-0.0793861 -0.0021111 0)
(-0.0789628 -0.00365946 0)
(-0.0783041 -0.00520071 0)
(-0.0774116 -0.00672507 0)
(-0.0762884 -0.00822241 0)
(-0.074939 -0.00968233 0)
(-0.0733694 -0.0110942 0)
(-0.0715871 -0.0124473 0)
(-0.0696012 -0.0137309 0)
(-0.0674222 -0.0149344 0)
(-0.0650622 -0.0160472 0)
(-0.0625348 -0.0170592 0)
(-0.0598549 -0.0179607 0)
(-0.0570388 -0.0187426 0)
(-0.0541042 -0.0193965 0)
(-0.0510699 -0.0199147 0)
(-0.0479557 -0.0202907 0)
(-0.0447824 -0.020519 0)
(-0.0415715 -0.0205953 0)
(-0.038345 -0.0205169 0)
(-0.0351255 -0.0202824 0)
(-0.0319354 -0.0198921 0)
(-0.0287975 -0.019348 0)
(-0.0257338 -0.018654 0)
(-0.022766 -0.0178161 0)
(-0.0199151 -0.0168421 0)
(-0.0172006 -0.0157423 0)
(-0.014641 -0.0145294 0)
(-0.0122531 -0.0132182 0)
(-0.0100518 -0.0118267 0)
(-0.00804997 -0.0103753 0)
(-0.00625824 -0.00888769 0)
(-0.00468489 -0.00739089 0)
(-0.00333579 -0.00591547 0)
(-0.00221449 -0.00449598 0)
(-0.00132166 -0.00317125 0)
(-0.000654783 -0.00198464 0)
(-0.000217542 -0.000984192 0)
(-2.88791e-05 -0.000225568 0)
(-5.01498e-05 0.000674066 0)
(-0.00034759 0.00222646 0)
(-0.00100546 0.00391135 0)
(-0.0019686 0.00567059 0)
(-0.00320846 0.00745681 0)
(-0.00470975 0.00922998 0)
(-0.00645551 0.0109568 0)
(-0.00842779 0.0126103 0)
(-0.0106086 0.014169 0)
(-0.0129796 0.0156161 0)
(-0.0155225 0.016939 0)
(-0.0182185 0.0181285 0)
(-0.0210488 0.0191786 0)
(-0.0239943 0.0200852 0)
(-0.0270362 0.0208466 0)
(-0.0301555 0.0214624 0)
(-0.0333335 0.0219336 0)
(-0.0365516 0.022262 0)
(-0.0397917 0.0224501 0)
(-0.0430357 0.0225011 0)
(-0.0462661 0.0224184 0)
(-0.0494657 0.0222057 0)
(-0.0526177 0.0218668 0)
(-0.0557058 0.0214058 0)
(-0.0587141 0.0208267 0)
(-0.0616273 0.0201336 0)
(-0.0644305 0.0193307 0)
(-0.0671094 0.0184222 0)
(-0.0696503 0.0174126 0)
(-0.0720399 0.0163063 0)
(-0.0742657 0.0151083 0)
(-0.0763157 0.0138234 0)
(-0.0781788 0.012457 0)
(-0.0798445 0.0110147 0)
(-0.081303 0.00950279 0)
(-0.0825454 0.00792764 0)
(-0.0835639 0.00629632 0)
(-0.0843514 0.00461636 0)
(-0.084902 0.00289585 0)
(-0.0852107 0.00114342 0)
(-0.0852738 -0.000631733 0)
(-0.0850888 -0.00241988 0)
(-0.0846546 -0.00421076 0)
(-0.0839711 -0.00599361 0)
(-0.0830401 -0.00775724 0)
(-0.0818645 -0.00949004 0)
(-0.0804488 -0.0111801 0)
(-0.0787991 -0.0128153 0)
(-0.0769231 -0.0143834 0)
(-0.07483 -0.015872 0)
(-0.0725307 -0.0172689 0)
(-0.0700376 -0.0185622 0)
(-0.0673646 -0.0197402 0)
(-0.0645273 -0.0207917 0)
(-0.0615426 -0.0217063 0)
(-0.0584288 -0.0224742 0)
(-0.0552055 -0.0230867 0)
(-0.0518934 -0.0235363 0)
(-0.0485143 -0.0238165 0)
(-0.0450907 -0.0239224 0)
(-0.0416457 -0.0238507 0)
(-0.0382031 -0.0235998 0)
(-0.0347867 -0.0231698 0)
(-0.0314203 -0.022563 0)
(-0.0281277 -0.0217837 0)
(-0.0249319 -0.0208384 0)
(-0.0218552 -0.0197362 0)
(-0.0189189 -0.0184883 0)
(-0.0161429 -0.0171089 0)
(-0.0135457 -0.0156147 0)
(-0.0111439 -0.0140253 0)
(-0.00895206 -0.0123634 0)
(-0.00698266 -0.010655 0)
(-0.00524587 -0.00892939 0)
(-0.00374956 -0.00721952 0)
(-0.00249942 -0.0055622 0)
(-0.00149831 -0.00399836 0)
(-0.000745893 -0.00257309 0)
(-0.000249343 -0.00133567 0)
(-3.35327e-05 -0.000342215 0)
(-5.55515e-05 0.000858337 0)
(-0.000383254 0.00275486 0)
(-0.00110583 0.00476167 0)
(-0.00216049 0.00682204 0)
(-0.00351386 0.00888949 0)
(-0.0051475 0.0109245 0)
(-0.00704146 0.0128939 0)
(-0.00917506 0.0147709 0)
(-0.0115279 0.0165338 0)
(-0.0140796 0.0181658 0)
(-0.0168099 0.0196542 0)
(-0.0196986 0.0209897 0)
(-0.0227254 0.0221662 0)
(-0.0258701 0.0231797 0)
(-0.0291126 0.0240286 0)
(-0.0324332 0.0247126 0)
(-0.0358123 0.0252329 0)
(-0.0392304 0.0255916 0)
(-0.0426686 0.0257916 0)
(-0.0461084 0.0258364 0)
(-0.0495313 0.0257297 0)
(-0.0529196 0.0254758 0)
(-0.056256 0.0250788 0)
(-0.0595236 0.0245434 0)
(-0.0627058 0.0238739 0)
(-0.0657869 0.023075 0)
(-0.0687515 0.0221514 0)
(-0.0715846 0.0211079 0)
(-0.074272 0.0199496 0)
(-0.0768001 0.0186815 0)
(-0.0791558 0.0173091 0)
(-0.0813266 0.0158381 0)
(-0.083301 0.0142745 0)
(-0.085068 0.0126247 0)
(-0.0866174 0.0108957 0)
(-0.0879399 0.00909488 0)
(-0.0890273 0.00723021 0)
(-0.0898721 0.00531024 0)
(-0.090468 0.00334412 0)
(-0.0908097 0.00134162 0)
(-0.0908933 -0.000686862 0)
(-0.090716 -0.00273031 0)
(-0.0902762 -0.00477713 0)
(-0.089574 -0.00681515 0)
(-0.0886107 -0.00883171 0)
(-0.0873893 -0.0108137 0)
(-0.0859141 -0.0127477 0)
(-0.0841912 -0.0146199 0)
(-0.0822284 -0.0164164 0)
(-0.080035 -0.0181234 0)
(-0.077622 -0.0197269 0)
(-0.0750022 -0.0212133 0)
(-0.0721898 -0.0225695 0)