/*--------------------------------*- C++ -*----------------------------------*\
  =========                 |
  \\      /  F ield         | OpenFOAM: The Open Source CFD Toolbox
   \\    /   O peration     | Website:  https://openfoam.org
    \\  /    A nd           | Version:  7
     \\/     M anipulation  |
\*---------------------------------------------------------------------------*/
FoamFile
{
    version     2.0;
    format      ascii;
    class       volVectorField;
    location    "1.85";
    object      U;
}
// * * * * * * * * * * * * * * * * * * * * * * * * * * * * * * * * * * * * * //

dimensions      [0 1 -1 0 0 0 0];

internalField   nonuniform List<vector> 
6400
(
(8.5021e-06 -8.93374e-06 0)
(3.3855e-05 -1.61958e-05 0)
(6.48246e-05 -1.48144e-05 0)
(8.40376e-05 -9.01607e-06 0)
(8.30532e-05 -1.47212e-06 0)
(5.9139e-05 6.47755e-06 0)
(1.19129e-05 1.41618e-05 0)
(-5.77747e-05 2.12749e-05 0)
(-0.000148383 2.76869e-05 0)
(-0.000258018 3.33594e-05 0)
(-0.000384643 3.83033e-05 0)
(-0.000526204 4.25542e-05 0)
(-0.000680698 4.61595e-05 0)
(-0.000846214 4.91716e-05 0)
(-0.00102096 5.16429e-05 0)
(-0.00120327 5.36237e-05 0)
(-0.00139159 5.51597e-05 0)
(-0.0015845 5.62916e-05 0)
(-0.00178065 5.70542e-05 0)
(-0.00197883 5.74761e-05 0)
(-0.00217785 5.75804e-05 0)
(-0.00237662 5.73838e-05 0)
(-0.00257407 5.68982e-05 0)
(-0.00276919 5.61305e-05 0)
(-0.00296095 5.50838e-05 0)
(-0.00314836 5.37575e-05 0)
(-0.00333041 5.2149e-05 0)
(-0.00350611 5.02534e-05 0)
(-0.00367444 4.80651e-05 0)
(-0.00383438 4.55782e-05 0)
(-0.00398489 4.27874e-05 0)
(-0.00412494 3.9689e-05 0)
(-0.00425348 3.62814e-05 0)
(-0.00436951 3.25657e-05 0)
(-0.004472 2.85463e-05 0)
(-0.00455999 2.42316e-05 0)
(-0.00463254 1.96344e-05 0)
(-0.00468877 1.47723e-05 0)
(-0.0047279 9.66813e-06 0)
(-0.00474921 4.34998e-06 0)
(-0.00475211 -1.14873e-06 0)
(-0.0047361 -6.78927e-06 0)
(-0.00470087 -1.25277e-05 0)
(-0.00464621 -1.83149e-05 0)
(-0.00457213 -2.40975e-05 0)
(-0.00447878 -2.9818e-05 0)
(-0.00436653 -3.54157e-05 0)
(-0.00423593 -4.08277e-05 0)
(-0.00408774 -4.59892e-05 0)
(-0.00392295 -5.08353e-05 0)
(-0.00374271 -5.53009e-05 0)
(-0.00354843 -5.93234e-05 0)
(-0.00334166 -6.28431e-05 0)
(-0.00312416 -6.58045e-05 0)
(-0.00289785 -6.81576e-05 0)
(-0.00266479 -6.98586e-05 0)
(-0.00242719 -7.0871e-05 0)
(-0.00218732 -7.11669e-05 0)
(-0.00194754 -7.07277e-05 0)
(-0.00171026 -6.95451e-05 0)
(-0.00147787 -6.76204e-05 0)
(-0.00125277 -6.49652e-05 0)
(-0.00103728 -6.1601e-05 0)
(-0.000833623 -5.75596e-05 0)
(-0.000643914 -5.28832e-05 0)
(-0.000470094 -4.76238e-05 0)
(-0.000313919 -4.18429e-05 0)
(-0.000176915 -3.56112e-05 0)
(-6.03486e-05 -2.90085e-05 0)
(3.48106e-05 -2.21274e-05 0)
(0.000107941 -1.50726e-05 0)
(0.000158828 -7.97403e-06 0)
(0.000187734 -9.9423e-07 0)
(0.000195525 5.64853e-06 0)
(0.000183859 1.16405e-05 0)
(0.000155477 1.64987e-05 0)
(0.000114586 1.94663e-05 0)
(6.75989e-05 1.93099e-05 0)
(2.5338e-05 1.41854e-05 0)
(3.56094e-06 3.57534e-06 0)
(1.60538e-05 -3.45794e-05 0)
(5.48994e-05 -5.5148e-05 0)
(8.97965e-05 -4.2196e-05 0)
(9.22381e-05 -1.04811e-05 0)
(4.61924e-05 3.03424e-05 0)
(-5.53398e-05 7.44768e-05 0)
(-0.000214582 0.000118511 0)
(-0.00043068 0.000160485 0)
(-0.00070082 0.000199326 0)
(-0.00102099 0.000234493 0)
(-0.00138652 0.000265777 0)
(-0.00179246 0.000293167 0)
(-0.0022338 0.000316775 0)
(-0.00270562 0.00033678 0)
(-0.00320319 0.000353399 0)
(-0.003722 0.000366857 0)
(-0.00425781 0.000377377 0)
(-0.00480661 0.000385166 0)
(-0.00536464 0.000390406 0)
(-0.00592835 0.000393257 0)
(-0.00649436 0.000393848 0)
(-0.00705945 0.000392281 0)
(-0.00762053 0.00038863 0)
(-0.00817457 0.000382945 0)
(-0.0087186 0.000375256 0)
(-0.00924972 0.000365574 0)
(-0.00976501 0.000353896 0)
(-0.0102616 0.000340214 0)
(-0.0107365 0.000324511 0)
(-0.0111869 0.000306774 0)
(-0.0116098 0.000286992 0)
(-0.0120023 0.000265166 0)
(-0.0123616 0.00024131 0)
(-0.0126849 0.000215456 0)
(-0.0129693 0.000187657 0)
(-0.0132123 0.000157989 0)
(-0.0134113 0.000126558 0)
(-0.0135641 9.34953e-05 0)
(-0.0136685 5.89669e-05 0)
(-0.0137228 2.31688e-05 0)
(-0.0137253 -1.3671e-05 0)
(-0.013675 -5.12929e-05 0)
(-0.0135709 -8.94071e-05 0)
(-0.0134128 -0.000127695 0)
(-0.0132008 -0.000165814 0)
(-0.0129354 -0.000203396 0)
(-0.0126178 -0.000240059 0)
(-0.0122496 -0.000275406 0)
(-0.0118329 -0.000309034 0)
(-0.0113706 -0.00034054 0)
(-0.0108659 -0.000369526 0)
(-0.0103226 -0.000395604 0)
(-0.0097451 -0.000418411 0)
(-0.00913817 -0.000437609 0)
(-0.00850704 -0.000452893 0)
(-0.00785734 -0.000464001 0)
(-0.007195 -0.000470717 0)
(-0.00652621 -0.000472877 0)
(-0.00585735 -0.000470373 0)
(-0.00519488 -0.00046316 0)
(-0.00454528 -0.000451257 0)
(-0.00391496 -0.000434746 0)
(-0.00331016 -0.000413778 0)
(-0.00273686 -0.000388568 0)
(-0.00220068 -0.000359397 0)
(-0.00170679 -0.000326614 0)
(-0.00125985 -0.000290634 0)
(-0.000863845 -0.000251943 0)
(-0.00052203 -0.000211098 0)
(-0.00023681 -0.000168742 0)
(-9.59876e-06 -0.00012562 0)
(0.000159342 -8.26158e-05 0)
(0.000271103 -4.08088e-05 0)
(0.000328408 -1.55908e-06 0)
(0.000335994 3.33509e-05 0)
(0.000301114 6.15054e-05 0)
(0.000234023 7.95851e-05 0)
(0.000148662 8.30037e-05 0)
(6.57763e-05 6.59104e-05 0)
(1.40675e-05 2.52537e-05 0)
(1.502e-05 -6.55607e-05 0)
(4.2682e-05 -9.01644e-05 0)
(4.70248e-05 -4.66125e-05 0)
(-2.64644e-06 3.71932e-05 0)
(-0.000124621 0.000142671 0)
(-0.000327901 0.000257362 0)
(-0.00061583 0.000373169 0)
(-0.000987736 0.000484971 0)
(-0.00144014 0.000589667 0)
(-0.00196775 0.000685489 0)
(-0.00256412 0.000771546 0)
(-0.00322223 0.000847532 0)
(-0.00393481 0.000913512 0)
(-0.00469459 0.000969786 0)
(-0.00549442 0.00101679 0)
(-0.00632745 0.00105501 0)
(-0.00718709 0.00108498 0)
(-0.00806708 0.00110718 0)
(-0.00896148 0.00112207 0)
(-0.00986461 0.00113005 0)
(-0.0107711 0.00113145 0)
(-0.0116756 0.00112653 0)
(-0.0125733 0.00111551 0)
(-0.0134591 0.00109853 0)
(-0.0143283 0.00107568 0)
(-0.0151762 0.00104701 0)
(-0.0159979 0.00101253 0)
(-0.016789 0.000972247 0)
(-0.0175446 0.000926147 0)
(-0.0182601 0.000874221 0)
(-0.018931 0.000816477 0)
(-0.0195526 0.00075295 0)
(-0.0201205 0.000683714 0)
(-0.0206302 0.000608892 0)
(-0.0210774 0.000528664 0)
(-0.0214582 0.000443279 0)
(-0.0217686 0.000353058 0)
(-0.0220052 0.000258401 0)
(-0.0221649 0.000159791 0)
(-0.0222448 5.77968e-05 0)
(-0.0222428 -4.69289e-05 0)
(-0.0221571 -0.000153649 0)
(-0.0219868 -0.000261547 0)
(-0.0217313 -0.000369734 0)
(-0.021391 -0.000477251 0)
(-0.0209669 -0.000583086 0)
(-0.0204609 -0.000686182 0)
(-0.0198757 -0.000785449 0)
(-0.0192148 -0.000879783 0)
(-0.0184825 -0.000968083 0)
(-0.017684 -0.00104926 0)
(-0.0168253 -0.00112228 0)
(-0.0159131 -0.00118614 0)
(-0.0149549 -0.00123993 0)
(-0.0139588 -0.00128283 0)
(-0.0129334 -0.00131413 0)
(-0.011888 -0.00133326 0)
(-0.010832 -0.00133979 0)
(-0.00977522 -0.00133342 0)
(-0.00872767 -0.00131405 0)
(-0.00769924 -0.00128174 0)
(-0.00669977 -0.00123673 0)
(-0.0057388 -0.00117946 0)
(-0.00482549 -0.00111052 0)
(-0.00396844 -0.00103073 0)
(-0.00317553 -0.000941075 0)
(-0.00245381 -0.000842727 0)
(-0.00180933 -0.000737071 0)
(-0.00124696 -0.000625705 0)
(-0.000770221 -0.000510471 0)
(-0.00038111 -0.000393496 0)
(-7.98434e-05 -0.000277275 0)
(0.000135408 -0.000164782 0)
(0.000268865 -5.96465e-05 0)
(0.000327571 3.36065e-05 0)
(0.000321894 0.000109241 0)
(0.000265871 0.000159973 0)
(0.000177636 0.000176691 0)
(8.31637e-05 0.000148789 0)
(1.91587e-05 6.72934e-05 0)
(9.46149e-06 -8.52805e-05 0)
(1.12101e-05 -9.28178e-05 0)
(-3.73752e-05 3.12945e-06 0)
(-0.000163216 0.000161865 0)
(-0.000383514 0.000355938 0)
(-0.000707486 0.000565971 0)
(-0.00113854 0.000778627 0)
(-0.00167572 0.000985038 0)
(-0.00231495 0.00117951 0)
(-0.0030499 0.00135858 0)
(-0.00387286 0.00152031 0)
(-0.00477522 0.00166385 0)
(-0.00574796 0.00178907 0)
(-0.00678192 0.00189628 0)
(-0.00786804 0.00198612 0)
(-0.00899746 0.00205935 0)
(-0.0101616 0.00211681 0)
(-0.0113523 0.00215934 0)
(-0.0125616 0.0021877 0)
(-0.0137819 0.0022026 0)
(-0.0150061 0.00220462 0)
(-0.016227 0.00219425 0)
(-0.0174378 0.00217187 0)
(-0.0186319 0.00213775 0)
(-0.0198027 0.00209207 0)
(-0.0209439 0.00203496 0)
(-0.022049 0.00196648 0)
(-0.0231117 0.00188665 0)
(-0.0241257 0.00179549 0)
(-0.0250848 0.00169303 0)
(-0.0259828 0.00157933 0)
(-0.0268137 0.00145449 0)
(-0.0275714 0.00131872 0)
(-0.0282503 0.00117229 0)
(-0.0288446 0.00101559 0)
(-0.0293491 0.000849141 0)
(-0.0297588 0.000673594 0)
(-0.0300693 0.000489749 0)
(-0.0302765 0.000298561 0)
(-0.030377 0.000101139 0)
(-0.030368 -0.000101249 0)
(-0.0302474 -0.000307186 0)
(-0.030014 -0.000515105 0)
(-0.0296673 -0.000723308 0)
(-0.029208 -0.000929978 0)
(-0.0286377 -0.0011332 0)
(-0.0279588 -0.00133096 0)
(-0.027175 -0.00152123 0)
(-0.0262911 -0.00170193 0)
(-0.0253128 -0.00187099 0)
(-0.0242469 -0.00202638 0)
(-0.0231014 -0.00216614 0)
(-0.0218851 -0.00228844 0)
(-0.0206077 -0.00239157 0)
(-0.0192799 -0.002474 0)
(-0.017913 -0.00253442 0)
(-0.0165189 -0.00257177 0)
(-0.01511 -0.00258523 0)
(-0.013699 -0.00257431 0)
(-0.0122989 -0.0025388 0)
(-0.0109226 -0.00247883 0)
(-0.0095828 -0.00239489 0)
(-0.00829192 -0.00228778 0)
(-0.00706182 -0.00215869 0)
(-0.00590363 -0.00200916 0)
(-0.00482758 -0.00184108 0)
(-0.00384275 -0.00165672 0)
(-0.00295695 -0.00145873 0)
(-0.00217641 -0.00125019 0)
(-0.00150565 -0.00103461 0)
(-0.000947189 -0.000816055 0)
(-0.000501276 -0.000599226 0)
(-0.000165612 -0.000389633 0)
(6.50143e-05 -0.000193824 0)
(0.000199127 -1.96961e-05 0)
(0.000249005 0.000123137 0)
(0.000230911 0.000222969 0)
(0.000165411 0.000265775 0)
(8.13601e-05 0.00023542 0)
(1.95255e-05 0.000114426 0)
(1.96332e-06 -8.4875e-05 0)
(-3.05049e-05 -4.59986e-05 0)
(-0.00014657 0.000127164 0)
(-0.000365181 0.000383376 0)
(-0.000700039 0.000687323 0)
(-0.00115917 0.00101325 0)
(-0.00174506 0.00134278 0)
(-0.0024559 0.00166321 0)
(-0.00328673 0.00196609 0)
(-0.00423027 0.00224602 0)
(-0.00527765 0.0024998 0)
(-0.00641898 0.00272584 0)
(-0.00764382 0.00292367 0)
(-0.00894149 0.00309352 0)
(-0.0103013 0.00323613 0)
(-0.0117127 0.00335253 0)
(-0.0131655 0.00344384 0)
(-0.0146497 0.00351126 0)
(-0.0161558 0.00355588 0)
(-0.0176745 0.00357871 0)
(-0.0191968 0.00358065 0)
(-0.020714 0.0035624 0)
(-0.0222178 0.00352456 0)
(-0.0236998 0.00346754 0)
(-0.0251519 0.00339167 0)
(-0.0265661 0.00329714 0)
(-0.0279345 0.00318409 0)
(-0.0292492 0.00305261 0)
(-0.0305025 0.00290277 0)
(-0.0316868 0.00273468 0)
(-0.0327944 0.00254848 0)
(-0.0338178 0.00234443 0)
(-0.0347499 0.00212289 0)
(-0.0355836 0.00188436 0)
(-0.0363122 0.00162954 0)
(-0.0369292 0.00135931 0)
(-0.0374289 0.00107475 0)
(-0.0378057 0.000777198 0)
(-0.0380551 0.000468211 0)
(-0.0381729 0.000149592 0)
(-0.038156 -0.000176616 0)
(-0.038002 -0.000508136 0)
(-0.0377095 -0.000842467 0)
(-0.0372783 -0.0011769 0)
(-0.0367091 -0.00150857 0)
(-0.0360041 -0.00183442 0)
(-0.0351665 -0.00215131 0)
(-0.0342008 -0.00245601 0)
(-0.0331127 -0.00274526 0)
(-0.0319093 -0.00301583 0)
(-0.0305991 -0.00326452 0)
(-0.0291914 -0.00348828 0)
(-0.027697 -0.00368424 0)
(-0.0261276 -0.00384972 0)
(-0.0244961 -0.00398236 0)
(-0.0228161 -0.00408011 0)
(-0.0211018 -0.0041413 0)
(-0.0193681 -0.00416469 0)
(-0.0176303 -0.00414949 0)
(-0.015904 -0.00409541 0)
(-0.0142046 -0.00400268 0)
(-0.0125473 -0.00387206 0)
(-0.0109471 -0.00370486 0)
(-0.00941813 -0.00350296 0)
(-0.00797378 -0.00326881 0)
(-0.00662629 -0.00300544 0)
(-0.00538656 -0.00271645 0)
(-0.00426394 -0.00240609 0)
(-0.00326594 -0.00207923 0)
(-0.00239798 -0.00174146 0)
(-0.00166317 -0.00139916 0)
(-0.00106197 -0.00105965 0)
(-0.00059192 -0.000731411 0)
(-0.000247309 -0.000424276 0)
(-1.88288e-05 -0.00014983 0)
(0.000106805 7.82197e-05 0)
(0.000147019 0.000243613 0)
(0.000123691 0.000327259 0)
(6.67077e-05 0.000307086 0)
(1.71215e-05 0.000156686 0)
(-6.23259e-06 -6.0816e-05 0)
(-7.72542e-05 5.92495e-05 0)
(-0.000269631 0.000337543 0)
(-0.000591898 0.000715045 0)
(-0.00105259 0.00114999 0)
(-0.00165743 0.00161111 0)
(-0.00240713 0.00207549 0)
(-0.00329844 0.00252686 0)
(-0.00432516 0.00295404 0)
(-0.00547889 0.00334966 0)
(-0.00674965 0.00370919 0)
(-0.00812636 0.00403019 0)
(-0.00959735 0.00431172 0)
(-0.0111506 0.00455388 0)
(-0.0127741 0.00475747 0)
(-0.0144558 0.00492368 0)
(-0.0161842 0.00505395 0)
(-0.0179477 0.00514975 0)
(-0.0197353 0.00521255 0)
(-0.0215362 0.00524366 0)
(-0.0233401 0.00524427 0)
(-0.0251366 0.00521535 0)
(-0.0269159 0.00515769 0)
(-0.0286683 0.00507191 0)
(-0.0303842 0.00495846 0)
(-0.032054 0.00481765 0)
(-0.0336686 0.00464971 0)
(-0.0352188 0.00445483 0)
(-0.0366953 0.00423318 0)
(-0.0380892 0.00398496 0)
(-0.0393916 0.00371047 0)
(-0.0405939 0.00341016 0)
(-0.0416877 0.0030846 0)
(-0.0426649 0.00273463 0)
(-0.0435176 0.00236131 0)
(-0.0442386 0.00196596 0)
(-0.0448212 0.00155024 0)
(-0.0452593 0.0011161 0)
(-0.0455474 0.00066585 0)
(-0.0456812 0.00020211 0)
(-0.0456569 -0.000272147 0)
(-0.0454721 -0.000753628 0)
(-0.0451254 -0.00123873 0)
(-0.0446165 -0.00172358 0)
(-0.0439466 -0.00220405 0)
(-0.0431181 -0.00267579 0)
(-0.0421349 -0.00313433 0)
(-0.0410023 -0.00357507 0)
(-0.0397269 -0.00399338 0)
(-0.0383171 -0.00438466 0)
(-0.0367823 -0.0047444 0)
(-0.0351336 -0.00506829 0)
(-0.0333833 -0.00535224 0)
(-0.0315449 -0.00559248 0)
(-0.029633 -0.00578567 0)
(-0.0276632 -0.00592892 0)
(-0.025652 -0.00601987 0)
(-0.0236164 -0.00605677 0)
(-0.0215738 -0.00603852 0)
(-0.0195421 -0.00596471 0)
(-0.017539 -0.00583567 0)
(-0.015582 -0.0056525 0)
(-0.0136881 -0.00541709 0)
(-0.0118736 -0.00513212 0)
(-0.0101539 -0.00480111 0)
(-0.00854313 -0.00442839 0)
(-0.00705377 -0.00401914 0)
(-0.00569663 -0.00357942 0)
(-0.00448043 -0.00311619 0)
(-0.00341156 -0.0026374 0)
(-0.0024938 -0.00215207 0)
(-0.00172804 -0.00167045 0)
(-0.00111198 -0.00120424 0)
(-0.000639861 -0.000766831 0)
(-0.000302139 -0.000373664 0)
(-8.52217e-05 -4.26409e-05 0)
(2.87091e-05 0.000205402 0)
(6.19735e-05 0.000346327 0)
(4.39899e-05 0.000352226 0)
(1.32263e-05 0.000188708 0)
(-1.45391e-05 -1.16875e-05 0)
(-0.000126088 0.000227789 0)
(-0.000399654 0.000641623 0)
(-0.000832186 0.00116555 0)
(-0.00142603 0.00175286 0)
(-0.00218381 0.00236786 0)
(-0.00310375 0.00298379 0)
(-0.00418059 0.00358123 0)
(-0.00540656 0.00414653 0)
(-0.00677192 0.00467046 0)
(-0.00826545 0.0051472 0)
(-0.0098749 0.00557345 0)
(-0.0115874 0.00594778 0)
(-0.0133899 0.0062701 0)
(-0.015269 0.0065412 0)
(-0.0172115 0.00676244 0)
(-0.0192046 0.0069355 0)
(-0.0212354 0.00706216 0)
(-0.0232917 0.0071442 0)
(-0.0253614 0.00718326 0)
(-0.0274326 0.00718079 0)
(-0.0294939 0.00713803 0)
(-0.031534 0.00705602 0)
(-0.0335418 0.00693553 0)
(-0.0355065 0.00677718 0)
(-0.0374174 0.00658142 0)
(-0.0392638 0.00634861 0)
(-0.0410352 0.00607903 0)
(-0.0427215 0.00577299 0)
(-0.0443122 0.00543086 0)
(-0.0457976 0.00505312 0)
(-0.0471678 0.00464044 0)
(-0.0484133 0.00419372 0)
(-0.0495251 0.00371415 0)
(-0.0504944 0.00320325 0)
(-0.0513133 0.0026629 0)
(-0.0519742 0.00209539 0)
(-0.0524703 0.00150342 0)
(-0.0527958 0.000890141 0)
(-0.0529457 0.000259134 0)
(-0.0529161 -0.000385576 0)
(-0.0527044 -0.00103954 0)
(-0.052309 -0.00169792 0)
(-0.0517299 -0.00235551 0)
(-0.0509683 -0.00300677 0)
(-0.0500272 -0.00364592 0)
(-0.0489108 -0.00426697 0)
(-0.0476251 -0.0048638 0)
(-0.0461777 -0.00543026 0)
(-0.0445777 -0.00596023 0)
(-0.0428358 -0.00644774 0)
(-0.0409644 -0.00688703 0)
(-0.038977 -0.00727269 0)
(-0.0368887 -0.00759974 0)
(-0.0347158 -0.00786373 0)
(-0.0324755 -0.00806081 0)
(-0.0301863 -0.00818787 0)
(-0.0278669 -0.00824258 0)
(-0.0255369 -0.00822347 0)
(-0.0232159 -0.00813001 0)
(-0.0209239 -0.00796262 0)
(-0.0186803 -0.00772279 0)
(-0.0165041 -0.00741301 0)
(-0.0144136 -0.00703688 0)
(-0.0124259 -0.00659909 0)
(-0.0105568 -0.00610542 0)
(-0.00882053 -0.0055628 0)
(-0.00722923 -0.00497929 0)
(-0.00579286 -0.00436417 0)
(-0.00451885 -0.00372797 0)
(-0.00341182 -0.00308257 0)
(-0.00247329 -0.00244139 0)
(-0.00170144 -0.00181952 0)
(-0.00109082 -0.00123406 0)
(-0.000632148 -0.000704392 0)
(-0.000312047 -0.000252633 0)
(-0.000112918 9.58895e-05 0)
(-1.26894e-05 0.000312188 0)
(1.64669e-05 0.000362993 0)
(8.59195e-06 0.00020737 0)
(-2.27009e-05 6.28945e-05 0)
(-0.000175366 0.000461921 0)
(-0.00053237 0.00104348 0)
(-0.00107871 0.00174009 0)
(-0.00181001 0.00250161 0)
(-0.00272522 0.00328895 0)
(-0.00381956 0.00407233 0)
(-0.00508532 0.00482976 0)
(-0.0065128 0.00554547 0)
(-0.00809066 0.00620864 0)
(-0.00980631 0.00681227 0)
(-0.0116463 0.00735227 0)
(-0.0135966 0.00782678 0)
(-0.0156429 0.00823549 0)
(-0.017771 0.00857918 0)
(-0.0199664 0.00885937 0)
(-0.0222151 0.00907794 0)
(-0.0245033 0.00923698 0)
(-0.0268174 0.00933854 0)
(-0.0291442 0.00938457 0)
(-0.0314708 0.00937681 0)
(-0.0337845 0.00931677 0)
(-0.0360728 0.00920567 0)
(-0.0383235 0.00904452 0)
(-0.0405246 0.00883408 0)
(-0.042664 0.00857496 0)
(-0.0447302 0.00826765 0)
(-0.0467115 0.00791259 0)
(-0.0485965 0.00751024 0)
(-0.0503738 0.00706116 0)
(-0.0520326 0.00656607 0)
(-0.0535621 0.00602592 0)
(-0.0549518 0.00544197 0)
(-0.0561917 0.00481586 0)
(-0.0572726 0.00414962 0)
(-0.0581853 0.00344577 0)
(-0.0589219 0.00270732 0)
(-0.059475 0.00193781 0)
(-0.0598382 0.00114134 0)
(-0.0600061 0.000322556 0)
(-0.0599747 -0.000513354 0)
(-0.0597409 -0.00136067 0)
(-0.0593033 -0.00221318 0)
(-0.0586618 -0.00306422 0)
(-0.0578178 -0.00390673 0)
(-0.0567746 -0.00473333 0)
(-0.0555368 -0.0055364 0)
(-0.054111 -0.00630816 0)
(-0.0525054 -0.00704078 0)
(-0.05073 -0.0077265 0)
(-0.0487964 -0.00835773 0)
(-0.046718 -0.00892717 0)
(-0.0445096 -0.00942796 0)
(-0.0421876 -0.00985375 0)
(-0.0397696 -0.0101989 0)
(-0.0372745 -0.0104585 0)
(-0.0347222 -0.0106286 0)
(-0.0321333 -0.0107063 0)
(-0.0295291 -0.0106895 0)
(-0.0269311 -0.0105777 0)
(-0.024361 -0.0103714 0)
(-0.0218402 -0.0100724 0)
(-0.0193894 -0.00968389 0)
(-0.0170288 -0.00921042 0)
(-0.0147773 -0.00865792 0)
(-0.0126524 -0.00803378 0)
(-0.0106697 -0.00734676 0)
(-0.00884293 -0.00660712 0)
(-0.00718331 -0.00582658 0)
(-0.00569942 -0.00501844 0)
(-0.00439691 -0.00419761 0)
(-0.00327815 -0.0033808 0)
(-0.00234208 -0.00258666 0)
(-0.0015839 -0.00183606 0)
(-0.000994964 -0.00115236 0)
(-0.000562554 -0.000561824 0)
(-0.000269775 -9.41217e-05 0)
(-9.53288e-05 0.000217245 0)
(-1.37137e-05 0.000334281 0)
(3.65863e-06 0.000210928 0)
(-3.06145e-05 0.000162745 0)
(-0.000224197 0.000762311 0)
(-0.000665185 0.00154486 0)
(-0.00132673 0.00244132 0)
(-0.0021975 0.00339935 0)
(-0.00327246 0.00437755 0)
(-0.00454343 0.00534393 0)
(-0.00599993 0.00627453 0)
(-0.00763 0.00715195 0)
(-0.0094205 0.00796406 0)
(-0.0113573 0.00870292 0)
(-0.0134257 0.00936383 0)
(-0.0156104 0.00994452 0)
(-0.0178961 0.0104445 0)
(-0.0202673 0.0108647 0)
(-0.0227088 0.0112066 0)
(-0.0252054 0.0114725 0)
(-0.0277424 0.0116646 0)
(-0.0303052 0.0117853 0)
(-0.0328795 0.0118368 0)
(-0.0354513 0.0118211 0)
(-0.0380069 0.0117401 0)
(-0.0405328 0.0115951 0)
(-0.0430158 0.0113873 0)
(-0.0454427 0.0111178 0)
(-0.0478006 0.0107872 0)
(-0.0500767 0.0103962 0)
(-0.0522584 0.00994535 0)
(-0.0543334 0.00943541 0)
(-0.0562893 0.0088671 0)
(-0.0581143 0.00824142 0)
(-0.0597967 0.00755966 0)
(-0.0613252 0.00682349 0)
(-0.0626892 0.00603503 0)
(-0.0638784 0.00519691 0)
(-0.0648832 0.00431234 0)
(-0.0656949 0.00338514 0)
(-0.0663056 0.00241978 0)
(-0.0667085 0.00142137 0)
(-0.0668979 0.000395717 0)
(-0.0668692 -0.000650723 0)
(-0.0666194 -0.00171086 0)
(-0.0661468 -0.002777 0)
(-0.0654513 -0.00384093 0)
(-0.0645345 -0.00489393 0)
(-0.0633998 -0.00592692 0)
(-0.0620521 -0.00693052 0)
(-0.0604985 -0.00789517 0)
(-0.0587476 -0.00881126 0)
(-0.0568101 -0.00966923 0)
(-0.0546985 -0.0104598 0)
(-0.0524269 -0.0111739 0)
(-0.0500112 -0.0118032 0)
(-0.047469 -0.0123399 0)
(-0.0448191 -0.0127769 0)
(-0.0420817 -0.0131083 0)
(-0.0392782 -0.0133292 0)
(-0.0364308 -0.0134357 0)
(-0.0335624 -0.0134257 0)
(-0.0306961 -0.0132982 0)
(-0.0278554 -0.0130537 0)
(-0.0250633 -0.0126945 0)
(-0.0223426 -0.0122244 0)
(-0.0197151 -0.011649 0)
(-0.0172013 -0.0109756 0)
(-0.0148206 -0.0102131 0)
(-0.01259 -0.00937231 0)
(-0.0105249 -0.00846574 0)
(-0.00863787 -0.0075077 0)
(-0.00693881 -0.00651437 0)
(-0.00543454 -0.00550383 0)
(-0.00412855 -0.00449619 0)
(-0.00302077 -0.00351372 0)
(-0.00210737 -0.00258111 0)
(-0.00138063 -0.00172567 0)
(-0.000828868 -0.00097776 0)
(-0.000436234 -0.000371173 0)
(-0.00018259 5.64434e-05 0)
(-4.51916e-05 0.000263011 0)
(-1.32857e-06 0.000198536 0)
(-3.82466e-05 0.000287386 0)
(-0.000272105 0.0011286 0)
(-0.000796537 0.00214598 0)
(-0.00157317 0.00327002 0)
(-0.00258375 0.0044473 0)
(-0.00381906 0.00563504 0)
(-0.0052673 0.00679982 0)
(-0.00691495 0.00791635 0)
(-0.00874759 0.00896609 0)
(-0.0107501 0.00993602 0)
(-0.0129066 0.0108175 0)
(-0.015201 0.0116054 0)
(-0.0176169 0.0122972 0)
(-0.0201377 0.0128924 0)
(-0.0227471 0.013392 0)
(-0.0254287 0.0137976 0)
(-0.0281666 0.0141116 0)
(-0.0309451 0.0143368 0)
(-0.0337486 0.0144756 0)
(-0.0365619 0.0145307 0)
(-0.0393703 0.0145043 0)
(-0.042159 0.0143983 0)
(-0.0449137 0.0142146 0)
(-0.0476201 0.0139544 0)
(-0.0502642 0.0136189 0)
(-0.0528322 0.013209 0)
(-0.0553103 0.0127256 0)
(-0.0576851 0.0121693 0)
(-0.0599433 0.0115412 0)
(-0.0620718 0.0108421 0)
(-0.0640577 0.0100735 0)
(-0.0658888 0.00923694 0)
(-0.0675529 0.00833456 0)
(-0.0690386 0.00736904 0)
(-0.070335 0.00634366 0)
(-0.0714319 0.00526236 0)
(-0.0723199 0.00412984 0)
(-0.0729907 0.00295154 0)
(-0.0734369 0.0017337 0)
(-0.0736525 0.000483331 0)
(-0.0736326 -0.000791755 0)
(-0.0733738 -0.00208301 0)
(-0.0728743 -0.00338119 0)
(-0.0721339 -0.00467641 0)
(-0.0711542 -0.00595822 0)
(-0.0699386 -0.00721573 0)
(-0.0684923 -0.00843769 0)
(-0.0668226 -0.00961265 0)
(-0.0649386 -0.0107291 0)
(-0.0628514 -0.0117756 0)
(-0.0605741 -0.012741 0)
(-0.0581216 -0.0136144 0)
(-0.0555106 -0.0143859 0)
(-0.0527596 -0.015046 0)
(-0.0498887 -0.0155862 0)
(-0.0469191 -0.0159994 0)
(-0.0438737 -0.0162796 0)
(-0.0407759 -0.0164222 0)
(-0.0376502 -0.0164243 0)
(-0.0345215 -0.0162848 0)
(-0.0314147 -0.0160043 0)
(-0.0283547 -0.0155852 0)
(-0.025366 -0.0150322 0)
(-0.022472 -0.0143518 0)
(-0.0196953 -0.0135525 0)
(-0.0170566 -0.0126451 0)
(-0.014575 -0.0116424 0)
(-0.0122673 -0.0105593 0)
(-0.0101477 -0.00941267 0)
(-0.00822753 -0.00822175 0)
(-0.00651502 -0.00700784 0)
(-0.00501498 -0.00579453 0)
(-0.00372858 -0.00460779 0)
(-0.00265322 -0.00347613 0)
(-0.00178239 -0.00243081 0)
(-0.00110568 -0.00150615 0)
(-0.000608588 -0.000739893 0)
(-0.000272345 -0.000173492 0)
(-7.71584e-05 0.000147444 0)
(-6.24297e-06 0.000169881 0)
(-4.55958e-05 0.000436199 0)
(-0.000318843 0.00155983 0)
(-0.000925491 0.00284598 0)
(-0.00181607 0.00422565 0)
(-0.00296556 0.00564519 0)
(-0.00436047 0.00706129 0)
(-0.00598531 0.00843983 0)
(-0.00782333 0.00975482 0)
(-0.00985749 0.0109871 0)
(-0.0120705 0.0121231 0)
(-0.0144447 0.0131539 0)
(-0.0169625 0.0140741 0)
(-0.0196062 0.0148812 0)
(-0.0223581 0.0155748 0)
(-0.0252009 0.0161558 0)
(-0.0281174 0.0166263 0)
(-0.0310906 0.0169889 0)
(-0.034104 0.0172465 0)
(-0.0371413 0.0174022 0)
(-0.0401866 0.0174585 0)
(-0.0432242 0.0174182 0)
(-0.0462385 0.0172835 0)
(-0.0492145 0.0170562 0)
(-0.052137 0.0167379 0)
(-0.0549913 0.0163299 0)
(-0.0577626 0.0158333 0)
(-0.0604366 0.0152492 0)
(-0.0629988 0.0145784 0)
(-0.0654353 0.0138221 0)
(-0.0677321 0.0129816 0)
(-0.0698757 0.0120585 0)
(-0.071853 0.0110549 0)
(-0.0736512 0.00997338 0)
(-0.0752582 0.00881716 0)
(-0.0766624 0.00759023 0)
(-0.0778531 0.00629732 0)
(-0.0788203 0.00494405 0)
(-0.0795551 0.00353689 0)
(-0.0800498 0.00208325 0)
(-0.0802977 0.000591421 0)
(-0.0802936 -0.00092938 0)
(-0.0800339 -0.00246908 0)
(-0.0795165 -0.0040168 0)
(-0.078741 -0.00556091 0)
(-0.0777088 -0.00708915 0)
(-0.0764233 -0.00858873 0)
(-0.0748898 -0.0100464 0)
(-0.0731156 -0.0114488 0)
(-0.0711101 -0.0127824 0)
(-0.0688849 -0.0140337 0)
(-0.0664533 -0.0151896 0)
(-0.0638309 -0.0162374 0)
(-0.0610351 -0.0171652 0)
(-0.0580852 -0.0179619 0)
(-0.0550022 -0.0186175 0)
(-0.0518085 -0.0191234 0)
(-0.0485281 -0.0194724 0)
(-0.0451859 -0.0196592 0)
(-0.0418077 -0.0196802 0)
(-0.0384199 -0.0195338 0)
(-0.0350492 -0.0192205 0)
(-0.0317221 -0.0187433 0)
(-0.0284649 -0.0181072 0)
(-0.0253029 -0.0173198 0)
(-0.0222603 -0.0163911 0)
(-0.0193599 -0.0153334 0)
(-0.0166225 -0.0141616 0)
(-0.0140666 -0.0128931 0)
(-0.0117082 -0.0115475 0)
(-0.00956028 -0.010147 0)
(-0.00763268 -0.00871635 0)
(-0.00593171 -0.00728258 0)
(-0.00446003 -0.00587542 0)
(-0.00321649 -0.00452723 0)
(-0.00219603 -0.00327318 0)
(-0.00138974 -0.00215148 0)
(-0.000784595 -0.00120366 0)
(-0.000363355 -0.000474699 0)
(-0.000109176 -1.33399e-05 0)
(-1.10284e-05 0.000124942 0)
(-5.26726e-05 0.000608503 0)
(-0.000364291 0.00205466 0)
(-0.00105149 0.00364334 0)
(-0.00205417 0.00530672 0)
(-0.00334073 0.00699165 0)
(-0.00489349 0.00865501 0)
(-0.00669318 0.0102627 0)
(-0.00871976 0.0117885 0)
(-0.0109535 0.0132133 0)
(-0.0133747 0.0145233 0)
(-0.015964 0.0157096 0)
(-0.0187022 0.0167669 0)
(-0.0215702 0.0176929 0)
(-0.0245492 0.0184872 0)
(-0.0276208 0.0191512 0)
(-0.030767 0.0196873 0)
(-0.0339701 0.0200983 0)
(-0.0372127 0.0203876 0)
(-0.0404778 0.0205583 0)
(-0.0437487 0.0206136 0)
(-0.0470091 0.0205562 0)
(-0.0502427 0.0203887 0)
(-0.0534337 0.0201131 0)
(-0.0565664 0.0197312 0)
(-0.0596251 0.0192446 0)
(-0.0625946 0.0186544 0)
(-0.0654596 0.0179618 0)
(-0.0682052 0.0171681 0)
(-0.0708165 0.0162745 0)
(-0.073279 0.0152826 0)
(-0.0755785 0.0141945 0)
(-0.0777012 0.0130125 0)
(-0.0796337 0.0117399 0)
(-0.0813632 0.0103803 0)
(-0.0828775 0.00893864 0)
(-0.0841653 0.00742033 0)
(-0.085216 0.00583196 0)
(-0.0860203 0.00418109 0)
(-0.0865698 0.00247631 0)
(-0.0868574 0.000727254 0)
(-0.0868776 -0.00105541 0)
(-0.0866261 -0.00286005 0)
(-0.0861006 -0.00467407 0)
(-0.0853004 -0.00648405 0)
(-0.0842267 -0.00827585 0)
(-0.0828826 -0.0100347 0)
(-0.0812734 -0.0117453 0)
(-0.0794063 -0.0133922 0)
(-0.0772909 -0.0149598 0)
(-0.0749387 -0.0164325 0)
(-0.0723636 -0.017795 0)
(-0.0695815 -0.0190327 0)
(-0.0666104 -0.0201316 0)
(-0.0634702 -0.0210789 0)
(-0.0601827 -0.0218629 0)
(-0.0567715 -0.0224735 0)
(-0.0532615 -0.0229023 0)
(-0.0496789 -0.0231427 0)
(-0.0460509 -0.0231904 0)
(-0.0424055 -0.0230434 0)
(-0.038771 -0.0227021 0)
(-0.0351757 -0.0221696 0)
(-0.0316475 -0.0214515 0)
(-0.0282139 -0.0205564 0)
(-0.0249009 -0.0194955 0)
(-0.0217333 -0.018283 0)
(-0.0187337 -0.0169358 0)
(-0.0159228 -0.0154736 0)
(-0.0133184 -0.013919 0)
(-0.0109353 -0.0122973 0)
(-0.00878516 -0.0106364 0)
(-0.00687609 -0.00896713 0)
(-0.00521243 -0.00732294 0)
(-0.00379467 -0.00574006 0)
(-0.0026194 -0.00425756 0)
(-0.00167935 -0.00291751 0)
(-0.000963131 -0.00176508 0)
(-0.000455026 -0.000848652 0)
(-0.000141061 -0.000219814 0)
(-1.56718e-05 6.38339e-05 0)
(-5.94908e-05 0.00080359 0)
(-0.00040839 0.00261154 0)
(-0.00117418 0.00453607 0)
(-0.00228662 0.00651105 0)
(-0.00370775 0.00848446 0)
(-0.0054158 0.010414 0)
(-0.00738773 0.0122661 0)
(-0.00960019 0.0140151 0)
(-0.0120306 0.0156421 0)
(-0.0146572 0.0171337 0)
(-0.0174584 0.0184814 0)
(-0.0204134 0.0196803 0)
(-0.0235018 0.0207282 0)
(-0.0267036 0.0216254 0)
(-0.0299996 0.0223736 0)
(-0.0333708 0.0229756 0)
(-0.0367986 0.0234346 0)
(-0.040265 0.0237543 0)
(-0.0437524 0.0239382 0)
(-0.0472434 0.0239899 0)
(-0.050721 0.0239123 0)
(-0.0541685 0.0237081 0)
(-0.0575693 0.0233798 0)
(-0.0609071 0.0229293 0)
(-0.0641657 0.0223581 0)
(-0.0673293 0.0216678 0)
(-0.0703819 0.0208598 0)
(-0.073308 0.0199353 0)
(-0.0760921 0.018896 0)
(-0.0787191 0.0177437 0)
(-0.0811742 0.0164808 0)
(-0.0834429 0.0151102 0)
(-0.0855113 0.0136354 0)
(-0.0873659 0.012061 0)
(-0.088994 0.0103924 0)
(-0.0903836 0.00863596 0)
(-0.0915237 0.00679919 0)
(-0.0924041 0.00489074 0)
(-0.0930162 0.00292044 0)
(-0.0933521 0.000899281 0)
(-0.0934059 -0.0011606 0)
(-0.0931728 -0.00324593 0)
(-0.09265 -0.00534241 0)
(-0.0918364 -0.00743477 0)
(-0.0907327 -0.0095069 0)
(-0.0893419 -0.011542 0)
(-0.0876688 -0.0135227 0)
(-0.0857206 -0.0154313 0)
(-0.0835066 -0.01725 0)
(-0.0810386 -0.018961 0)
(-0.0783305 -0.0205468 0)
(-0.0753984 -0.0219907 0)
(-0.0722607 -0.0232765 0)
(-0.068938 -0.0243895 0)
(-0.0654527 -0.0253162 0)
(-0.0618293 -0.0260446 0)
(-0.0580936 -0.0265651 0)
(-0.0542733 -0.0268699 0)
(-0.0503968 -0.0269536 0)
(-0.0464936 -0.0268138 0)
(-0.0425938 -0.0264505 0)
(-0.0387273 -0.0258668 0)
(-0.0349242 -0.025069 0)
(-0.0312137 -0.0240665 0)
(-0.0276242 -0.0228717 0)
(-0.0241823 -0.0215006 0)
(-0.020913 -0.0199721 0)
(-0.017839 -0.0183084 0)
(-0.0149802 -0.016535 0)
(-0.0123536 -0.0146802 0)
(-0.00997285 -0.0127755 0)
(-0.00784802 -0.0108553 0)
(-0.00598535 -0.00895677 0)
(-0.00438719 -0.00712019 0)
(-0.00305193 -0.00538852 0)
(-0.00197407 -0.00380767 0)
(-0.0011439 -0.00242646 0)
(-0.000547236 -0.00129654 0)
(-0.000172803 -0.000472283 0)
(-2.01869e-05 -1.32971e-05 0)
(-6.60626e-05 0.00102074 0)
(-0.000451111 0.00322876 0)
(-0.00129336 0.00552186 0)
(-0.00251284 0.00783598 0)
(-0.00406553 0.0101208 0)
(-0.00592565 0.0123353 0)
(-0.0080665 0.0144471 0)
(-0.0104614 0.0164314 0)
(-0.0130851 0.0182702 0)
(-0.0159133 0.019951 0)
(-0.0189225 0.0214658 0)
(-0.0220904 0.0228103 0)
(-0.025395 0.0239831 0)
(-0.0288153 0.0249851 0)
(-0.032331 0.0258183 0)
(-0.0359222 0.0264862 0)
(-0.0395698 0.0269926 0)
(-0.0432551 0.0273414 0)
(-0.0469596 0.0275367 0)
(-0.0506657 0.0275822 0)
(-0.0543556 0.0274813 0)
(-0.0580122 0.027237 0)
(-0.0616183 0.0268517 0)
(-0.0651572 0.0263277 0)
(-0.0686121 0.0256668 0)
(-0.0719667 0.0248705 0)
(-0.0752045 0.0239405 0)
(-0.0783094 0.0228783 0)
(-0.0812654 0.0216857 0)
(-0.0840569 0.0203648 0)
(-0.0866684 0.0189183 0)
(-0.089085 0.0173497 0)
(-0.0912921 0.0156629 0)
(-0.0932758 0.0138631 0)
(-0.0950226 0.0119564 0)
(-0.09652 0.0099501 0)
(-0.0977563 0.0078526 0)
(-0.0987209 0.00567369 0)
(-0.0994044 0.00342439 0)
(-0.0997984 0.00111707 0)
(-0.0998962 -0.00123463 0)
(-0.0996927 -0.00361581 0)
(-0.0991843 -0.00601041 0)
(-0.0983692 -0.00840127 0)
(-0.097248 -0.0107703 0)
(-0.0958228 -0.0130986 0)
(-0.0940982 -0.0153666 0)
(-0.0920809 -0.0175543 0)
(-0.0897802 -0.0196417 0)
(-0.0872076 -0.0216086 0)
(-0.0843768 -0.0234352 0)
(-0.0813042 -0.0251024 0)
(-0.0780084 -0.026592 0)