/*--------------------------------*- C++ -*----------------------------------*\
  =========                 |
  \\      /  F ield         | OpenFOAM: The Open Source CFD Toolbox
   \\    /   O peration     | Website:  https://openfoam.org
    \\  /    A nd           | Version:  7
     \\/     M anipulation  |
\*---------------------------------------------------------------------------*/
FoamFile
{
    version     2.0;
    format      ascii;
    class       volScalarField;
    location    "0.55";
    object      p;
}
// * * * * * * * * * * * * * * * * * * * * * * * * * * * * * * * * * * * * * //

dimensions      [0 2 -2 0 0 0 0];

internalField   nonuniform List<scalar> 
6400
(
-1.99684e-09
-4.76002e-06
-6.38971e-05
-0.000174086
-0.000321591
-0.000494178
-0.000681365
-0.000874305
-0.00106582
-0.00125019
-0.00142293
-0.00158056
-0.00172044
-0.00184055
-0.00193942
-0.00201596
-0.00206944
-0.00209933
-0.00210531
-0.00208716
-0.00204481
-0.00197822
-0.00188742
-0.00177252
-0.00163363
-0.00147092
-0.00128462
-0.00107505
-0.000842594
-0.000587729
-0.000311066
-1.33466e-05
0.000304532
0.000641495
0.000996293
0.00136747
0.00175337
0.00215213
0.00256165
0.00297962
0.00340353
0.00383067
0.00425815
0.00468293
0.00510182
0.00551155
0.0059088
0.00629025
0.00665258
0.00699256
0.00730714
0.00759339
0.00784867
0.00807063
0.00825724
0.00840689
0.0085184
0.00859108
0.00862471
0.00861963
0.00857671
0.00849738
0.00838364
0.00823802
0.00806358
0.00786394
0.0076432
0.00740594
0.00715721
0.0069025
0.00664772
0.00639917
0.00616354
0.00594787
0.00575946
0.00560564
0.00549316
0.00542742
0.00541135
0.00543466
5.48708e-06
7.49448e-07
-5.10248e-05
-0.000143848
-0.000266718
-0.000410877
-0.00056834
-0.000731939
-0.00089555
-0.00105409
-0.00120345
-0.00134029
-0.00146202
-0.0015666
-0.00165244
-0.00171838
-0.00176355
-0.0017873
-0.00178919
-0.00176893
-0.00172631
-0.00166125
-0.00157372
-0.00146377
-0.00133147
-0.00117697
-0.00100051
-0.000802369
-0.000582943
-0.000342702
-8.22392e-05
0.000197718
0.0004963
0.000812465
0.00114501
0.00149256
0.00185353
0.00222618
0.00260853
0.00299842
0.00339351
0.00379129
0.00418907
0.00458404
0.00497329
0.00535381
0.00572255
0.00607647
0.00641255
0.00672787
0.00701964
0.00728524
0.0075223
0.00772869
0.00790264
0.00804272
0.00814792
0.00821768
0.00825187
0.00825089
0.00821559
0.00814738
0.00804812
0.00792023
0.00776656
0.00759047
0.00739576
0.00718663
0.0069677
0.00674397
0.00652072
0.00630354
0.00609827
0.00591087
0.00574733
0.00561339
0.00551392
0.00545266
0.0054344
0.00545788
6.59365e-05
5.3404e-05
1.13926e-06
-8.45112e-05
-0.000194647
-0.000322455
-0.000461542
-0.000605997
-0.000750641
-0.000891038
-0.00102349
-0.00114497
-0.00125303
-0.00134569
-0.00142142
-0.00147904
-0.00151762
-0.0015365
-0.00153517
-0.00151326
-0.00147054
-0.00140688
-0.0013222
-0.0012165
-0.00108985
-0.00094236
-0.000774234
-0.000585748
-0.000377271
-0.000149256
9.77287e-05
0.000362988
0.000645688
0.000944837
0.00125928
0.00158772
0.00192865
0.00228041
0.00264114
0.00300882
0.00338124
0.00375602
0.00413066
0.00450253
0.00486888
0.00522692
0.00557381
0.0059067
0.00622279
0.00651937
0.00679386
0.00704383
0.00726708
0.00746168
0.007626
0.00775875
0.00785903
0.00792636
0.00796068
0.00796239
0.00793236
0.00787194
0.00778292
0.00766759
0.00752865
0.00736926
0.00719295
0.00700367
0.00680565
0.00660349
0.00640199
0.00620618
0.00602123
0.00585235
0.00570468
0.00558307
0.00549156
0.00543351
0.00541576
0.00544229
0.000178311
0.000147504
8.66663e-05
1.21526e-07
-0.000106036
-0.000226187
-0.000355036
-0.000487709
-0.000619854
-0.000747682
-0.000867981
-0.000978059
-0.0010757
-0.00115912
-0.00122687
-0.00127784
-0.00131114
-0.00132611
-0.00132222
-0.00129911
-0.00125652
-0.00119428
-0.00111229
-0.00101052
-0.000889011
-0.000747852
-0.000587213
-0.000407343
-0.000208577
8.6604e-06
0.000243841
0.000496314
0.000765287
0.00104982
0.00134884
0.00166108
0.00198516
0.00231949
0.00266231
0.00301169
0.00336555
0.00372165
0.00407759
0.0044309
0.00477898
0.00511916
0.00544877
0.00576512
0.00606556
0.00634751
0.00660853
0.00684634
0.00705887
0.00724429
0.00740107
0.00752802
0.00762432
0.00768952
0.0077236
0.00772696
0.00770047
0.00764542
0.00756354
0.00745702
0.00732843
0.00718076
0.00701735
0.00684188
0.00665832
0.00647091
0.00628407
0.00610239
0.00593051
0.0057731
0.00563472
0.00551971
0.00543175
0.00537419
0.00535449
0.00537819
0.0003296
0.000272576
0.000197099
0.000104395
-2.99565e-06
-0.000120498
-0.000243748
-0.000368815
-0.000492133
-0.000610566
-0.000721395
-0.000822314
-0.000911401
-0.000987082
-0.00104808
-0.00109338
-0.00112218
-0.00113384
-0.00112786
-0.00110391
-0.0010617
-0.00100106
-0.000921873
-0.000824077
-0.000707685
-0.000572762
-0.000419443
-0.000247947
-5.85648e-05
0.000148327
0.000372241
0.000612581
0.000868609
0.00113944
0.00142408
0.00172135
0.00202992
0.00234832
0.00267487
0.00300775
0.00334497
0.00368441
0.0040238
0.00436076
0.00469283
0.00501747
0.00533212
0.00563421
0.00592119
0.00619063
0.00644017
0.00666763
0.00687104
0.00704864
0.00719899
0.00732095
0.00741372
0.00747691
0.00751051
0.00751492
0.00749097
0.00743991
0.00736342
0.00726358
0.00714286
0.00700408
0.00685042
0.00668533
0.00651253
0.00633596
0.0061597
0.00598794
0.0058249
0.00567479
0.00554169
0.0054295
0.00534164
0.00528132
0.0052553
0.00526863
0.000508422
0.000420375
0.000325937
0.000222924
0.000110107
-8.86385e-06
-0.000130408
-0.000251465
-0.000369213
-0.000481126
-0.000584983
-0.000678885
-0.000761234
-0.000830707
-0.000886219
-0.000926893
-0.000952026
-0.000961054
-0.000953541
-0.000929161
-0.000887663
-0.000828855
-0.000752607
-0.000658849
-0.000547562
-0.000418784
-0.000272613
-0.000109224
7.11327e-05
0.000268138
0.00048136
0.000710255
0.000954153
0.00121224
0.00148359
0.00176711
0.00206156
0.00236554
0.00267748
0.00299564
0.00331814
0.00364295
0.00396789
0.0042907
0.00460901
0.00492038
0.00522233
0.00551239
0.00578811
0.00604711
0.00628712
0.00650603
0.00670191
0.00687306
0.00701809
0.00713588
0.00722566
0.00728704
0.00732001
0.00732495
0.00730267
0.00725438
0.00718168
0.00708657
0.00697141
0.00683892
0.00669209
0.0065342
0.00636874
0.00619939
0.00602994
0.00586425
0.00570619
0.00555954
0.00542801
0.00531511
0.005224
0.00515765
0.00512131
0.0051185
0.000704907
0.000583203
0.000466902
0.000350439
0.000228845
0.000105021
-1.81129e-05
-0.000138277
-0.000253342
-0.000361346
-0.000460555
-0.000549482
-0.000626864
-0.000691648
-0.00074296
-0.000780092
-0.000802462
-0.000809605
-0.00080116
-0.000776841
-0.000736418
-0.000679706
-0.000606575
-0.000516941
-0.000410759
-0.000288036
-0.000148833
6.72655e-06
0.000178444
0.000366055
0.000569189
0.000787367
0.00101999
0.00126632
0.00152551
0.00179655
0.00207828
0.0023694
0.00266842
0.00297368
0.00328338
0.00359559
0.00390822
0.00421907
0.00452587
0.00482624
0.00511777
0.00539806
0.0056647
0.00591535
0.00614781
0.00635998
0.00654996
0.00671609
0.00685696
0.00697148
0.00705887
0.00711872
0.00715102
0.00715611
0.00713476
0.00708813
0.00701778
0.00692561
0.00681391
0.00668527
0.00654255
0.00638888
0.00622756
0.00606206
0.00589591
0.0057327
0.00557598
0.00542924
0.00529584
0.00517892
0.00508143
0.00500613
0.00495624
0.00493333
0.000910444
0.000753884
0.000613917
0.000481789
0.000348939
0.000217659
9.0319e-05
-3.14936e-05
-0.00014627
-0.000252583
-0.000349169
-0.000434937
-0.000508961
-0.000570467
-0.000618802
-0.000653437
-0.000673938
-0.000679959
-0.000671215
-0.000647473
-0.000608535
-0.000554236
-0.000484442
-0.000399064
-0.000298033
-0.000181323
-4.89509e-05
9.90096e-05
0.000262421
0.000441077
0.000634672
0.000842798
0.00106493
0.00130042
0.0015485
0.00180824
0.00207858
0.00235828
0.00264594
0.00293999
0.00323871
0.00354022
0.00384252
0.00414349
0.00444089
0.0047324
0.00501566
0.00528829
0.00554792
0.00579224
0.00601903
0.00622622
0.0064119
0.0065744
0.00671231
0.00682449
0.00691016
0.00696888
0.00700058
0.00700559
0.00698462
0.00693878
0.00686957
0.00677883
0.00666875
0.00654183
0.00640084
0.00624876
0.00608874
0.00592407
0.00575809
0.00559416
0.00543559
0.0052856
0.00514724
0.00502339
0.00491678
0.00482999
0.00476404
0.00471847
0.00111767
0.000925956
0.000761319
0.00061204
0.000466161
0.000325469
0.000191894
6.64146e-05
-5.00297e-05
-0.000156513
-0.000252207
-0.000336408
-0.000408518
-0.000468032
-0.000514533
-0.000547677
-0.000567193
-0.000572851
-0.000564453
-0.00054183
-0.000504822
-0.000453289
-0.000387102
-0.000306158
-0.000210372
-9.968e-05
2.59463e-05
0.00016649
0.000321873
0.000491952
0.000676492
0.000875165
0.00108753
0.00131302
0.00155095
0.00180048
0.00206064
0.00233026
0.00260803
0.00289244
0.00318185
0.00347446
0.0037683
0.00406132
0.00435131
0.00463599
0.00491302
0.00518003
0.00543464
0.00567455
0.00589753
0.00610146
0.00628443
0.00644472
0.00658088
0.00669173
0.00677645
0.00683453
0.00686587
0.00687073
0.00684977
0.00680406
0.00673502
0.00664444
0.00653443
0.00640742
0.00626607
0.00611327
0.00595205
0.00578556
0.00561697
0.00544948
0.00528621
0.00513015
0.00498413
0.00485077
0.00473268
0.00463227
0.00454841
0.0044786
0.00132027
0.00109363
0.000903883
0.000736526
0.000576387
0.000424857
0.000283504
0.000152766
3.30623e-05
-7.51376e-05
-0.000171419
-0.000255439
-0.000326914
-0.000385607
-0.000431335
-0.000463948
-0.000483334
-0.000489383
-0.000481986
-0.000461042
-0.000426442
-0.000378063
-0.000315787
-0.000239505
-0.000149106
-4.44864e-05
7.44335e-05
0.000207687
0.00035526
0.000517081
0.000692993
0.000882747
0.00108599
0.00130224
0.00153091
0.00177124
0.00202234
0.00228313
0.00255236
0.00282862
0.00311031
0.00339568
0.00368284
0.00396975
0.00425424
0.00453403
0.00480679
0.00507014
0.00532169
0.00555909
0.00578007
0.00598248
0.00616435
0.00632389
0.00645959
0.00657021
0.00665484
0.00671292
0.00674428
0.00674911
0.00672801
0.00668198
0.00661237
0.00652092
0.00640969
0.00628103
0.00613753
0.00598199
0.00581737
0.00564669
0.00547303
0.00529945
0.00512891
0.00496428
0.00480819
0.00466307
0.00453147
0.0044157
0.00431254
0.00421756
0.00151271
0.00125173
0.00103681
0.000850843
0.000675639
0.000512268
0.000361993
0.000224762
0.000100526
-1.06619e-05
-0.000108774
-0.000193806
-0.000265772
-0.000324704
-0.000370641
-0.000403631
-0.000423708
-0.000430884
-0.000425148
-0.000406465
-0.000374769
-0.000329968
-0.000271954
-0.000200603
-0.000115775
-1.73317e-05
9.48581e-05
0.00022089
0.000360814
0.000514633
0.000682268
0.000863564
0.00105826
0.00126596
0.00148616
0.00171821
0.00196128
0.00221439
0.00247636
0.00274584
0.00302129
0.00330102
0.00358317
0.00386573
0.00414654
0.00442331
0.00469372
0.00495533
0.00520572
0.00544249
0.00566332
0.00586597
0.00604839
0.00620872
0.00634534
0.00645693
0.00654248
0.00660136
0.0066333
0.0066384
0.0066172
0.00657061
0.00649994
0.00640685
0.00629335
0.00616173
0.00601455
0.00585452
0.00568455
0.0055076
0.00532667
0.00514473
0.00496466
0.0047892
0.00462089
0.00446203
0.00431516
0.00418257
0.00405906
0.00393836
0.0016901
0.00139552
0.00115563
0.000950848
0.00076011
0.000584226
0.000424203
0.000279545
0.000149778
3.45672e-05
-6.64107e-05
-0.000153473
-0.000226921
-0.000287045
-0.000334096
-0.000368309
-0.000389864
-0.00039889
-0.00039547
-0.000379639
-0.000351376
-0.000310612
-0.000257243
-0.000191136
-0.000112122
-2.00147e-05
8.53674e-05
0.00020418
0.000336542
0.000482537
0.000642178
0.000815397
0.00100202
0.00120177
0.00141421
0.0016388
0.00187479
0.00212127
0.00237714
0.00264111
0.00291172
0.00318731
0.00346605
0.00374593
0.00402481
0.0043004
0.0045703
0.00483207
0.00508321
0.00532126
0.00554379
0.00574849
0.00593319
0.00609593
0.00623496
0.00634886
0.00643651
0.00649715
0.0065304
0.00653628
0.00651523
0.00646808
0.00639608
0.00630082
0.00618425
0.00604864
0.00589648
0.00573047
0.00555346
0.0053684
0.00517824
0.00498591
0.00479425
0.00460596
0.0044235
0.00424912
0.00408543
0.00393476
0.00379003
0.00364328
0.00184804
0.00152071
0.00125622
0.00103264
0.000826144
0.000637333
0.000466991
0.000314218
0.000178151
5.80943e-05
-4.66049e-05
-0.000136566
-0.000212366
-0.000274533
-0.000323535
-0.000359762
-0.000383542
-0.000395125
-0.000394682
-0.000382305
-0.00035802
-0.000321784
-0.000273492
-0.000212993
-0.00014008
-5.45294e-05
4.38939e-05
0.000155413
0.000280226
0.0004185
0.00057034
0.000735773
0.000914727
0.00110701
0.00131231
0.00153015
0.00175988
0.00200068
0.00225152
0.00251118
0.00277824
0.00305109
0.00332793
0.00360675
0.0038854
0.00416156
0.00443281
0.00469662
0.00495042
0.00519166
0.00541781
0.00562644
0.00581525
0.00598212
0.0061252
0.00624291
0.00633398
0.00639752
0.00643304
0.00644042
0.00642001
0.00637254
0.00629917
0.00620145
0.00608128
0.00594086
0.00578268
0.00560942
0.00542393
0.00522914
0.00502801
0.00482348
0.00461838
0.00441542
0.00421706
0.00402555
0.00384361
0.00367373
0.00350704
0.00333392
0.00198251
0.00162332
0.00133473
0.00109252
0.000870231
0.000668276
0.00048725
0.000325878
0.000182928
5.73749e-05
-5.17431e-05
-0.000145343
-0.000224262
-0.000289242
-0.000340945
-0.00037993
-0.000406662
-0.000421494
-0.000424679
-0.000416374
-0.000396645
-0.000365463
-0.000322718
-0.000268236
-0.000201781
-0.00012308
-3.18384e-05
7.2238e-05
0.00018943
0.000319994
0.000464128
0.000621966
0.000793538
0.000978755
0.0011774
0.0013891
0.0016133
0.00184925
0.00209602
0.00235244
0.00261716
0.00288858
0.00316494
0.00344424
0.00372431
0.00400279
0.00427719
0.00454492
0.00480333
0.00504973
0.00528148
0.005496
0.00569084
0.00586373
0.00601264
0.00613582
0.00623184
0.00629966
0.00633861
0.00634845
0.0063294
0.0062821
0.0062076
0.00610738
0.00598329
0.00583751
0.00567251
0.00549097
0.00529576
0.00508983
0.00487619
0.00465781
0.00443758
0.00421827
0.0040024
0.00379224
0.00359075
0.00340058
0.00321117
0.00301135
0.00208976
0.00169965
0.00138752
0.00112696
0.000888993
0.000673841
0.000481926
0.000311629
0.000161378
2.98208e-05
-8.43039e-05
-0.000182177
-0.000264874
-0.000333358
-0.000388464
-0.000430911
-0.000461287
-0.000480047
-0.000487523
-0.000483929
-0.000469358
-0.000443791
-0.00040711
-0.000359118
-0.000299542
-0.000228057
-0.000144302
-4.79063e-05
6.14951e-05
0.000184256
0.000320679
0.000471002
0.000635365
0.000813786
0.00100615
0.00121219
0.00143145
0.00166328
0.00190682
0.00216097
0.00242443
0.00269565
0.00297289
0.00325414
0.00353721
0.00381971
0.00409907
0.00437261
0.00463758
0.00489117
0.00513058
0.00535307
0.005556
0.00573694
0.00589364
0.00602416
0.00612689
0.00620057
0.00624438
0.0062579
0.00624121
0.00619481
0.00611967
0.00601718
0.00588913
0.00573768
0.00556529
0.00537467
0.00516871
0.00495043
0.00472291
0.00448919
0.00425229
0.00401508
0.00378016
0.00354993
0.0033276
0.00311607
0.00290316
0.00267613
0.00216631
0.0017462
0.00141116
0.00113263
0.000879186
0.000650898
0.000448029
0.000268613
0.000110751
-2.72087e-05
-0.000146814
-0.000249499
-0.000336566
-0.000409177
-0.00046834
-0.000514916
-0.000549613
-0.00057298
-0.000585419
-0.00058719
-0.000578411
-0.000559064
-0.000529022
-0.000488059
-0.000435857
-0.000372036
-0.000296165
-0.00020779
-0.000106452
8.30367e-06
0.000136889
0.000279654
0.00043685
0.000608611
0.000794938
0.000995669
0.00121046
0.00143874
0.00167975
0.00193247
0.00219566
0.00246781
0.00274718
0.00303178
0.00331939
0.00360756
0.00389368
0.00417495
0.00444849
0.00471136
0.00496058
0.00519323
0.00540648
0.00559766
0.00576432
0.00590428
0.00601569
0.0060971
0.00614745
0.00616616
0.0061531
0.00610864
0.00603363
0.00592937
0.00579758
0.00564041
0.0054603
0.00526001
0.00504249
0.00481083
0.00456822
0.00431784
0.00406285
0.00380625
0.00355082
0.00329912
0.00305467
0.00282068
0.00258336
0.00232843
0.0022088
0.00175965
0.00140235
0.00110629
0.000837684
0.000596425
0.000382625
0.000193995
2.83138e-05
-0.00011636
-0.000241839
-0.0003498
-0.000441762
-0.000519074
-0.000582909
-0.000634262
-0.000673946
-0.000702602
-0.000720691
-0.000728511
-0.000726194
-0.000713725
-0.000690957
-0.000657633
-0.000613385
-0.00055777
-0.000490281
-0.000410376
-0.000317492
-0.000211069
-9.05811e-05
4.44396e-05
0.000194366
0.000359456
0.000539831
0.000735447
0.00094607
0.00117125
0.0014103
0.00166231
0.00192607
0.00220014
0.00248281
0.00277208
0.00306571
0.00336119
0.00365584
0.00394675
0.00423092
0.00450523
0.00476652
0.00501167
0.00523762
0.00544145
0.00562045
0.00577218
0.00589455
0.00598582
0.0060447
0.00607039
0.00606256
0.00602139
0.0059476
0.00584236
0.00570736
0.00554468
0.00535679
0.00514647
0.00491677
0.00467089
0.00441214
0.0041439
0.00386947
0.00359209
0.00331473
0.00304017
0.00277228
0.00251465
0.00225187
0.00196813
0.00221406
0.00173683
0.00135799
0.00104489
0.000761473
0.000507481
0.000282851
8.49829e-05
-8.86537e-05
-0.000240278
-0.000371956
-0.000485599
-0.000582934
-0.000665488
-0.000734584
-0.000791344
-0.000836685
-0.000871322
-0.00089577
-0.000910352
-0.000915215
-0.000910339
-0.000895553
-0.000870559
-0.000834937
-0.000788173
-0.000729677
-0.000658809
-0.000574902
-0.000477281
-0.000365298
-0.000238362
-9.59672e-05
6.22734e-05
0.000236614
0.00042714
0.000633741
0.000856083
0.00109359
0.00134543
0.00161048
0.00188736
0.00217437
0.00246954
0.00277058
0.00307496
0.0033799
0.00368239
0.00397928
0.00426728
0.00454302
0.00480315
0.00504436
0.00526344
0.00545741
0.00562353
0.0057594
0.00586299
0.00593273
0.00596754
0.00596687
0.00593069
0.00585953
0.00575446
0.00561706
0.00544938
0.0052539
0.00503346
0.00479118
0.00453041
0.00425464
0.00396744
0.00367234
0.00337282
0.00307213
0.00277328
0.00248058
0.00219803
0.00190857
0.00159483
0.00217905
0.00167472
0.00127505
0.000945462
0.000647651
0.00038121
0.000145907
-6.11645e-05
-0.000242832
-0.000401583
-0.000539737
-0.000659429
-0.00076258
-0.000850889
-0.000925824
-0.000988621
-0.00104029
-0.00108162
-0.00111316
-0.00113527
-0.00114808
-0.00115158
-0.00114556
-0.00112968
-0.00110346
-0.0010663
-0.00101753
-0.000956405
-0.000882142
-0.000793945
-0.000691041
-0.0005727
-0.000438281
-0.000287251
-0.000119213
6.60574e-05
0.000268589
0.000488176
0.000724362
0.000976415
0.00124331
0.00152372
0.00181599
0.00211816
0.00242795
0.00274275
0.00305972
0.00337573
0.00368748
0.00399148
0.00428417
0.00456191
0.00482113
0.00505831
0.00527015
0.00545356
0.0056058
0.00572451
0.00580778
0.00585424
0.00586304
0.00583392
0.00576719
0.00566378
0.00552515
0.0053533
0.00515073
0.00492031
0.00466528
0.00438916
0.00409564
0.0037885
0.00347156
0.00314861
0.00282317
0.00249859
0.00217962
0.00187073
0.00155319
0.00120799
0.00210082
0.00157041
0.00115068
0.000805169
0.000493415
0.000214846
-3.09271e-05
-0.000247117
-0.000436844
-0.000602864
-0.000747736
-0.000873813
-0.000983203
-0.00107777
-0.00115912
-0.00122859
-0.00128728
-0.00133604
-0.00137544
-0.00140588
-0.00142748
-0.00144021
-0.00144384
-0.00143795
-0.00142201
-0.00139534
-0.00135717
-0.00130663
-0.00124284
-0.00116486
-0.00107178
-0.000962741
-0.000836937
-0.000693684
-0.000532427
-0.000352787
-0.000154584
6.21208e-05
0.000297005
0.000549456
0.000818553
0.00110305
0.00140134
0.00171151
0.00203124
0.00235792
0.00268861
0.00302008
0.00334885
0.00367126
0.00398348
0.00428164
0.00456182
0.00482019
0.00505306
0.00525699
0.00542882
0.00556583
0.00566572
0.00572676
0.00574776
0.00572819
0.00566811
0.00556824
0.00542993
0.0052551
0.00504624
0.00480628
0.00453859
0.00424686
0.00393501
0.00360709
0.00326724
0.00291958
0.00256798
0.00221615
0.00186935
0.00153257
0.00118532
0.00080689
0.00197656
0.0014211
0.00098211
0.000621269
0.000296057
5.72469e-06
-0.000250278
-0.000475468
-0.000673257
-0.000846658
-0.000998469
-0.00113125
-0.0012473
-0.00134862
-0.00143696
-0.00151376
-0.00158019
-0.00163713
-0.00168523
-0.00172485
-0.00175616
-0.00177906
-0.0017933
-0.0017984
-0.00179374
-0.00177857
-0.001752
-0.00171307
-0.00166074
-0.00159396
-0.00151167
-0.00141283
-0.0012965
-0.00116181
-0.00100804
-0.000834645
-0.000641268
-0.000427809
-0.00019444
5.83695e-05
0.000329816
0.000618749
0.000923652
0.00124263
0.0015734
0.0019133
0.00225934
0.00260817
0.00295615
0.00329942
0.0036339
0.00395542
0.00425972
0.00454261
0.00479999
0.00502799
0.00522302
0.00538191
0.00550193
0.00558093
0.00561734
0.00561027
0.00555949
0.00546551
0.00532949
0.00515326
0.00493928
0.00469055
0.00441056
0.00410319
0.00377262
0.0034232
0.00305945
0.00268584
0.00230665
0.00192599
0.0015497
0.00118332
0.000804535
0.000390773
0.00180352
0.00122411
0.000766672
0.000391138
5.29819e-05
-0.000248718
-0.000514684
-0.000748733
-0.000954564
-0.00113545
-0.0012944
-0.0014342
-0.00155732
-0.00166591
-0.00176183
-0.00184663
-0.00192153
-0.00198748
-0.00204514
-0.00209489
-0.00213688
-0.00217099
-0.0021969
-0.00221409
-0.00222185
-0.00221934
-0.00220555
-0.00217939
-0.00213972
-0.00208531
-0.00201496
-0.00192747
-0.0018217
-0.00169661
-0.00155129
-0.00138501
-0.00119721
-0.000987626
-0.000756243
-0.000503374
-0.000229676
6.38212e-05
0.000375698
0.000704122
0.00104684
0.0014012
0.00176411
0.00213215
0.00250153
0.00286815
0.0032277
0.00357567
0.00390746
0.00421845
0.00450412
0.0047601
0.00498233
0.00516712
0.00531126
0.00541209
0.00546761
0.00547652
0.00543824
0.00535297
0.00522168
0.00504607
0.00482855
0.00457218
0.00428056
0.00395779
0.00360831
0.00323684
0.00284827
0.00244752
0.0020393
0.00162816
0.00122059
0.000822762
0.000410351
-4.1144e-05
0.0015791
0.000976863
0.000501837
0.000112272
-0.000238282
-0.000550932
-0.000826579
-0.00106933
-0.00128317
-0.00147162
-0.00163793
-0.00178507
-0.00191568
-0.00203206
-0.00213617
-0.00222966
-0.00231382
-0.00238963
-0.00245779
-0.00251868
-0.00257241
-0.00261885
-0.00265761
-0.00268812
-0.00270957
-0.00272101
-0.00272134
-0.00270933
-0.00268369
-0.00264306
-0.00258604
-0.00251126
-0.00241739
-0.0023032
-0.00216757
-0.00200955
-0.00182838
-0.00162359
-0.00139496
-0.00114261
-0.000867041
-0.000569123
-0.000250154
8.81252e-05
0.000443519
0.000813371
0.00119458
0.0015836
0.00197651
0.002369
0.00275649
0.00313414
0.00349696
0.0038399
0.00415793
0.00444619
0.00470004
0.00491522
0.00508796
0.00521504
0.00529394
0.00532286
0.00530082
0.00522765
0.00510407
0.00493161
0.0047126
0.00445012
0.0041479
0.00381024
0.00344191
0.003048
0.00263383
0.00220478
0.00176607
0.00132276
0.000882021
0.000450697
2.3433e-06
-0.000489622
0.00130079
0.000676906
0.000185201
-0.000217702
-0.000580089
-0.000903256
-0.00118828
-0.00143958
-0.0016614
-0.0018575
-0.00203138
-0.00218618
-0.0023247
-0.0024494
-0.00256235
-0.00266526
-0.00275951
-0.00284611
-0.00292576
-0.00299885
-0.00306548
-0.00312547
-0.00317839
-0.00322356
-0.0032601
-0.00328697
-0.00330292
-0.00330662
-0.00329661
-0.00327135
-0.00322929
-0.00316885
-0.00308851
-0.00298681
-0.00286239
-0.00271409
-0.00254091
-0.00234214
-0.00211735
-0.00186644
-0.00158969
-0.0012878
-0.000961908
-0.000613634
-0.00024509
0.000141106
0.000541834
0.000953485
0.00137199
0.00179285
0.0022112
0.00262186
0.00301944
0.0033984
0.00375321
0.00407839
0.00436871
0.00461927
0.00482563
0.00498396
0.00509111
0.0051447
0.00514327
0.00508622
0.00497393
0.0048077
0.00458975
0.00432315
0.00401177
0.00366011
0.00327326
0.00285672
0.00241628
0.00195786
0.00148721
0.00100995
0.000534032
6.70118e-05
-0.000419835
-0.000955351
0.000966198
0.000321926
-0.000185513
-0.000601034
-0.000974669
-0.0013079
-0.00160201
-0.00186167
-0.00209143
-0.00229529
-0.00247694
-0.00263973
-0.00278663
-0.00292021
-0.00304266
-0.00315577
-0.00326097
-0.00335933
-0.00345154
-0.00353799
-0.00361876
-0.00369362
-0.00376208
-0.0038234
-0.00387659
-0.0039205
-0.00395378
-0.00397494
-0.00398235
-0.00397432
-0.0039491
-0.00390491
-0.00383999
-0.00375264
-0.00364129
-0.00350449
-0.00334101
-0.00314986
-0.00293035
-0.00268213
-0.00240525
-0.00210018
-0.00176787
-0.00140978
-0.00102789
-0.000624765
-0.000203499
0.000232253
0.000678302
0.00112996
0.00158209
0.00202917
0.00246537
0.00288467
0.00328093
0.00364808
0.00398017
0.00427159
0.00451718
0.00471236
0.00485327
0.00493689
0.00496112
0.00492488
0.00482811
0.00467184
0.0044581
0.00418993
0.00387128
0.00350689
0.00310218
0.00266307
0.00219586
0.00170708
0.00120307
0.000690046
0.000176813
-0.000328273
-0.000856408
-0.00143889
0.000573097
-9.02578e-05
-0.000612447
-0.00103984
-0.00142411
-0.00176696
-0.00206982
-0.00233768
-0.00257534
-0.00278705
-0.0029767
-0.00314784
-0.00330358
-0.00344663
-0.00357927
-0.0037034
-0.00382048
-0.0039316
-0.0040375
-0.00413854
-0.00423477
-0.00432593
-0.00441145
-0.00449052
-0.00456206
-0.00462481
-0.00467729
-0.00471785
-0.00474472
-0.004756
-0.00474976
-0.00472397
-0.00467667
-0.00460589
-0.00450978
-0.00438663
-0.0042349
-0.00405333
-0.00384093
-0.00359705
-0.00332148
-0.00301441
-0.00267656
-0.00230918
-0.00191411
-0.00149377
-0.00105123
-0.000590129
-0.000114763
0.000370011
0.000858798
0.00134573
0.00182453
0.00228864
0.00273134
0.00314582
0.00352542
0.00386372
0.00415472
0.00439301
0.00457391
0.00469362
0.00474934
0.00473935
0.0046631
0.00452121
0.00431549
0.0040489
0.00372544
0.00335005
0.00292849
0.00246716
0.00197291
0.0014529
0.000914124
0.000363492
-0.000189283
-0.000734958
-0.00130742
-0.00194062
0.000119391
-0.000561677
-0.00109759
-0.00153608
-0.00193037
-0.00228234
-0.00259365
-0.00286953
-0.00311506
-0.00333471
-0.0035326
-0.00371244
-0.00387751
-0.00403064
-0.00417422
-0.00431021
-0.00444012
-0.0045651
-0.00468587
-0.00480279
-0.00491589
-0.00502485
-0.00512907
-0.00522762
-0.00531937
-0.00540291
-0.00547663
-0.00553875
-0.00558731
-0.00562023
-0.00563535
-0.00563044
-0.00560325
-0.00555156
-0.00547321
-0.00536621
-0.00522869
-0.00505906
-0.00485601
-0.00461855
-0.00434614
-0.00403868
-0.0036966
-0.00332089
-0.00291317
-0.00247572
-0.00201147
-0.00152408
-0.00101787
-0.000497835
3.03745e-05
0.00056055
0.00108598
0.00159955
0.00209388
0.00256143
0.00299471
0.00338641
0.0037296
0.00401794
0.00424579
0.00440846
0.00450229
0.00452483
0.00447489
0.00435262
0.0041595
0.00389832
0.0035731
0.00318898
0.00275205
0.00226919
0.00174787
0.00119592
0.000621056
3.09469e-05
-0.000563685
-0.00115263
-0.00177271
-0.00246072
-0.000396846
-0.00109419
-0.00164275
-0.00209154
-0.00249521
-0.00285583
-0.00317524
-0.00345897
-0.00371234
-0.00394005
-0.00414642
-0.00433535
-0.00451025
-0.0046741
-0.00482937
-0.00497809
-0.00512184
-0.00526178
-0.00539866
-0.00553283
-0.00566428
-0.00579266
-0.00591729
-0.00603719
-0.00615111
-0.00625754
-0.00635474
-0.00644076
-0.00651346
-0.00657059
-0.00660974
-0.00662843
-0.00662416
-0.0065944
-0.00653671
-0.00644872
-0.00632826
-0.00617336
-0.00598232
-0.00575381
-0.00548689
-0.00518111
-0.00483657
-0.00445394
-0.00403457
-0.00358052
-0.00309457
-0.00258028
-0.002042
-0.00148482
-0.0009146
-0.000337875
0.000238199
0.000805946
0.00135729
0.00188393
0.00237745
0.00282959
0.00323237
0.00357838
0.00386092
0.00407423
0.00421368
0.00427593
0.00425901
0.00416247
0.00398735
0.0037362
0.003413
0.00302302
0.00257271
0.00206944
0.00152132
0.000936913
0.00032475
-0.000306689
-0.000945562
-0.0015806
-0.0022518
-0.00299906
-0.000977356
-0.00168948
-0.00224959
-0.00270785
-0.00312023
-0.003489
-0.00381619
-0.00410758
-0.00436875
-0.00460464
-0.00481975
-0.00501815
-0.00520341
-0.00537862
-0.00554635
-0.00570871
-0.00586733
-0.0060234
-0.00617767
-0.00633049
-0.00648184
-0.00663131
-0.00677818
-0.00692139
-0.00705959
-0.00719116
-0.00731422
-0.00742666
-0.00752618
-0.00761029
-0.00767637
-0.00772168
-0.00774343
-0.00773879
-0.00770498
-0.00763928
-0.00753913
-0.00740216
-0.00722627
-0.0070097
-0.00675109
-0.00644958
-0.00610485
-0.00571722
-0.0052877
-0.00481805
-0.00431085
-0.00376951
-0.00319832
-0.00260243
-0.00198788
-0.00136148
-0.000730839
-0.000104186
0.0005097
0.00110166
0.00166235
0.00218242
0.00265278
0.00306479
0.00341053
0.00368305
0.00387656
0.00398665
0.00401044
0.00394671
0.00379594
0.00356032
0.0032437
0.00285147
0.00239036
0.00186828
0.00129399
0.000676891
2.63553e-05
-0.000648224
-0.00133377
-0.00201786
-0.00274392
-0.00355522
-0.00162368
-0.00234904
-0.00291955
-0.00338643
-0.00380685
-0.00418326
-0.00451788
-0.00481676
-0.00508571
-0.00532989
-0.00555399
-0.00576225
-0.0059584
-0.00614562
-0.0063266
-0.00650351
-0.00667804
-0.0068514
-0.00702438
-0.00719731
-0.00737015
-0.00754247
-0.00771348
-0.00788204
-0.00804673
-0.0082058
-0.00835725
-0.00849881
-0.00862798
-0.00874207
-0.00883822
-0.00891343
-0.0089646
-0.00898858
-0.00898223
-0.00894246
-0.00886628
-0.00875089
-0.00859374
-0.00839259
-0.00814562
-0.00785148
-0.0075094
-0.00711925
-0.00668163
-0.00619794
-0.00567048
-0.00510243
-0.00449796
-0.00386223
-0.00320137
-0.00252246
-0.0018335
-0.00114329
-0.000461324
0.000202376
0.000837441
0.00143338
0.00197984
0.00246684
0.00288511
0.00322629
0.00348326
0.00365036
0.00372361
0.00370083
0.00358179
0.00336818
0.00306362
0.00267353
0.00220492
0.00166619
0.00106684
0.000417109
-0.000272676
-0.000992122
-0.0017268
-0.00246301
-0.00324788
-0.00412831
-0.00233715
-0.00307413
-0.00365386
-0.0041285
-0.00455626
-0.00493979
-0.00528151
-0.00558769
-0.00586439
-0.00611697
-0.00635032
-0.00656884
-0.00677638
-0.00697626
-0.00717126
-0.00736363
-0.00755511
-0.00774696
-0.00793997
-0.00813448
-0.00833044
-0.00852739
-0.00872448
-0.00892052
-0.00911399
-0.00930304
-0.00948552
-0.00965901
-0.00982084
-0.00996809
-0.0100977
-0.0102063
-0.0102905
-0.010347
-0.010372
-0.0103621
-0.010314
-0.0102243
-0.0100899
-0.00990817
-0.00967669
-0.00939359
-0.00905755
-0.00866795
-0.00822488
-0.00772933
-0.00718319
-0.00658936
-0.00595181
-0.0052756
-0.00456691
-0.00383303
-0.0030823
-0.00232407
-0.00156854
-0.000826634
-0.000109782
0.000570299
0.00120188
0.00177353
0.0022744
0.00269459
0.00302543
0.0032598
0.00339237
0.00341984
0.00334104
0.00315701
0.002871
0.00248837
0.00201634
0.00146382
0.000841021
0.000159118
-0.000570538
-0.00133645
-0.00212271
-0.00291418
-0.00376203
-0.00471704
-0.00311883
-0.0038658
-0.00445355
-0.00493507
-0.00536947
-0.00575961
-0.00610807
-0.00642137
-0.00670578
-0.00696686
-0.00720969
-0.00743882
-0.00765826
-0.00787142
-0.00808121
-0.00828992
-0.00849938
-0.00871088
-0.00892523
-0.0091428
-0.00936351
-0.00958689
-0.00981204
-0.0100377
-0.0102623
-0.0104839
-0.0107001
-0.0109085
-0.0111061
-0.0112898
-0.0114564
-0.0116021
-0.0117234
-0.0118163
-0.0118769
-0.0119014
-0.0118857
-0.0118261
-0.0117191
-0.0115612
-0.0113496
-0.0110817
-0.0107558
-0.0103704
-0.00992518
-0.00942058
-0.00885802
-0.00823999
-0.00757018
-0.00685346
-0.00609599
-0.00530516
-0.00448963