/*--------------------------------*- C++ -*----------------------------------*\
  =========                 |
  \\      /  F ield         | OpenFOAM: The Open Source CFD Toolbox
   \\    /   O peration     | Website:  https://openfoam.org
    \\  /    A nd           | Version:  7
     \\/     M anipulation  |
\*---------------------------------------------------------------------------*/
FoamFile
{
    version     2.0;
    format      ascii;
    class       surfaceScalarField;
    location    "0.6";
    object      phi;
}
// * * * * * * * * * * * * * * * * * * * * * * * * * * * * * * * * * * * * * //

dimensions      [0 3 -1 0 0 0 0];

internalField   nonuniform List<scalar> 
12640
(
2.00986e-10
-2.00911e-10
5.64142e-10
-3.63134e-10
8.67504e-10
-3.0335e-10
9.87117e-10
-1.19638e-10
8.65254e-10
1.21854e-10
4.80122e-10
3.85141e-10
-1.69761e-10
6.49881e-10
-1.07431e-09
9.04553e-10
-2.21702e-09
1.14269e-09
-3.57787e-09
1.36083e-09
-5.13512e-09
1.55724e-09
-6.8664e-09
1.73128e-09
-8.74937e-09
1.88297e-09
-1.07621e-08
2.01278e-09
-1.28835e-08
2.12139e-09
-1.50932e-08
2.20967e-09
-1.73717e-08
2.27855e-09
-1.97007e-08
2.32897e-09
-2.20626e-08
2.36185e-09
-2.44407e-08
2.37809e-09
-2.68192e-08
2.37854e-09
-2.91832e-08
2.36395e-09
-3.15182e-08
2.33505e-09
-3.38107e-08
2.29247e-09
-3.60475e-08
2.2368e-09
-3.82161e-08
2.16856e-09
-4.03043e-08
2.08825e-09
-4.23006e-08
1.99633e-09
-4.41938e-08
1.89321e-09
-4.59731e-08
1.77929e-09
-4.76281e-08
1.65501e-09
-4.91489e-08
1.52081e-09
-5.05261e-08
1.37713e-09
-5.17505e-08
1.22447e-09
-5.28139e-08
1.06338e-09
-5.37084e-08
8.9449e-10
-5.44268e-08
7.18441e-10
-5.49628e-08
5.36e-10
-5.53109e-08
3.48018e-10
-5.54663e-08
1.55415e-10
-5.54255e-08
-4.07895e-11
-5.5186e-08
-2.39479e-10
-5.47466e-08
-4.39462e-10
-5.41071e-08
-6.39451e-10
-5.32691e-08
-8.38064e-10
-5.22352e-08
-1.03386e-09
-5.10098e-08
-1.22534e-09
-4.95989e-08
-1.41093e-09
-4.80099e-08
-1.58903e-09
-4.62518e-08
-1.75802e-09
-4.43356e-08
-1.91626e-09
-4.22734e-08
-2.06215e-09
-4.00794e-08
-2.19409e-09
-3.77688e-08
-2.31055e-09
-3.53588e-08
-2.41008e-09
-3.28675e-08
-2.49131e-09
-3.03144e-08
-2.55301e-09
-2.77203e-08
-2.59408e-09
-2.51068e-08
-2.61356e-09
-2.24961e-08
-2.61067e-09
-1.99113e-08
-2.58482e-09
-1.73756e-08
-2.53562e-09
-1.49127e-08
-2.46292e-09
-1.25459e-08
-2.36678e-09
-1.02984e-08
-2.2475e-09
-8.19277e-09
-2.10566e-09
-6.25069e-09
-1.9421e-09
-4.49273e-09
-1.75798e-09
-2.93793e-09
-1.55482e-09
-1.60338e-09
-1.33455e-09
-5.0367e-10
-1.0997e-09
3.49847e-10
-8.53511e-10
9.50206e-10
-6.00359e-10
1.29651e-09
-3.46299e-10
1.39674e-09
-1.00219e-10
1.27228e-09
1.24464e-10
9.65408e-10
3.06875e-10
5.52213e-10
4.1319e-10
1.6549e-10
3.86718e-10
1.6549e-10
3.64211e-10
-5.65094e-10
8.48322e-10
-8.47263e-10
1.09853e-09
-5.53506e-10
8.9437e-10
8.45141e-11
1.06697e-10
9.09558e-10
-1.32724e-09
1.81908e-09
-3.42479e-09
2.74744e-09
-6.17345e-09
3.65319e-09
-9.54144e-09
4.51071e-09
-1.34851e-08
5.30449e-09
-1.79534e-08
6.02558e-09
-2.28915e-08
6.66943e-09
-2.82429e-08
7.23434e-09
-3.39506e-08
7.72049e-09
-3.99586e-08
8.12933e-09
-4.6212e-08
8.46313e-09
-5.26581e-08
8.72456e-09
-5.92457e-08
8.91659e-09
-6.59261e-08
9.04224e-09
-7.26525e-08
9.1045e-09
-7.93802e-08
9.10627e-09
-8.60666e-08
9.05029e-09
-9.26706e-08
8.93912e-09
-9.91533e-08
8.77513e-09
-1.05477e-07
8.5605e-09
-1.11606e-07
8.29727e-09
-1.17505e-07
7.98733e-09
-1.23141e-07
7.63247e-09
-1.28482e-07
7.23443e-09
-1.33498e-07
6.79492e-09
-1.38158e-07
6.31565e-09
-1.42436e-07
5.79839e-09
-1.46304e-07
5.24506e-09
-1.49737e-07
4.65767e-09
-1.52712e-07
4.03846e-09
-1.55208e-07
3.38988e-09
-1.57204e-07
2.71462e-09
-1.58684e-07
2.01567e-09
-1.59632e-07
1.29633e-09
-1.60037e-07
5.60205e-10
-1.59889e-07
-1.88786e-10
-1.59182e-07
-9.46371e-10
-1.57913e-07
-1.70795e-09
-1.56084e-07
-2.46864e-09
-1.53699e-07
-3.22326e-09
-1.50766e-07
-3.96633e-09
-1.47299e-07
-4.69221e-09
-1.43315e-07
-5.39505e-09
-1.38836e-07
-6.06887e-09
-1.33886e-07
-6.70762e-09
-1.28497e-07
-7.30527e-09
-1.22703e-07
-7.85583e-09
-1.16544e-07
-8.35346e-09
-1.10062e-07
-8.79252e-09
-1.03304e-07
-9.16766e-09
-9.63217e-08
-9.47391e-09
-8.9168e-08
-9.70673e-09
-8.18999e-08
-9.86212e-09
-7.45769e-08
-9.93666e-09
-6.72599e-08
-9.92758e-09
-6.00119e-08
-9.83286e-09
-5.28963e-08
-9.65124e-09
-4.59769e-08
-9.3823e-09
-3.93172e-08
-9.02654e-09
-3.29792e-08
-8.58542e-09
-2.70234e-08
-8.06144e-09
-2.15073e-08
-7.45823e-09
-1.64845e-08
-6.78071e-09
-1.2004e-08
-6.03526e-09
-8.10852e-09
-5.23004e-09
-4.83277e-09
-4.37546e-09
-2.20138e-09
-3.4849e-09
-2.25831e-10
-2.57591e-09
1.09984e-09
-1.67196e-09
1.80492e-09
-8.05292e-10
1.95066e-09
-2.1291e-11
1.64193e-09
6.15596e-10
1.04202e-09
1.0131e-09
3.85918e-10
1.04281e-09
5.51406e-10
3.07776e-10
-8.72855e-10
5.62282e-10
-1.10179e-09
3.65836e-10
-3.57049e-10
-5.36498e-10
9.86862e-10
-2.30377e-09
2.67684e-09
-5.0202e-09
4.53552e-09
-8.71403e-09
6.44124e-09
-1.33734e-08
8.31256e-09
-1.89586e-08
1.00959e-08
-2.54109e-08
1.17567e-08
-3.26591e-08
1.32738e-08
-4.06245e-08
1.46349e-08
-4.92242e-08
1.58341e-08
-5.83736e-08
1.68698e-08
-6.79878e-08
1.77436e-08
-7.79834e-08
1.84587e-08
-8.82786e-08
1.90198e-08
-9.87944e-08
1.94323e-08
-1.09454e-07
1.9702e-08
-1.20184e-07
1.98346e-08
-1.30914e-07
1.9836e-08
-1.41575e-07
1.97117e-08
-1.52103e-07
1.9467e-08
-1.62435e-07
1.91069e-08
-1.72511e-07
1.86361e-08
-1.82272e-07
1.80589e-08
-1.91665e-07
1.73795e-08
-2.00634e-07
1.66019e-08
-2.09129e-07
1.57299e-08
-2.17102e-07
1.47674e-08
-2.24505e-07
1.37184e-08
-2.31293e-07
1.25869e-08
-2.37425e-07
1.13772e-08
-2.42862e-07
1.00939e-08
-2.47565e-07
8.74207e-09
-2.51502e-07
7.32722e-09
-2.54643e-07
5.85537e-09
-2.56961e-07
4.33316e-09
-2.58432e-07
2.76785e-09
-2.59039e-07
1.16737e-09
-2.58769e-07
-4.59658e-10
-2.57611e-07
-2.10397e-09
-2.55563e-07
-3.75561e-09
-2.52628e-07
-5.40397e-09
-2.48813e-07
-7.03787e-09
-2.44134e-07
-8.64562e-09
-2.38611e-07
-1.0215e-08
-2.32273e-07
-1.17337e-08
-2.25153e-07
-1.31887e-08
-2.17293e-07
-1.45673e-08
-2.08742e-07
-1.58566e-08
-1.99554e-07
-1.70439e-08
-1.89791e-07
-1.81168e-08
-1.7952e-07
-1.90634e-08
-1.68815e-07
-1.98725e-08
-1.57755e-07
-2.05336e-08
-1.46425e-07
-2.10372e-08
-1.34912e-07
-2.13748e-08
-1.23309e-07
-2.15395e-08
-1.11711e-07
-2.15254e-08
-1.00215e-07
-2.13286e-08
-8.89199e-08
-2.09467e-08
-7.79231e-08
-2.03791e-08
-6.73225e-08
-1.96272e-08
-5.72134e-08
-1.86946e-08
-4.76877e-08
-1.75872e-08
-3.88325e-08
-1.63134e-08
-3.07288e-08
-1.48845e-08
-2.34489e-08
-1.33151e-08
-1.70554e-08
-1.16236e-08
-1.15975e-08
-9.83334e-09
-7.10844e-09
-7.97397e-09
-3.60096e-09
-6.08339e-09
-1.06202e-09
-4.2109e-09
5.5427e-10
-2.42158e-09
1.33558e-09
-8.02607e-10
1.42264e-09
5.28515e-10
1.02123e-09
1.41449e-09
4.14563e-10
1.64947e-09
9.6597e-10
1.28183e-10
-1.00103e-09
-6.82756e-11
-9.05369e-10
-9.6984e-10
5.44558e-10
-2.82906e-09
2.84607e-09
-5.80698e-09
5.65478e-09
-9.99135e-09
8.71988e-09
-1.5412e-08
1.18619e-08
-2.20548e-08
1.49554e-08
-2.98731e-08
1.79142e-08
-3.87968e-08
2.06804e-08
-4.87396e-08
2.32166e-08
-5.96045e-08
2.54997e-08
-7.12878e-08
2.75174e-08
-8.36827e-08
2.92646e-08
-9.66807e-08
3.07416e-08
-1.10174e-07
3.19523e-08
-1.24057e-07
3.29029e-08
-1.38226e-07
3.36012e-08
-1.5258e-07
3.4056e-08
-1.67022e-07
3.42763e-08
-1.81457e-07
3.42714e-08
-1.95796e-07
3.40501e-08
-2.0995e-07
3.36212e-08
-2.23836e-07
3.29929e-08
-2.37373e-07
3.2173e-08
-2.50483e-07
3.11692e-08
-2.63092e-07
2.99885e-08
-2.75128e-07
2.86379e-08
-2.86522e-07
2.71242e-08
-2.97209e-07
2.54543e-08
-3.07126e-07
2.36351e-08
-3.16213e-07
2.1674e-08
-3.24414e-07
1.95786e-08
-3.31678e-07
1.73571e-08
-3.37954e-07
1.50186e-08
-3.432e-07
1.25726e-08
-3.47374e-07
1.00298e-08
-3.50443e-07
7.40192e-09
-3.52376e-07
4.70155e-09
-3.53152e-07
1.94246e-09
-3.52751e-07
-8.60437e-10
-3.51164e-07
-3.69113e-09
-3.48387e-07
-6.5325e-09
-3.44424e-07
-9.36639e-09
-3.39288e-07
-1.21737e-08
-3.33e-07
-1.49345e-08
-3.25587e-07
-1.7628e-08
-3.17087e-07
-2.0233e-08
-3.07548e-07
-2.2728e-08
-2.97024e-07
-2.50911e-08
-2.8558e-07
-2.73006e-08
-2.73289e-07
-2.93351e-08
-2.60232e-07
-3.11737e-08
-2.46499e-07
-3.27965e-08
-2.32187e-07
-3.41844e-08
-2.17401e-07
-3.53201e-08
-2.0225e-07
-3.61874e-08
-1.86852e-07
-3.67727e-08
-1.71328e-07
-3.7064e-08
-1.55801e-07
-3.70522e-08
-1.40399e-07
-3.67305e-08
-1.25251e-07
-3.60954e-08
-1.10483e-07
-3.51465e-08
-9.62237e-08
-3.38866e-08
-8.25958e-08
-3.23225e-08
-6.97181e-08
-3.04649e-08
-5.77026e-08
-2.83289e-08
-4.66526e-08
-2.59345e-08
-3.66601e-08
-2.33076e-08
-2.78033e-08
-2.04804e-08
-2.01431e-08
-1.74935e-08
-1.37197e-08
-1.43974e-08
-8.54735e-09
-1.12557e-08
-4.60927e-09
-8.14898e-09
-1.85039e-09
-5.18046e-09
-1.69526e-10
-2.48348e-09
5.9025e-10
-2.31273e-10
6.51731e-10
1.35301e-09
3.16343e-10
1.98486e-09
1.28232e-09
-1.11163e-10
-8.89846e-10
-8.94897e-10
-1.21652e-10
-2.67352e-09
2.3232e-09
-5.66935e-09
5.8419e-09
-1.00257e-08
1.00111e-08
-1.58194e-08
1.45136e-08
-2.30728e-08
1.91152e-08
-3.17643e-08
2.36469e-08
-4.18388e-08
2.79886e-08
-5.32155e-08
3.20572e-08
-6.57953e-08
3.57964e-08
-7.94661e-08
3.91705e-08
-9.41072e-08
4.21586e-08
-1.09593e-07
4.47508e-08
-1.25797e-07
4.6945e-08
-1.42589e-07
4.87448e-08
-1.59844e-07
5.01576e-08
-1.77436e-07
5.11934e-08
-1.95244e-07
5.18639e-08
-2.13149e-07
5.21815e-08
-2.31037e-07
5.21591e-08
-2.48796e-07
5.18093e-08
-2.6632e-07
5.11448e-08
-2.83505e-07
5.01776e-08
-3.00251e-07
4.89194e-08
-3.16463e-07
4.73813e-08
-3.32049e-07
4.55743e-08
-3.4692e-07
4.3509e-08
-3.60992e-07
4.11959e-08
-3.74183e-07
3.86455e-08
-3.86417e-07
3.58689e-08
-3.9762e-07
3.28772e-08
-4.07724e-07
2.96825e-08
-4.16664e-07
2.62976e-08
-4.24382e-07
2.27364e-08
-4.30824e-07
1.9014e-08
-4.35941e-07
1.51467e-08
-4.39691e-07
1.11524e-08
-4.4204e-07
7.0505e-09
-4.4296e-07
2.86201e-09
-4.4243e-07
-1.39042e-09
-4.40438e-07
-5.68248e-09
-4.36982e-07
-9.98831e-09
-4.32068e-07
-1.42805e-08
-4.25712e-07
-1.85303e-08
-4.17938e-07
-2.27077e-08
-4.08785e-07
-2.67818e-08
-3.98297e-07
-3.07206e-08
-3.86533e-07
-3.4492e-08
-3.73561e-07
-3.80634e-08
-3.59459e-07
-4.14024e-08
-3.44317e-07
-4.44772e-08
-3.28234e-07
-4.72568e-08
-3.11319e-07
-4.97115e-08
-2.9369e-07
-5.18133e-08
-2.75474e-07
-5.35361e-08
-2.56805e-07
-5.48567e-08
-2.37823e-07
-5.57544e-08
-2.18675e-07
-5.62121e-08
-1.99511e-07
-5.62163e-08
-1.80484e-07
-5.57576e-08
-1.61748e-07
-5.48311e-08
-1.43458e-07
-5.34366e-08
-1.25765e-07
-5.15793e-08
-1.08818e-07
-4.92699e-08
-9.27571e-08
-4.65253e-08
-7.77171e-08
-4.33689e-08
-6.38197e-08
-3.98319e-08
-5.11738e-08
-3.59535e-08
-3.98711e-08
-3.17831e-08
-2.99833e-08
-2.73814e-08
-2.15573e-08
-2.28234e-08
-1.46111e-08
-1.82019e-08
-9.1282e-09
-1.36319e-08
-5.05164e-09
-9.25703e-09
-2.27714e-09
-5.25799e-09
-6.45684e-10
-1.86273e-09
6.4655e-11
6.42683e-10
1.49011e-10
1.90051e-09
1.43133e-09
-3.76922e-10
-5.12891e-10
-1.82418e-09
1.32559e-09
-4.58619e-09
5.08524e-09
-8.83697e-09
1.00927e-08
-1.46875e-08
1.58616e-08
-2.21927e-08
2.20188e-08
-3.13588e-08
2.82813e-08
-4.21516e-08
3.44397e-08
-5.45044e-08
4.03414e-08
-6.83248e-08
4.58776e-08
-8.35012e-08
5.09728e-08
-9.99079e-08
5.55772e-08
-1.1741e-07
5.96605e-08
-1.35866e-07
6.32066e-08
-1.55131e-07
6.62102e-08
-1.7506e-07
6.86739e-08
-1.95508e-07
7.06057e-08
-2.16332e-07
7.20175e-08
-2.37392e-07
7.29238e-08
-2.58551e-07
7.33403e-08
-2.79675e-07
7.32836e-08
-3.00637e-07
7.27706e-08
-3.2131e-07
7.18179e-08
-3.41574e-07
7.04419e-08
-3.61313e-07
6.86584e-08
-3.80415e-07
6.64829e-08
-3.98771e-07
6.39305e-08
-4.16278e-07
6.10161e-08
-4.32837e-07
5.77547e-08
-4.48353e-07
5.41613e-08
-4.62735e-07
5.02514e-08
-4.75899e-07
4.60412e-08
-4.87764e-07
4.15479e-08
-4.98257e-07
3.67898e-08
-5.07307e-07
3.17867e-08
-5.14853e-07
2.656e-08
-5.20839e-07
2.1133e-08
-5.25217e-07
1.55308e-08
-5.27948e-07
9.78099e-09
-5.28999e-07
3.91293e-09
-5.28348e-07
-2.0416e-09
-5.25982e-07
-8.04864e-09
-5.21898e-07
-1.40721e-08
-5.16104e-07
-2.00739e-08
-5.08621e-07
-2.6014e-08
-4.99478e-07
-3.18509e-08
-4.88718e-07
-3.75416e-08
-4.76396e-07
-4.30423e-08
-4.6258e-07
-4.83083e-08
-4.47348e-07
-5.32949e-08
-4.30793e-07
-5.79575e-08
-4.13018e-07
-6.22523e-08
-3.94138e-07
-6.61366e-08
-3.7428e-07
-6.95698e-08
-3.5358e-07
-7.25133e-08
-3.32184e-07
-7.49318e-08
-3.10248e-07
-7.67932e-08
-2.87933e-07
-7.80696e-08
-2.65407e-07
-7.87376e-08
-2.42844e-07
-7.87792e-08
-2.2042e-07
-7.81818e-08
-1.98312e-07
-7.69392e-08
-1.76696e-07
-7.50519e-08
-1.55748e-07
-7.25277e-08
-1.35636e-07
-6.93821e-08
-1.16522e-07
-6.56394e-08
-9.8558e-08
-6.13328e-08
-8.18838e-08
-5.6506e-08
-6.66232e-08
-5.12142e-08
-5.28807e-08
-4.55256e-08
-4.07384e-08
-3.95237e-08
-3.02515e-08
-3.33102e-08
-2.14443e-08
-2.70091e-08
-1.43051e-08
-2.07711e-08
-8.78121e-09
-1.47809e-08
-4.77382e-09
-9.26538e-09
-2.13244e-09
-4.5041e-09
-6.49465e-10
-8.40293e-10
-5.39462e-11
1.305e-09
1.3774e-09
-6.51246e-10
1.38368e-10
-2.79878e-09
3.47313e-09
-6.60321e-09
8.88963e-09
-1.21803e-08
1.56697e-08
-1.95991e-08
2.32804e-08
-2.88839e-08
3.13036e-08
-4.00183e-08
3.94156e-08
-5.29501e-08
4.73715e-08
-6.75977e-08
5.49889e-08
-8.3855e-08
6.21348e-08
-1.01597e-07
6.87151e-08
-1.20686e-07
7.46659e-08
-1.40972e-07
7.99466e-08
-1.623e-07
8.45347e-08
-1.84511e-07
8.84211e-08
-2.07444e-07
9.16068e-08
-2.30938e-07
9.41e-08
-2.54835e-07
9.59143e-08
-2.78978e-07
9.70666e-08
-3.03214e-07
9.7576e-08
-3.27393e-07
9.74629e-08
-3.5137e-07
9.67483e-08
-3.75006e-07
9.54532e-08
-3.98162e-07
9.35986e-08
-4.20709e-07
9.12049e-08
-4.42518e-07
8.82922e-08
-4.63468e-07
8.48805e-08
-4.83442e-07
8.09895e-08
-5.02326e-07
7.66389e-08
-5.20014e-07
7.18491e-08
-5.36403e-07
6.66408e-08
-5.51398e-07
6.10359e-08
-5.64907e-07
5.50575e-08
-5.76848e-07
4.87302e-08
-5.87142e-07
4.20808e-08
-5.9572e-07
3.51377e-08
-6.02519e-07
2.79323e-08
-6.07486e-07
2.04981e-08
-6.10577e-07
1.28716e-08
-6.11756e-07
5.09184e-09
-6.10998e-07
-2.79899e-09
-6.08291e-07
-1.07561e-08
-6.03631e-07
-1.87318e-08
-5.97029e-07
-2.66761e-08
-5.88506e-07
-3.45364e-08
-5.78099e-07
-4.22582e-08
-5.65855e-07
-4.97853e-08
-5.51837e-07
-5.70601e-08
-5.36121e-07
-6.40245e-08
-5.18796e-07
-7.06198e-08
-4.99966e-07
-7.67881e-08
-4.79746e-07
-8.24722e-08
-4.58266e-07
-8.76166e-08
-4.35667e-07
-9.21683e-08
-4.12103e-07
-9.60774e-08
-3.87737e-07
-9.92979e-08
-3.62742e-07
-1.01788e-07
-3.373e-07
-1.03512e-07
-3.11598e-07
-1.0444e-07
-2.85829e-07
-1.04548e-07
-2.60191e-07
-1.0382e-07
-2.3488e-07
-1.0225e-07
-2.10094e-07
-9.98377e-08
-1.86027e-07
-9.65946e-08
-1.62867e-07
-9.25417e-08
-1.40795e-07
-8.77113e-08
-1.1998e-07
-8.21478e-08
-1.00578e-07
-7.59088e-08
-8.27254e-08
-6.90665e-08
-6.65411e-08
-6.17098e-08
-5.21182e-08
-5.39466e-08
-3.9522e-08
-4.59064e-08
-2.87858e-08
-3.77453e-08
-1.99069e-08
-2.965e-08
-1.28425e-08
-2.18453e-08
-7.506e-09
-1.46019e-08
-3.76349e-09
-8.24661e-09
-1.43109e-09
-3.17269e-09
-2.73021e-10
1.46946e-10
1.10438e-09
-9.24636e-10
1.06301e-09
-3.78455e-09
6.33302e-09
-8.65789e-09
1.37629e-08
-1.55981e-08
2.26099e-08
-2.46267e-08
3.2309e-08
-3.57315e-08
4.24085e-08
-4.88679e-08
5.2552e-08
-6.39615e-08
6.24651e-08
-8.09122e-08
7.19396e-08
-9.95982e-08
8.08208e-08
-1.19881e-07
8.89974e-08
-1.41607e-07
9.63921e-08
-1.64615e-07
1.02955e-07
-1.88736e-07
1.08656e-07
-2.13798e-07
1.13483e-07
-2.39625e-07
1.17434e-07
-2.66044e-07
1.20519e-07
-2.92881e-07
1.22751e-07
-3.19965e-07
1.24151e-07
-3.47129e-07
1.2474e-07
-3.74209e-07
1.24543e-07
-4.01046e-07
1.23585e-07
-4.27485e-07
1.21892e-07
-4.53375e-07
1.19489e-07
-4.78572e-07
1.16402e-07
-5.02935e-07
1.12656e-07
-5.2633e-07
1.08275e-07
-5.48626e-07
1.03286e-07
-5.69699e-07
9.77124e-08
-5.89432e-07
9.15813e-08
-6.0771e-07
8.49192e-08
-6.24428e-07
7.77541e-08
-6.39486e-07
7.01157e-08
-6.52792e-07
6.2036e-08
-6.6426e-07
5.35491e-08
-6.73814e-07
4.46917e-08
-6.81386e-07
3.55039e-08
-6.86916e-07
2.60285e-08
-6.90357e-07
1.63121e-08
-6.9167e-07
6.40452e-09
-6.90828e-07
-3.64087e-09
-6.87817e-07
-1.37672e-08
-6.82634e-07
-2.39142e-08
-6.75292e-07
-3.40185e-08
-6.65815e-07
-4.40139e-08
-6.54241e-07
-5.38317e-08
-6.40625e-07
-6.3401e-08
-6.25036e-07
-7.26497e-08
-6.07556e-07
-8.15045e-08
-5.88284e-07
-8.9892e-08
-5.67332e-07
-9.77393e-08
-5.4483e-07
-1.04975e-07
-5.20917e-07
-1.11529e-07
-4.9575e-07
-1.17335e-07
-4.69496e-07
-1.22332e-07
-4.42333e-07
-1.2646e-07
-4.14452e-07
-1.29669e-07
-3.8605e-07
-1.31914e-07
-3.57334e-07
-1.33156e-07
-3.28514e-07
-1.33368e-07
-2.99805e-07
-1.32529e-07
-2.71424e-07
-1.30631e-07
-2.43586e-07
-1.27676e-07
-2.16504e-07
-1.23677e-07
-1.90383e-07
-1.18662e-07
-1.65421e-07
-1.12673e-07
-1.41805e-07
-1.05765e-07
-1.19703e-07
-9.80099e-08
-9.92705e-08
-8.94994e-08
-8.06369e-08
-8.03435e-08
-6.39085e-08
-7.06749e-08
-4.9163e-08
-6.0652e-08
-3.64456e-08
-5.04627e-08
-2.57662e-08
-4.03293e-08
-1.70966e-08
-3.05149e-08
-1.03675e-08
-2.1331e-08
-5.46749e-09
-1.31467e-08
-2.24232e-09
-6.39786e-09
-4.96898e-10
-1.59847e-09
6.07481e-10
-1.1923e-09
2.2553e-09
-4.76167e-09
9.9024e-09
-1.07088e-08
1.97101e-08
-1.90244e-08
3.09255e-08
-2.96797e-08
4.29644e-08
-4.26226e-08
5.53513e-08
-5.77763e-08
6.77057e-08
-7.50406e-08
7.97294e-08
-9.42941e-08
9.11931e-08
-1.15397e-07
1.01924e-07
-1.38195e-07
1.11795e-07
-1.6252e-07
1.20718e-07
-1.88198e-07
1.28632e-07
-2.15046e-07
1.35504e-07
-2.42879e-07
1.41316e-07
-2.7151e-07
1.46065e-07
-3.00751e-07
1.4976e-07
-3.30417e-07
1.52417e-07
-3.60324e-07
1.54058e-07
-3.90292e-07
1.54708e-07
-4.20143e-07
1.54395e-07
-4.49707e-07
1.53149e-07
-4.78816e-07
1.51e-07
-5.07306e-07
1.47979e-07
-5.35021e-07
1.44117e-07
-5.61809e-07
1.39443e-07
-5.87523e-07
1.33989e-07
-6.12022e-07
1.27785e-07
-6.35172e-07
1.20862e-07
-6.56844e-07
1.13253e-07
-6.76915e-07
1.0499e-07
-6.9527e-07
9.61091e-08
-7.11801e-07
8.66468e-08
-7.26407e-07
7.66426e-08
-7.38998e-07
6.61392e-08
-7.49488e-07
5.51823e-08
-7.57805e-07
4.38211e-08
-7.63886e-07
3.2109e-08
-7.67677e-07
2.01033e-08
-7.69138e-07
7.86537e-09
-7.6824e-07
-4.53902e-09
-7.64967e-07
-1.704e-08
-7.59317e-07
-2.95638e-08
-7.51303e-07
-4.20328e-08
-7.40951e-07
-5.43658e-08
-7.28304e-07
-6.6479e-08
-7.13419e-07
-7.82858e-08
-6.9637e-07
-8.96982e-08
-6.77248e-07
-1.00627e-07
-6.56158e-07
-1.10982e-07
-6.33221e-07
-1.20676e-07
-6.08576e-07
-1.2962e-07
-5.82375e-07
-1.3773e-07
-5.54785e-07
-1.44926e-07
-5.25986e-07
-1.51131e-07
-4.9617e-07
-1.56276e-07
-4.65543e-07
-1.60297e-07
-4.34318e-07
-1.63139e-07
-4.02716e-07
-1.64758e-07
-3.70965e-07
-1.65119e-07
-3.39297e-07
-1.64197e-07
-3.07946e-07
-1.61982e-07
-2.77144e-07
-1.58478e-07
-2.47121e-07
-1.537e-07
-2.18099e-07
-1.47684e-07
-1.90294e-07
-1.40479e-07
-1.63906e-07
-1.32153e-07
-1.39122e-07
-1.22794e-07
-1.16109e-07
-1.12512e-07
-9.50145e-08
-1.01438e-07
-7.59571e-08
-8.97323e-08
-5.9029e-08
-7.75801e-08
-4.42903e-08
-6.52014e-08
-3.1767e-08
-5.28526e-08
-2.14487e-08
-4.08332e-08
-1.32877e-08
-2.9492e-08
-7.1986e-09
-1.92358e-08
-3.06011e-09
-1.05364e-08
-7.19271e-10
-3.9393e-09
-1.11794e-10
-1.45191e-09
3.70721e-09
-5.71908e-09
1.41696e-08
-1.27308e-08
2.67218e-08
-2.2417e-08
4.06117e-08
-3.46982e-08
5.52455e-08
-4.948e-08
7.01331e-08
-6.66511e-08
8.48769e-08
-8.6083e-08
9.91613e-08
-1.07631e-07
1.12741e-07
-1.31134e-07
1.25427e-07
-1.56421e-07
1.37082e-07
-1.8331e-07
1.47606e-07
-2.11611e-07
1.56933e-07
-2.41129e-07
1.65022e-07
-2.71667e-07
1.71853e-07
-3.03024e-07
1.77423e-07
-3.35003e-07
1.81739e-07
-3.67405e-07
1.84819e-07
-4.00035e-07
1.86688e-07
-4.32701e-07
1.87374e-07
-4.65216e-07
1.8691e-07
-4.97396e-07
1.85329e-07
-5.29062e-07
1.82666e-07
-5.6004e-07
1.78958e-07
-5.90163e-07
1.7424e-07
-6.19268e-07
1.68548e-07
-6.47198e-07
1.61919e-07
-6.73802e-07
1.54389e-07
-6.98936e-07
1.45996e-07
-7.22461e-07
1.36779e-07
-7.44248e-07
1.26777e-07
-7.64172e-07
1.16033e-07
-7.82118e-07
1.04592e-07
-7.97978e-07
9.25024e-08
-8.11653e-07
7.98145e-08
-8.23055e-07
6.6584e-08
-8.32104e-07
5.28704e-08
-8.38733e-07
3.8738e-08
-8.42885e-07
2.42556e-08
-8.44517e-07
9.497e-09
-8.43597e-07
-5.4589e-09
-8.40109e-07
-2.05285e-08
-8.34049e-07
-3.56233e-08
-8.25431e-07
-5.06507e-08
-8.14283e-07
-6.55138e-08
-8.0065e-07
-8.01125e-08
-7.84592e-07
-9.43436e-08
-7.66188e-07
-1.08102e-07
-7.45533e-07
-1.21281e-07
-7.2274e-07
-1.33775e-07
-6.97938e-07
-1.45478e-07
-6.71272e-07
-1.56285e-07
-6.42905e-07
-1.66097e-07
-6.13014e-07
-1.74817e-07
-5.81792e-07
-1.82354e-07
-5.49442e-07
-1.88625e-07
-5.16183e-07
-1.93556e-07
-4.82242e-07
-1.9708e-07
-4.47855e-07
-1.99145e-07
-4.13267e-07
-1.99707e-07
-3.78723e-07
-1.9874e-07
-3.44475e-07
-1.9623e-07
-3.10771e-07
-1.92181e-07
-2.77858e-07
-1.86614e-07
-2.45974e-07
-1.79568e-07
-2.15351e-07
-1.71102e-07
-1.86206e-07
-1.61297e-07
-1.58742e-07
-1.50257e-07
-1.33144e-07
-1.3811e-07
-1.09571e-07
-1.25011e-07
-8.81615e-08
-1.11142e-07
-6.90223e-08
-9.67193e-08
-5.22311e-08
-8.19925e-08
-3.78327e-08
-6.7251e-08
-2.58376e-08
-5.28283e-08
-1.6222e-08
-3.91075e-08
-8.92897e-09
-2.65288e-08
-3.87122e-09
-1.55941e-08
-9.3693e-10
-6.87357e-09
-1.04872e-09
-1.70258e-09
5.40979e-09
-6.6511e-09
1.91181e-08
-1.47096e-08
3.47803e-08
-2.57502e-08
5.16524e-08
-3.96433e-08
6.91386e-08
-5.6252e-08
8.67417e-08
-7.54289e-08
1.04054e-07
-9.70152e-08
1.20748e-07
-1.2084e-07
1.36566e-07
-1.46723e-07
1.5131e-07
-1.74472e-07
1.64831e-07
-2.0389e-07
1.77024e-07
-2.34772e-07
1.87815e-07
-2.66909e-07
1.9716e-07
-3.00093e-07
2.05037e-07
-3.34112e-07
2.11441e-07
-3.68755e-07
2.16382e-07
-4.03814e-07
2.19878e-07
-4.39083e-07
2.21957e-07
-4.7436e-07
2.22651e-07
-5.09447e-07
2.21996e-07
-5.44149e-07
2.20031e-07
-5.78279e-07
2.16796e-07
-6.11652e-07
2.12331e-07
-6.44091e-07
2.06679e-07
-6.75424e-07
1.99881e-07
-7.05485e-07
1.9198e-07
-7.34114e-07
1.83018e-07
-7.61158e-07
1.7304e-07
-7.86471e-07
1.62092e-07
-8.09915e-07
1.5022e-07
-8.31357e-07
1.37475e-07
-8.50675e-07
1.23911e-07
-8.67756e-07
1.09583e-07
-8.82494e-07
9.45525e-08
-8.94794e-07
7.88848e-08
-9.04574e-07
6.26504e-08
-9.11761e-07
4.59246e-08
-9.16294e-07
2.87888e-08
-9.18127e-07
1.13298e-08
-9.17226e-07
-6.35976e-09
-9.13573e-07
-2.41818e-08
-9.07164e-07
-4.20325e-08
-8.98011e-07
-5.98033e-08
-8.86144e-07
-7.73808e-08
-8.71609e-07
-9.46476e-08
-8.54469e-07
-1.11483e-07
-8.34807e-07
-1.27765e-07
-8.1272e-07
-1.43368e-07
-7.88328e-07
-1.58168e-07
-7.61766e-07
-1.7204e-07
-7.33186e-07
-1.84865e-07
-7.02759e-07
-1.96524e-07
-6.70672e-07
-2.06904e-07
-6.37126e-07
-2.15899e-07
-6.02339e-07
-2.23413e-07
-5.66539e-07
-2.29356e-07
-5.29968e-07
-2.33652e-07
-4.92874e-07
-2.36238e-07
-4.55517e-07
-2.37065e-07
-4.18158e-07
-2.36099e-07
-3.81064e-07
-2.33325e-07
-3.44498e-07
-2.28747e-07
-3.08724e-07
-2.22388e-07
-2.73998e-07
-2.14294e-07
-2.40567e-07
-2.04533e-07
-2.08667e-07
-1.93198e-07
-1.78516e-07
-1.80408e-07
-1.50317e-07
-1.6631e-07
-1.24246e-07
-1.51081e-07
-1.0046e-07
-1.34929e-07
-7.90834e-08
-1.18096e-07
-6.02141e-08
-1.00862e-07
-4.39174e-08
-8.35477e-08
-3.0227e-08
-6.65187e-08
-1.91449e-08
-5.01897e-08
-1.06434e-08
-3.50303e-08
-4.66898e-09
-2.15685e-08
-1.14853e-09
-1.0394e-08
-2.19724e-09
-1.94417e-09
7.35395e-09
-7.55518e-09
2.47291e-08
-1.66376e-08
4.38627e-08
-2.90091e-08
6.40238e-08
-4.44914e-08
8.4621e-08
-6.29055e-08
1.05156e-07
-8.40674e-08
1.25216e-07
-1.07787e-07
1.44467e-07
-1.33867e-07
1.62646e-07
-1.62103e-07
1.79546e-07
-1.92284e-07
1.95013e-07
-2.24196e-07
2.08935e-07
-2.57618e-07
2.21237e-07
-2.9233e-07
2.31872e-07
-3.28108e-07
2.40815e-07
-3.6473e-07
2.48063e-07
-4.01974e-07
2.53627e-07
-4.39623e-07
2.57527e-07
-4.7746e-07
2.59794e-07
-5.15273e-07
2.60464e-07
-5.52854e-07
2.59578e-07
-5.90002e-07
2.57178e-07
-6.26517e-07
2.53311e-07
-6.62208e-07
2.48022e-07
-6.96888e-07
2.41359e-07
-7.30377e-07
2.3337e-07
-7.62501e-07
2.24103e-07
-7.93092e-07
2.13609e-07
-8.21989e-07
2.01937e-07
-8.49038e-07
1.89141e-07
-8.74093e-07
1.75276e-07
-8.97018e-07
1.604e-07
-9.17681e-07
1.44574e-07
-9.35963e-07
1.27865e-07
-9.51755e-07
1.10344e-07
-9.64955e-07
9.20848e-08
-9.75475e-07
7.31704e-08
-9.83238e-07
5.36881e-08
-9.88181e-07
3.37318e-08
-9.90253e-07
1.34019e-08
-9.89418e-07
-7.19472e-09
-9.85655e-07
-2.79446e-08
-9.7896e-07
-4.87281e-08
-9.69343e-07
-6.942e-08
-9.56834e-07
-8.98896e-08
-9.4148e-07
-1.10002e-07
-9.23346e-07
-1.29618e-07
-9.02515e-07
-1.48596e-07
-8.79091e-07
-1.66792e-07
-8.53194e-07
-1.84064e-07
-8.24967e-07
-2.00268e-07
-7.94567e-07
-2.15265e-07
-7.62173e-07
-2.28918e-07
-7.27978e-07
-2.41098e-07
-6.92195e-07
-2.51683e-07
-6.55049e-07
-2.60558e-07
-6.16782e-07
-2.67623e-07
-5.77645e-07
-2.72788e-07
-5.37903e-07
-2.7598e-07
-4.97826e-07
-2.77141e-07
-4.57693e-07
-2.76233e-07
-4.17782e-07
-2.73235e-07
-3.78377e-07
-2.68152e-07
-3.39756e-07
-2.6101e-07
-3.02191e-07
-2.51858e-07
-2.65949e-07
-2.40775e-07
-2.31282e-07
-2.27865e-07
-1.98427e-07
-2.13262e-07
-1.67605e-07
-1.97133e-07
-1.39012e-07
-1.79674e-07
-1.12822e-07
-1.61118e-07
-8.91829e-08
-1.41735e-07
-6.82121e-08
-1.21833e-07
-4.99982e-08
-1.01762e-07
-3.45994e-08
-8.19175e-08
-2.20446e-08
-6.27445e-08
-1.23355e-08
-4.47394e-08
-5.45109e-09
-2.84529e-08
-1.35388e-09
-1.44912e-08
-3.55112e-09
-2.17696e-09
9.53093e-09
-8.43071e-09
3.09829e-08
-1.85114e-08
5.39434e-08
-3.21857e-08
7.76981e-08
-4.92289e-08
1.01664e-07
-6.94203e-08
1.25347e-07
-9.25396e-08
1.48335e-07
-1.18365e-07
1.70292e-07
-1.46671e-07
1.90952e-07
-1.77231e-07
2.10105e-07
-2.09812e-07
2.27594e-07
-2.44182e-07
2.43306e-07
-2.80106e-07
2.57161e-07
-3.17348e-07
2.69113e-07
-3.55673e-07
2.7914e-07
-3.94846e-07
2.87237e-07
-4.34637e-07
2.93418e-07
-4.74817e-07
2.97706e-07
-5.1516e-07
3.00137e-07
-5.55445e-07
3.00749e-07
-5.95457e-07
2.99589e-07
-6.34984e-07
2.96705e-07
-6.7382e-07
2.92147e-07
-7.11766e-07
2.85968e-07
-7.48626e-07
2.7822e-07
-7.84213e-07
2.68957e-07
-8.18346e-07
2.58236e-07
-8.50849e-07
2.46112e-07
-8.81554e-07
2.32643e-07
-9.10302e-07
2.17889e-07
-9.3694e-07
2.01914e-07
-9.61324e-07
1.84783e-07
-9.83318e-07
1.66568e-07
-1.0028e-06
1.47343e-07
-1.01964e-06
1.2719e-07
-1.03375e-06
1.06195e-07
-1.04503e-06
8.44503e-08
-1.0534e-06
6.20568e-08
-1.05879e-06
3.91213e-08
-1.06115e-06
1.57581e-08
-1.06043e-06
-7.91084e-09
-1.05662e-06
-3.17566e-08
-1.0497e-06
-5.56432e-08
-1.0397e-06
-7.9428e-08
-1.02662e-06
-1.02963e-07
-1.01053e-06
-1.26093e-07
-9.91487e-07
-1.48662e-07
-9.69576e-07
-1.70507e-07
-9.44902e-07
-1.91466e-07
-9.1759e-07
-2.11376e-07
-8.87784e-07
-2.30074e-07
-8.55649e-07
-2.474e-07
-8.21369e-07
-2.63199e-07
-7.85144e-07
-2.77323e-07
-7.47194e-07
-2.89632e-07
-7.07755e-07
-2.99997e-07
-6.67078e-07
-3.083e-07
-6.25427e-07
-3.14439e-07
-5.83078e-07
-3.1833e-07
-5.40315e-07
-3.19904e-07
-4.9743e-07
-3.19117e-07
-4.54719e-07
-3.15946e-07
-4.12481e-07
-3.10391e-07
-3.7101e-07
-3.0248e-07
-3.30598e-07
-2.9227e-07
-2.91529e-07
-2.79845e-07
-2.54073e-07
-2.65321e-07
-2.18488e-07
-2.48847e-07
-1.85013e-07
-2.30608e-07
-1.53867e-07
-2.1082e-07
-1.25244e-07
-1.89741e-07
-9.93146e-08
-1.67665e-07
-7.62188e-08
-1.44928e-07
-5.60697e-08
-1.21911e-07
-3.89511e-08
-9.90361e-08
-2.49193e-08
-7.67764e-08
-1.4005e-08
-5.56537e-08
-6.21817e-09
-3.62397e-08
-1.5535e-09
-1.91559e-08
-5.10464e-09
-2.4014e-09
1.19323e-08
-9.27818e-09
3.78597e-08
-2.03304e-08
6.49956e-08
-3.5277e-08
9.26447e-08
-5.3849e-08
1.20236e-07
-7.57852e-08
1.47283e-07
-1.0083e-07
1.73379e-07
-1.28728e-07
1.98191e-07
-1.59228e-07
2.21452e-07
-1.92078e-07
2.42955e-07
-2.27025e-07
2.62541e-07
-2.63817e-07
2.80098e-07
-3.02203e-07
2.95547e-07
-3.41933e-07
3.08844e-07
-3.8276e-07
3.19967e-07
-4.24439e-07
3.28915e-07
-4.66726e-07
3.35705e-07
-5.09385e-07
3.40365e-07
-5.5218e-07
3.42932e-07
-5.94884e-07
3.43453e-07
-6.37271e-07
3.41976e-07
-6.79122e-07
3.38557e-07
-7.20225e-07
3.3325e-07
-7.60373e-07
3.26115e-07
-7.99364e-07
3.1721e-07
-8.37003e-07
3.06597e-07
-8.73102e-07
2.94336e-07
-9.07481e-07
2.8049e-07
-9.39964e-07
2.65126e-07
-9.70386e-07
2.48311e-07
-9.98588e-07
2.30115e-07
-1.02442e-06
2.10615e-07
-1.04774e-06
1.89889e-07
-1.06842e-06
1.68021e-07
-1.08633e-06
1.45105e-07
-1.10137e-06
1.21235e-07
-1.11344e-06
9.65189e-08
-1.12245e-06
7.10676e-08
-1.12833e-06
4.50019e-08
-1.13103e-06
1.84507e-08
-1.13049e-06
-8.44924e-09
-1.12669e-06
-3.55528e-08
-1.11963e-06
-6.2707e-08
-1.1093e-06
-8.97517e-08
-1.09575e-06
-1.1652e-07
-1.079e-06
-1.42839e-07
-1.05913e-06
-1.6853e-07
-1.03623e-06
-1.93414e-07
-1.01039e-06
-2.17305e-07
-9.81743e-07
-2.4002e-07
-9.50441e-07
-2.61375e-07
-9.16649e-07
-2.81191e-07
-8.80556e-07
-2.99293e-07
-8.42368e-07
-3.15511e-07
-8.02314e-07
-3.29687e-07
-7.60636e-07
-3.41675e-07
-7.17595e-07
-3.51341e-07
-6.73467e-07
-3.58568e-07
-6.28539e-07
-3.63258e-07
-5.83109e-07
-3.65334e-07
-5.37484e-07
-3.64742e-07
-4.91975e-07
-3.61454e-07
-4.46897e-07
-3.55469e-07
-4.02563e-07
-3.46815e-07
-3.59282e-07
-3.3555e-07
-3.17358e-07
-3.21769e-07
-2.77081e-07
-3.05597e-07
-2.38731e-07
-2.87198e-07
-2.02568e-07
-2.66771e-07
-1.68832e-07
-2.44556e-07
-1.37742e-07
-2.20831e-07
-1.09491e-07
-1.95916e-07
-8.4244e-08
-1.70175e-07
-6.21397e-08
-1.44015e-07
-4.32886e-08
-1.17887e-07
-2.77743e-08
-9.22907e-08
-1.56561e-08
-6.77719e-08
-6.97279e-09
-4.4923e-08
-1.74841e-09
-2.43803e-08
-6.85304e-09
-2.61803e-09
1.45503e-08
-1.00986e-08
4.53402e-08
-2.20955e-08
7.69925e-08
-3.82828e-08
1.08832e-07
-5.83492e-08
1.40303e-07
-8.19948e-08
1.70929e-07
-1.08928e-07
2.00313e-07
-1.38864e-07
2.28127e-07
-1.71523e-07
2.5411e-07
-2.06626e-07
2.78058e-07
-2.43901e-07
2.99816e-07
-2.83076e-07
3.19273e-07
-3.23886e-07
3.36356e-07
-3.66064e-07
3.51022e-07
-4.09351e-07
3.63254e-07
-4.5349e-07
3.73054e-07
-4.98228e-07
3.80444e-07
-5.43319e-07
3.85456e-07
-5.8852e-07
3.88133e-07
-6.33593e-07
3.88526e-07
-6.78308e-07
3.86691e-07
-7.22437e-07
3.82686e-07
-7.65762e-07
3.76575e-07
-8.08069e-07
3.68422e-07
-8.49151e-07
3.58292e-07
-8.88806e-07
3.46252e-07
-9.26841e-07
3.3237e-07
-9.63068e-07
3.16718e-07
-9.97308e-07
2.99366e-07
-1.02939e-06
2.80392e-07
-1.05915e-06
2.59873e-07
-1.08643e-06
2.37894e-07
-1.11108e-06
2.14542e-07
-1.13297e-06
1.89914e-07
-1.15198e-06
1.64109e-07
-1.16798e-06
1.37236e-07
-1.18087e-06
1.09413e-07
-1.19057e-06
8.07652e-08
-1.19699e-06
5.14257e-08
-1.20008e-06
2.15381e-08
-1.19978e-06
-8.74512e-09
-1.19607e-06
-3.92627e-08
-1.18894e-06
-6.98445e-08
-1.17838e-06
-1.00312e-07
-1.16442e-06
-1.3048e-07
-1.1471e-06
-1.60155e-07
-1.12649e-06
-1.89139e-07
-1.10268e-06
-2.1723e-07
-1.07576e-06