/*--------------------------------*- C++ -*----------------------------------*\
  =========                 |
  \\      /  F ield         | OpenFOAM: The Open Source CFD Toolbox
   \\    /   O peration     | Website:  https://openfoam.org
    \\  /    A nd           | Version:  7
     \\/     M anipulation  |
\*---------------------------------------------------------------------------*/
FoamFile
{
    version     2.0;
    format      ascii;
    class       volVectorField;
    location    "1.6";
    object      U;
}
// * * * * * * * * * * * * * * * * * * * * * * * * * * * * * * * * * * * * * //

dimensions      [0 1 -1 0 0 0 0];

internalField   nonuniform List<vector> 
6400
(
(8.74363e-06 -8.67471e-06 0)
(3.41993e-05 -1.60517e-05 0)
(6.49393e-05 -1.4736e-05 0)
(8.40265e-05 -8.96484e-06 0)
(8.29786e-05 -1.44027e-06 0)
(5.90332e-05 6.49357e-06 0)
(1.18079e-05 1.41652e-05 0)
(-5.78475e-05 2.1268e-05 0)
(-0.000148395 2.76707e-05 0)
(-0.000257942 3.33351e-05 0)
(-0.000384456 3.82719e-05 0)
(-0.000525885 4.25165e-05 0)
(-0.000680229 4.61166e-05 0)
(-0.000845581 4.91244e-05 0)
(-0.00102015 5.15921e-05 0)
(-0.00120227 5.35697e-05 0)
(-0.0013904 5.51033e-05 0)
(-0.0015831 5.62335e-05 0)
(-0.00177904 5.69945e-05 0)
(-0.001977 5.74154e-05 0)
(-0.0021758 5.75189e-05 0)
(-0.00237435 5.73218e-05 0)
(-0.00257159 5.6836e-05 0)
(-0.00276649 5.60685e-05 0)
(-0.00295803 5.50225e-05 0)
(-0.00314523 5.36975e-05 0)
(-0.00332709 5.20905e-05 0)
(-0.00350259 5.01969e-05 0)
(-0.00367073 4.80109e-05 0)
(-0.00383048 4.55267e-05 0)
(-0.00398082 4.27392e-05 0)
(-0.00412071 3.96445e-05 0)
(-0.00424912 3.62411e-05 0)
(-0.00436502 3.253e-05 0)
(-0.0044674 2.85156e-05 0)
(-0.0045553 2.42064e-05 0)
(-0.00462778 1.96152e-05 0)
(-0.00468397 1.47595e-05 0)
(-0.00472307 9.66202e-06 0)
(-0.00474438 4.35075e-06 0)
(-0.0047473 -1.14088e-06 0)
(-0.00473134 -6.77418e-06 0)
(-0.00469617 -1.25053e-05 0)
(-0.00464161 -1.82852e-05 0)
(-0.00456765 -2.40606e-05 0)
(-0.00447444 -2.97742e-05 0)
(-0.00436235 -3.53654e-05 0)
(-0.00423194 -4.07712e-05 0)
(-0.00408396 -4.5927e-05 0)
(-0.00391939 -5.07678e-05 0)
(-0.00373939 -5.5229e-05 0)
(-0.00354536 -5.9248e-05 0)
(-0.00333885 -6.27651e-05 0)
(-0.00312162 -6.57247e-05 0)
(-0.00289559 -6.80767e-05 0)
(-0.00266281 -6.97774e-05 0)
(-0.00242548 -7.07905e-05 0)
(-0.00218587 -7.10885e-05 0)
(-0.00194636 -7.06527e-05 0)
(-0.00170933 -6.9474e-05 0)
(-0.00147718 -6.75537e-05 0)
(-0.0012523 -6.49035e-05 0)
(-0.00103701 -6.15452e-05 0)
(-0.000833541 -5.75109e-05 0)
(-0.000643991 -5.28424e-05 0)
(-0.000470307 -4.75913e-05 0)
(-0.000314242 -4.18185e-05 0)
(-0.000177322 -3.55944e-05 0)
(-6.08138e-05 -2.89994e-05 0)
(3.43147e-05 -2.21264e-05 0)
(0.00010744 -1.50802e-05 0)
(0.000158344 -7.98946e-06 0)
(0.000187289 -1.01605e-06 0)
(0.000195138 5.62196e-06 0)
(0.000183545 1.16106e-05 0)
(0.000155246 1.6467e-05 0)
(0.000114439 1.94356e-05 0)
(6.75271e-05 1.92849e-05 0)
(2.53204e-05 1.41722e-05 0)
(3.56219e-06 3.57662e-06 0)
(1.6152e-05 -3.41458e-05 0)
(5.50519e-05 -5.4808e-05 0)
(8.98246e-05 -4.19618e-05 0)
(9.21541e-05 -1.032e-05 0)
(4.60481e-05 3.04323e-05 0)
(-5.54795e-05 7.44986e-05 0)
(-0.000214644 0.000118469 0)
(-0.000430594 0.000160385 0)
(-0.000700515 0.000199173 0)
(-0.0010204 0.000234293 0)
(-0.00138558 0.000265533 0)
(-0.00179112 0.000292885 0)
(-0.00223201 0.00031646 0)
(-0.00270334 0.000336438 0)
(-0.00320039 0.000353032 0)
(-0.00371864 0.000366471 0)
(-0.00425387 0.000376975 0)
(-0.00480207 0.00038475 0)
(-0.00535948 0.000389981 0)
(-0.00592256 0.000392826 0)
(-0.00648794 0.000393414 0)
(-0.0070524 0.000391845 0)
(-0.00761285 0.000388196 0)
(-0.00816626 0.000382515 0)
(-0.00870968 0.000374833 0)
(-0.00924019 0.00036516 0)
(-0.0097549 0.000353496 0)
(-0.0102509 0.000339829 0)
(-0.0107253 0.000324144 0)
(-0.0111751 0.000306428 0)
(-0.0115976 0.000286671 0)
(-0.0119897 0.000264872 0)
(-0.0123486 0.000241047 0)
(-0.0126715 0.000215226 0)
(-0.0129556 0.000187463 0)
(-0.0131984 0.000157834 0)
(-0.0133972 0.000126443 0)
(-0.0135499 9.34244e-05 0)
(-0.0136543 5.89414e-05 0)
(-0.0137085 2.319e-05 0)
(-0.0137111 -1.36022e-05 0)
(-0.0136609 -5.11761e-05 0)
(-0.0135571 -8.92421e-05 0)
(-0.0133993 -0.000127483 0)
(-0.0131876 -0.000165554 0)
(-0.0129226 -0.000203091 0)
(-0.0126055 -0.000239712 0)
(-0.0122378 -0.000275019 0)
(-0.0118217 -0.000308612 0)
(-0.01136 -0.000340085 0)
(-0.010856 -0.000369042 0)
(-0.0103134 -0.000395097 0)
(-0.00973665 -0.000417887 0)
(-0.00913047 -0.000437073 0)
(-0.00850011 -0.000452351 0)
(-0.00785118 -0.000463458 0)
(-0.00718961 -0.00047018 0)
(-0.00652158 -0.000472351 0)
(-0.00585345 -0.000469865 0)
(-0.00519169 -0.000462677 0)
(-0.00454277 -0.000450803 0)
(-0.00391308 -0.000434326 0)
(-0.00330887 -0.000413396 0)
(-0.00273609 -0.000388228 0)
(-0.00220037 -0.000359103 0)
(-0.00170689 -0.00032637 0)
(-0.00126028 -0.000290441 0)
(-0.000864532 -0.000251801 0)
(-0.000522911 -0.000211006 0)
(-0.000237817 -0.000168699 0)
(-1.06622e-05 -0.000125625 0)
(0.000158285 -8.26664e-05 0)
(0.000270108 -4.0899e-05 0)
(0.000327524 -1.68101e-06 0)
(0.000335258 3.32067e-05 0)
(0.000300552 6.13502e-05 0)
(0.000233641 7.94338e-05 0)
(0.00014845 8.28761e-05 0)
(6.56979e-05 6.58301e-05 0)
(1.4055e-05 2.52357e-05 0)
(1.50445e-05 -6.5241e-05 0)
(4.27141e-05 -8.97559e-05 0)
(4.69988e-05 -4.62652e-05 0)
(-2.72314e-06 3.74276e-05 0)
(-0.000124686 0.000142765 0)
(-0.000327866 0.000257305 0)
(-0.000615595 0.000372958 0)
(-0.000987197 0.000484611 0)
(-0.0014392 0.000589168 0)
(-0.0019663 0.000684861 0)
(-0.00256207 0.000770802 0)
(-0.00321951 0.000846685 0)
(-0.00393134 0.000912574 0)
(-0.0046903 0.00096877 0)
(-0.00548927 0.0010157 0)
(-0.00632138 0.00105388 0)
(-0.00718007 0.0010838 0)
(-0.00805907 0.00110596 0)
(-0.00895246 0.00112083 0)
(-0.00985457 0.00112879 0)
(-0.01076 0.00113018 0)
(-0.0116635 0.00112527 0)
(-0.0125602 0.00111425 0)
(-0.013445 0.00109729 0)
(-0.0143132 0.00107446 0)
(-0.0151601 0.00104581 0)
(-0.0159809 0.00101138 0)
(-0.016771 0.000971143 0)
(-0.0175258 0.000925099 0)
(-0.0182405 0.000873238 0)
(-0.0189107 0.000815567 0)
(-0.0195316 0.000752122 0)
(-0.0200988 0.000682975 0)
(-0.020608 0.000608251 0)
(-0.0210548 0.000528129 0)
(-0.0214352 0.000442856 0)
(-0.0217454 0.000352754 0)
(-0.0219818 0.000258222 0)
(-0.0221414 0.000159741 0)
(-0.0222213 5.78801e-05 0)
(-0.0222194 -4.67102e-05 0)
(-0.022134 -0.000153294 0)
(-0.021964 -0.000261057 0)
(-0.021709 -0.000369109 0)
(-0.0213693 -0.000476496 0)
(-0.0209459 -0.000582205 0)
(-0.0204407 -0.000685182 0)
(-0.0198563 -0.000784338 0)
(-0.0191963 -0.000878571 0)
(-0.018465 -0.000966781 0)
(-0.0176676 -0.00104788 0)
(-0.01681 -0.00112083 0)
(-0.015899 -0.00118464 0)
(-0.014942 -0.0012384 0)
(-0.013947 -0.00128128 0)
(-0.0129229 -0.00131259 0)
(-0.0118787 -0.00133174 0)
(-0.0108239 -0.00133829 0)
(-0.00976832 -0.00133197 0)
(-0.00872189 -0.00131267 0)
(-0.00769454 -0.00128044 0)
(-0.00669608 -0.00123552 0)
(-0.00573605 -0.00117835 0)
(-0.00482359 -0.00110954 0)
(-0.00396729 -0.00102987 0)
(-0.00317505 -0.000940344 0)
(-0.00245389 -0.000842134 0)
(-0.00180986 -0.00073662 0)
(-0.00124783 -0.000625394 0)
(-0.000771339 -0.000510296 0)
(-0.00038237 -0.000393449 0)
(-8.11498e-05 -0.000277348 0)
(0.000134142 -0.000164962 0)
(0.000267713 -5.99151e-05 0)
(0.000326592 3.32744e-05 0)
(0.000321128 0.000108877 0)
(0.000265337 0.000159613 0)
(0.000177327 0.00017638 0)
(8.30391e-05 0.000148576 0)
(1.91349e-05 6.72201e-05 0)
(9.46586e-06 -8.49782e-05 0)
(1.12143e-05 -9.23648e-05 0)
(-3.73787e-05 3.519e-06 0)
(-0.000163184 0.000162084 0)
(-0.00038336 0.000355928 0)
(-0.000707098 0.000565701 0)
(-0.00113779 0.000778087 0)
(-0.00167449 0.00098423 0)
(-0.00231309 0.00117845 0)
(-0.0030473 0.00135727 0)
(-0.0038694 0.00151879 0)
(-0.0047708 0.00166214 0)
(-0.00574248 0.00178718 0)
(-0.00677531 0.00189425 0)
(-0.00786022 0.00198396 0)
(-0.00898837 0.00205709 0)
(-0.0101512 0.00211447 0)
(-0.0113405 0.00215693 0)
(-0.0125485 0.00218525 0)
(-0.0137674 0.00220012 0)
(-0.0149901 0.00220212 0)
(-0.0162096 0.00219176 0)
(-0.017419 0.00216939 0)
(-0.0186118 0.00213531 0)
(-0.0197812 0.00208968 0)
(-0.0209211 0.00203264 0)
(-0.0220249 0.00196424 0)
(-0.0230864 0.00188451 0)
(-0.0240993 0.00179346 0)
(-0.0250573 0.00169113 0)
(-0.0259544 0.00157757 0)
(-0.0267843 0.0014529 0)
(-0.0275413 0.00131731 0)
(-0.0282194 0.00117107 0)
(-0.0288131 0.00101458 0)
(-0.0293171 0.000848352 0)
(-0.0297265 0.000673038 0)
(-0.0300368 0.000489436 0)
(-0.030244 0.000298499 0)
(-0.0303445 0.000101334 0)
(-0.0303357 -0.000100793 0)
(-0.0302155 -0.000306467 0)
(-0.0299825 -0.000514125 0)
(-0.0296365 -0.000722072 0)
(-0.029178 -0.000928492 0)
(-0.0286086 -0.00113147 0)
(-0.0279307 -0.00132901 0)
(-0.0271481 -0.00151907 0)
(-0.0262654 -0.00169958 0)
(-0.0252884 -0.00186846 0)
(-0.024224 -0.0020237 0)
(-0.02308 -0.00216335 0)
(-0.0218652 -0.00228555 0)
(-0.0205895 -0.00238861 0)
(-0.0192633 -0.00247101 0)
(-0.017898 -0.00253143 0)
(-0.0165055 -0.00256881 0)
(-0.0150982 -0.00258233 0)
(-0.0136889 -0.0025715 0)
(-0.0122903 -0.00253611 0)
(-0.0109154 -0.00247629 0)
(-0.00957697 -0.00239252 0)
(-0.00828736 -0.00228561 0)
(-0.00705842 -0.00215674 0)
(-0.00590128 -0.00200745 0)
(-0.00482614 -0.00183961 0)
(-0.00384211 -0.00165551 0)
(-0.00295695 -0.00145779 0)
(-0.00217693 -0.00124951 0)
(-0.00150655 -0.00103418 0)
(-0.000948344 -0.000815875 0)
(-0.000502563 -0.000599271 0)
(-0.000166917 -0.000389877 0)
(6.3788e-05 -0.000194233 0)
(0.000198058 -2.02279e-05 0)
(0.000248151 0.000122536 0)
(0.000230303 0.000222363 0)
(0.00016505 0.00026524 0)
(8.12103e-05 0.000235037 0)
(1.94956e-05 0.000114277 0)
(1.96344e-06 -8.45646e-05 0)
(-3.04881e-05 -4.55438e-05 0)
(-0.000146492 0.00012751 0)
(-0.000364958 0.000383466 0)
(-0.000699555 0.000687068 0)
(-0.00115829 0.0010126 0)
(-0.00174363 0.00134172 0)
(-0.00245377 0.00166175 0)
(-0.00328375 0.00196423 0)
(-0.00422628 0.00224379 0)
(-0.00527253 0.00249723 0)
(-0.00641261 0.00272298 0)
(-0.00763608 0.00292053 0)
(-0.00893228 0.00309015 0)
(-0.0102905 0.00323257 0)
(-0.0117003 0.0033488 0)
(-0.0131515 0.00343999 0)
(-0.014634 0.0035073 0)
(-0.0161383 0.00355185 0)
(-0.0176552 0.00357464 0)
(-0.0191758 0.00357656 0)
(-0.0206913 0.00355833 0)
(-0.0221933 0.00352052 0)
(-0.0236735 0.00346356 0)
(-0.0251239 0.00338778 0)
(-0.0265365 0.00329336 0)
(-0.0279033 0.00318045 0)
(-0.0292166 0.00304914 0)
(-0.0304685 0.00289949 0)
(-0.0316514 0.00273162 0)
(-0.0327578 0.00254567 0)
(-0.0337802 0.00234189 0)
(-0.0347113 0.00212064 0)
(-0.0355441 0.00188243 0)
(-0.036272 0.00162795 0)
(-0.0368885 0.00135808 0)
(-0.0373877 0.0010739 0)
(-0.0377644 0.000776741 0)
(-0.0380137 0.00046816 0)
(-0.0381316 0.000149955 0)
(-0.038115 -0.000175833 0)
(-0.0379614 -0.000506931 0)
(-0.0376695 -0.000840844 0)
(-0.0372391 -0.00117487 0)
(-0.036671 -0.00150613 0)
(-0.0359671 -0.0018316 0)
(-0.0351308 -0.00214813 0)
(-0.0341664 -0.0024525 0)
(-0.0330799 -0.00274145 0)
(-0.0318782 -0.00301174 0)
(-0.0305697 -0.0032602 0)
(-0.0291639 -0.00348377 0)
(-0.0276714 -0.00367957 0)
(-0.026104 -0.00384496 0)
(-0.0244745 -0.00397754 0)
(-0.0227965 -0.00407528 0)
(-0.0210842 -0.00413652 0)
(-0.0193525 -0.00416 0)
(-0.0176167 -0.00414495 0)
(-0.0158923 -0.00409106 0)
(-0.0141946 -0.00399856 0)
(-0.0125391 -0.00386821 0)
(-0.0109404 -0.00370132 0)
(-0.00941292 -0.00349977 0)
(-0.0079699 -0.00326598 0)
(-0.00662358 -0.003003 0)
(-0.00538488 -0.00271442 0)
(-0.00426312 -0.00240447 0)
(-0.00326581 -0.00207802 0)
(-0.0023984 -0.00174065 0)
(-0.00166398 -0.00139873 0)
(-0.00106301 -0.00105958 0)
(-0.00059307 -0.000731653 0)
(-0.000248448 -0.000424782 0)
(-1.98578e-05 -0.000150536 0)
(0.00010596 7.73931e-05 0)
(0.000146404 0.000242759 0)
(0.000123319 0.000326488 0)
(6.65507e-05 0.000306519 0)
(1.70897e-05 0.000156453 0)
(-6.22917e-06 -6.05162e-05 0)
(-7.71996e-05 5.96424e-05 0)
(-0.000269427 0.000337741 0)
(-0.000591421 0.000714868 0)
(-0.00105169 0.00114932 0)
(-0.00165595 0.00160989 0)
(-0.00240489 0.0020737 0)
(-0.00329525 0.0025245 0)
(-0.00432087 0.00295113 0)
(-0.00547333 0.00334623 0)
(-0.00674267 0.00370528 0)
(-0.00811783 0.00402585 0)
(-0.00958713 0.00430701 0)
(-0.0111386 0.00454885 0)
(-0.0127602 0.00475215 0)
(-0.01444 0.00491814 0)
(-0.0161663 0.00504822 0)
(-0.0179278 0.00514389 0)
(-0.0197133 0.00520659 0)
(-0.0215121 0.00523765 0)
(-0.0233138 0.00523824 0)
(-0.0251083 0.00520934 0)
(-0.0268855 0.00515175 0)
(-0.0286359 0.00506607 0)
(-0.0303497 0.00495275 0)
(-0.0320177 0.00481212 0)
(-0.0336304 0.0046444 0)
(-0.0351788 0.00444977 0)
(-0.0366536 0.00422841 0)
(-0.038046 0.00398052 0)
(-0.039347 0.0037064 0)
(-0.0405481 0.00340649 0)
(-0.0416407 0.00308137 0)
(-0.0426169 0.00273187 0)
(-0.0434688 0.00235905 0)
(-0.0441892 0.00196423 0)
(-0.0447714 0.00154906 0)
(-0.0452092 0.0011155 0)
(-0.0454973 0.000665841 0)
(-0.0456312 0.000202704 0)
(-0.0456073 -0.000270944 0)
(-0.0454231 -0.000751816 0)
(-0.0450772 -0.00123632 0)
(-0.0445693 -0.00172057 0)
(-0.0439005 -0.00220046 0)
(-0.0430734 -0.00267166 0)
(-0.0420917 -0.00312968 0)
(-0.0409607 -0.00356993 0)
(-0.0396872 -0.00398781 0)
(-0.0382793 -0.0043787 0)
(-0.0367466 -0.00473811 0)
(-0.0351 -0.00506172 0)
(-0.033352 -0.00534545 0)
(-0.0315159 -0.00558555 0)
(-0.0296063 -0.00577866 0)
(-0.027639 -0.0059219 0)
(-0.0256301 -0.00601291 0)
(-0.0235968 -0.00604994 0)
(-0.0215566 -0.00603189 0)
(-0.0195271 -0.00595834 0)
(-0.0175261 -0.00582963 0)
(-0.0155711 -0.00564685 0)
(-0.013679 -0.00541187 0)
(-0.0118663 -0.00512739 0)
(-0.0101483 -0.0047969 0)
(-0.00853889 -0.00442473 0)
(-0.00705079 -0.00401605 0)
(-0.00569472 -0.00357692 0)
(-0.00447942 -0.00311427 0)
(-0.00341126 -0.00263605 0)
(-0.00249405 -0.00215126 0)
(-0.00172866 -0.00167015 0)
(-0.00111282 -0.00120439 0)
(-0.000640779 -0.000767363 0)
(-0.000303023 -0.00037449 0)
(-8.59791e-05 -4.36559e-05 0)
(2.81423e-05 0.000204323 0)
(6.1625e-05 0.000345332 0)
(4.38398e-05 0.000351479 0)
(1.31954e-05 0.000188392 0)
(-1.45283e-05 -1.14242e-05 0)
(-0.000125979 0.000228045 0)
(-0.000399295 0.000641553 0)
(-0.000831409 0.00116495 0)
(-0.00142465 0.0017516 0)
(-0.00218164 0.00236587 0)
(-0.00310058 0.00298103 0)
(-0.00417624 0.00357772 0)
(-0.00540084 0.00414229 0)
(-0.00676465 0.00466554 0)
(-0.00825646 0.00514165 0)
(-0.00986405 0.00556734 0)
(-0.0115746 0.00594117 0)
(-0.0133749 0.00626306 0)
(-0.0152518 0.00653379 0)
(-0.017192 0.00675474 0)
(-0.0191827 0.00692756 0)
(-0.0212112 0.00705405 0)
(-0.0232651 0.00713597 0)
(-0.0253323 0.00717496 0)
(-0.027401 0.00717248 0)
(-0.0294599 0.00712978 0)
(-0.0314976 0.00704786 0)
(-0.0335031 0.00692752 0)
(-0.0354655 0.00676937 0)
(-0.0373742 0.00657387 0)
(-0.0392185 0.00634136 0)
(-0.040988 0.00607214 0)
(-0.0426723 0.00576652 0)
(-0.0442613 0.00542484 0)
(-0.0457451 0.00504761 0)
(-0.0471138 0.00463549 0)
(-0.0483581 0.00418938 0)
(-0.0494688 0.00371046 0)
(-0.0504373 0.00320025 0)
(-0.0512555 0.00266062 0)
(-0.0519159 0.00209387 0)
(-0.0524118 0.00150269 0)
(-0.0527372 0.000890211 0)
(-0.0528874 0.000260023 0)
(-0.0528583 -0.000383862 0)
(-0.0526472 -0.001037 0)
(-0.0522527 -0.00169457 0)
(-0.0516747 -0.00235135 0)
(-0.0509145 -0.00300184 0)
(-0.0499749 -0.00364025 0)
(-0.0488602 -0.0042606 0)
(-0.0475764 -0.00485679 0)
(-0.0461311 -0.00542266 0)
(-0.0445333 -0.00595212 0)
(-0.0427938 -0.00643917 0)
(-0.0409248 -0.00687809 0)
(-0.03894 -0.00726347 0)
(-0.0368543 -0.00759032 0)
(-0.0346841 -0.00785419 0)
(-0.0324465 -0.00805126 0)
(-0.0301599 -0.00817839 0)
(-0.0278432 -0.00823327 0)
(-0.0255158 -0.00821442 0)
(-0.0231974 -0.00812131 0)
(-0.0209078 -0.00795436 0)
(-0.0186665 -0.00771503 0)
(-0.0164925 -0.00740583 0)
(-0.014404 -0.00703034 0)
(-0.0124182 -0.00659323 0)
(-0.0105508 -0.00610029 0)
(-0.00881604 -0.00555843 0)
(-0.00722604 -0.0049757 0)
(-0.00579077 -0.00436135 0)
(-0.00451766 -0.00372591 0)
(-0.00341134 -0.00308123 0)
(-0.00247334 -0.00244072 0)
(-0.00170184 -0.00181946 0)
(-0.00109141 -0.00123452 0)
(-0.000632801 -0.000705261 0)
(-0.000312652 -0.000253773 0)
(-0.000113392 9.46386e-05 0)
(-1.29894e-05 0.000311002 0)
(1.63341e-05 0.000362085 0)
(8.5639e-06 0.000206978 0)
(-2.26805e-05 6.30912e-05 0)
(-0.000175195 0.000461955 0)
(-0.000531836 0.00104301 0)
(-0.0010776 0.0017389 0)
(-0.00180811 0.00249955 0)
(-0.00272231 0.00328595 0)
(-0.00381541 0.00406836 0)
(-0.00507972 0.00482483 0)
(-0.00650555 0.00553963 0)
(-0.00808156 0.00620194 0)
(-0.00979519 0.00680478 0)
(-0.011633 0.00734408 0)
(-0.013581 0.00781796 0)
(-0.0156249 0.00822612 0)
(-0.0177504 0.00856937 0)
(-0.0199431 0.00884918 0)
(-0.0221892 0.00906746 0)
(-0.0244746 0.00922628 0)
(-0.026786 0.0093277 0)
(-0.0291101 0.00937367 0)
(-0.0314339 0.00936592 0)
(-0.0337449 0.00930595 0)
(-0.0360305 0.00919499 0)
(-0.0382786 0.00903405 0)
(-0.0404771 0.00882389 0)
(-0.0426141 0.00856512 0)
(-0.0446779 0.00825823 0)
(-0.046657 0.00790365 0)
(-0.0485399 0.00750185 0)
(-0.0503153 0.00705338 0)
(-0.0519723 0.00655896 0)
(-0.0535002 0.00601955 0)
(-0.0548885 0.00543641 0)
(-0.0561273 0.00481115 0)
(-0.0572072 0.00414581 0)
(-0.0581193 0.00344291 0)
(-0.0588554 0.00270544 0)
(-0.0594082 0.00193696 0)
(-0.0597714 0.00114153 0)
(-0.0599396 0.000323806 0)
(-0.0599087 -0.000511037 0)
(-0.0596757 -0.00135729 0)
(-0.0592391 -0.00220875 0)
(-0.0585988 -0.00305876 0)
(-0.0577564 -0.00390028 0)
(-0.0567149 -0.00472593 0)
(-0.055479 -0.00552811 0)
(-0.0540553 -0.00629904 0)
(-0.0524521 -0.00703091 0)
(-0.0506791 -0.00771596 0)
(-0.0487482 -0.00834661 0)
(-0.0466725 -0.00891558 0)
(-0.0444669 -0.00941599 0)
(-0.0421478 -0.00984152 0)
(-0.0397328 -0.0101865 0)
(-0.0372407 -0.0104461 0)
(-0.0346913 -0.0106163 0)
(-0.0321054 -0.0106942 0)
(-0.0295041 -0.0106778 0)
(-0.026909 -0.0105664 0)
(-0.0243417 -0.0103606 0)
(-0.0218234 -0.0100622 0)
(-0.0193751 -0.00967446 0)
(-0.0170169 -0.00920179 0)
(-0.0147675 -0.00865016 0)
(-0.0126445 -0.00802694 0)
(-0.0106635 -0.00734088 0)
(-0.00883829 -0.00660221 0)
(-0.00717998 -0.00582266 0)
(-0.0056972 -0.00501547 0)
(-0.00439557 -0.00419557 0)
(-0.00327751 -0.00337962 0)
(-0.00234193 -0.00258627 0)
(-0.00158408 -0.00183634 0)
(-0.000995315 -0.00115318 0)
(-0.00056295 -0.000563014 0)
(-0.000270124 -9.54913e-05 0)
(-9.55701e-05 0.00021591 0)
(-1.38249e-05 0.000333239 0)
(3.63429e-06 0.00021047 0)
(-3.05837e-05 0.000162841 0)
(-0.000223959 0.000762032 0)
(-0.000664463 0.00154385 0)
(-0.00132526 0.00243936 0)
(-0.00219505 0.00339628 0)
(-0.00326876 0.00437331 0)
(-0.00453824 0.00533849 0)
(-0.00599302 0.00626792 0)
(-0.00762115 0.00714421 0)
(-0.00940951 0.00795528 0)
(-0.011344 0.00869318 0)
(-0.0134099 0.00935322 0)
(-0.0155919 0.00993316 0)
(-0.0178748 0.0104325 0)
(-0.0202432 0.0108521 0)
(-0.0226818 0.0111936 0)
(-0.0251754 0.0114591 0)
(-0.0277094 0.011651 0)
(-0.0302691 0.0117715 0)
(-0.0328403 0.0118229 0)
(-0.035409 0.0118073 0)
(-0.0379616 0.0117264 0)
(-0.0404846 0.0115816 0)
(-0.0429646 0.0113741 0)
(-0.0453887 0.011105 0)
(-0.0477439 0.0107748 0)
(-0.0500175 0.0103843 0)
(-0.0521968 0.00993416 0)
(-0.0542695 0.00942492 0)
(-0.0562233 0.0088574 0)
(-0.0580464 0.00823259 0)
(-0.0597271 0.00755177 0)
(-0.0612542 0.00681661 0)
(-0.0626169 0.00602922 0)
(-0.0638051 0.00519225 0)
(-0.0648091 0.00430887 0)
(-0.0656203 0.00338291 0)
(-0.0662308 0.00241882 0)
(-0.0666338 0.00142172 0)
(-0.0668235 0.000397392 0)
(-0.0667954 -0.000647719 0)
(-0.0665465 -0.00170653 0)
(-0.066075 -0.00277137 0)
(-0.0653809 -0.00383402 0)
(-0.0644658 -0.00488579 0)
(-0.0633329 -0.00591761 0)
(-0.0619873 -0.0069201 0)
(-0.060436 -0.00788373 0)
(-0.0586876 -0.00879888 0)
(-0.0567529 -0.00965603 0)
(-0.0546441 -0.0104459 0)
(-0.0523755 -0.0111594 0)
(-0.0499629 -0.0117882 0)
(-0.0474239 -0.0123246 0)
(-0.0447772 -0.0127614 0)
(-0.0420431 -0.0130928 0)
(-0.0392429 -0.0133137 0)
(-0.0363987 -0.0134206 0)
(-0.0335334 -0.0134109 0)
(-0.0306703 -0.0132839 0)
(-0.0278326 -0.0130401 0)
(-0.0250434 -0.0126817 0)
(-0.0223255 -0.0122125 0)
(-0.0197005 -0.0116381 0)
(-0.0171892 -0.0109657 0)
(-0.0148106 -0.0102043 0)
(-0.012582 -0.00936468 0)
(-0.0105187 -0.0084593 0)
(-0.00863318 -0.00750246 0)
(-0.00693543 -0.00651032 0)
(-0.00543225 -0.00550091 0)
(-0.00412712 -0.00449434 0)
(-0.00302 -0.00351284 0)
(-0.00210707 -0.00258107 0)
(-0.00138063 -0.00172633 0)
(-0.000829025 -0.000978909 0)
(-0.000436434 -0.000372595 0)
(-0.00018275 5.50126e-05 0)
(-4.52732e-05 0.000261869 0)
(-1.348e-06 0.000198025 0)
(-3.82043e-05 0.000287345 0)
(-0.000271796 0.00112791 0)
(-0.000795621 0.00214429 0)
(-0.00157134 0.0032671 0)
(-0.00258073 0.00444301 0)
(-0.00381455 0.00562931 0)
(-0.00526104 0.00679264 0)
(-0.00690669 0.00790776 0)
(-0.0087371 0.00895617 0)
(-0.0107371 0.00992485 0)
(-0.012891 0.0108052 0)
(-0.0151826 0.0115921 0)
(-0.0175955 0.012283 0)
(-0.0201133 0.0128775 0)
(-0.0227195 0.0133763 0)
(-0.0253979 0.0137814 0)
(-0.0281325 0.0140951 0)
(-0.0309076 0.01432 0)
(-0.0337077 0.0144586 0)
(-0.0365177 0.0145137 0)
(-0.0393227 0.0144873 0)
(-0.0421081 0.0143815 0)
(-0.0448596 0.0141981 0)
(-0.0475628 0.0139383 0)
(-0.0502039 0.0136032 0)
(-0.052769 0.0131939 0)
(-0.0552443 0.0127111 0)
(-0.0576165 0.0121557 0)
(-0.0598723 0.0115284 0)
(-0.0619985 0.0108304 0)
(-0.0639825 0.0100628 0)
(-0.0658117 0.0092274 0)
(-0.0674743 0.00832628 0)
(-0.0689587 0.00736208 0)
(-0.070254 0.0063381 0)
(-0.0713501 0.00525826 0)
(-0.0722376 0.00412725 0)
(-0.0729082 0.00295051 0)
(-0.0733545 0.00173425 0)
(-0.0735704 0.000485492 0)
(-0.0735511 -0.000787983 0)
(-0.0732933 -0.00207764 0)
(-0.072795 -0.00337424 0)
(-0.0720562 -0.00466792 0)
(-0.0710783 -0.00594825 0)
(-0.0698647 -0.00720433 0)
(-0.0684207 -0.00842496 0)
(-0.0667535 -0.00959869 0)
(-0.0648722 -0.010714 0)
(-0.0627879 -0.0117595 0)
(-0.0605137 -0.012724 0)
(-0.0580644 -0.0135968 0)
(-0.0554567 -0.0143677 0)
(-0.0527092 -0.0150273 0)
(-0.0498417 -0.0155674 0)
(-0.0468757 -0.0159805 0)
(-0.0438337 -0.0162608 0)
(-0.0407395 -0.0164036 0)
(-0.0376173 -0.0164062 0)
(-0.0344919 -0.0162673 0)
(-0.0313884 -0.0159876 0)
(-0.0283316 -0.0155694 0)
(-0.0253459 -0.0150174 0)
(-0.0224548 -0.0143382 0)
(-0.0196807 -0.0135402 0)
(-0.0170445 -0.0126341 0)
(-0.0145651 -0.0116328 0)
(-0.0122594 -0.0105511 0)
(-0.0101415 -0.0094059 0)
(-0.0082229 -0.0082164 0)
(-0.00651168 -0.00700385 0)
(-0.0050127 -0.00579183 0)
(-0.00372713 -0.00460627 0)
(-0.00265239 -0.00347564 0)
(-0.001782 -0.00243118 0)
(-0.00110557 -0.00150715 0)
(-0.000608619 -0.000741271 0)
(-0.000272417 -0.000174951 0)
(-7.72075e-05 0.000146245 0)
(-6.25711e-06 0.000169333 0)
(-4.55418e-05 0.000435984 0)
(-0.000318462 0.00155863 0)
(-0.000924377 0.00284345 0)
(-0.00181387 0.00422158 0)
(-0.00296195 0.00563944 0)
(-0.00435514 0.00705382 0)
(-0.00597797 0.00843064 0)
(-0.00781371 0.00974398 0)
(-0.00984535 0.0109747 0)
(-0.0120556 0.0121093 0)
(-0.0144269 0.0131387 0)
(-0.0169416 0.0140578 0)
(-0.019582 0.0148638 0)
(-0.0223306 0.0155565 0)
(-0.0251698 0.0161368 0)
(-0.0280827 0.0166067 0)
(-0.0310523 0.0169689 0)
(-0.0340621 0.0172262 0)
(-0.0370958 0.0173817 0)
(-0.0401374 0.017438 0)
(-0.0431714 0.0173978 0)
(-0.0461822 0.0172633 0)
(-0.0491547 0.0170363 0)
(-0.0520738 0.0167185 0)
(-0.0549248 0.0163111 0)
(-0.0576931 0.0158153 0)
(-0.0603641 0.015232 0)
(-0.0629235 0.0145622 0)
(-0.0653574 0.013807 0)
(-0.0676518 0.0129676 0)
(-0.0697933 0.0120459 0)
(-0.0717687 0.0110436 0)
(-0.0735653 0.00996361 0)
(-0.0751709 0.00880899 0)
(-0.076574 0.00758373 0)
(-0.0777639 0.00629257 0)
(-0.0787306 0.00494111 0)
(-0.0794652 0.0035358 0)
(-0.0799599 0.00208404 0)
(-0.0802082 0.000594123 0)
(-0.0802049 -0.000924768 0)
(-0.0799462 -0.00246257 0)
(-0.0794301 -0.00400843 0)
(-0.0786562 -0.00555072 0)
(-0.0776259 -0.00707721 0)
(-0.0763426 -0.00857511 0)
(-0.0748115 -0.0100312 0)
(-0.07304 -0.0114322 0)
(-0.0710374 -0.0127644 0)
(-0.0688152 -0.0140146 0)
(-0.0663869 -0.0151694 0)
(-0.0637679 -0.0162164 0)
(-0.0609756 -0.0171435 0)
(-0.0580294 -0.0179397 0)
(-0.0549501 -0.018595 0)
(-0.0517602 -0.0191008 0)
(-0.0484836 -0.01945 0)
(-0.0451451 -0.0196371 0)
(-0.0417707 -0.0196586 0)
(-0.0383865 -0.0195128 0)
(-0.0350194 -0.0192005 0)
(-0.0316957 -0.0187243 0)
(-0.0284418 -0.0180894 0)
(-0.0252829 -0.0173033 0)
(-0.0222432 -0.016376 0)
(-0.0193455 -0.0153199 0)
(-0.0166106 -0.0141498 0)
(-0.0140569 -0.0128829 0)
(-0.0117005 -0.011539 0)
(-0.00955434 -0.0101402 0)
(-0.00762823 -0.00871109 0)
(-0.00592851 -0.00727885 0)
(-0.00445785 -0.00587309 0)
(-0.0032151 -0.00452613 0)
(-0.00219523 -0.00327312 0)
(-0.00138934 -0.00215221 0)
(-0.000784447 -0.0012049 0)
(-0.000363332 -0.000476114 0)
(-0.000109192 -1.45492e-05 0)
(-1.10373e-05 0.000124373 0)
(-5.26075e-05 0.000608078 0)
(-0.000363838 0.00205285 0)
(-0.00105017 0.00363983 0)
(-0.0020516 0.0053013 0)
(-0.00333654 0.00698422 0)
(-0.00488735 0.00864555 0)
(-0.00668476 0.0102512 0)
(-0.00870879 0.0117751 0)
(-0.0109397 0.0131981 0)
(-0.0133579 0.0145064 0)
(-0.015944 0.0156912 0)
(-0.0186787 0.0167472 0)
(-0.0215431 0.017672 0)
(-0.0245184 0.0184653 0)
(-0.0275863 0.0191285 0)
(-0.0307286 0.019664 0)
(-0.0339278 0.0200745 0)
(-0.0371665 0.0203634 0)
(-0.0404277 0.020534 0)
(-0.0436947 0.0205893 0)
(-0.0469512 0.0205321 0)
(-0.0501811 0.0203649 0)
(-0.0533684 0.0200897 0)
(-0.0564974 0.0197085 0)
(-0.0595527 0.0192225 0)
(-0.0625189 0.0186332 0)
(-0.0653808 0.0179416 0)
(-0.0681234 0.0171491 0)
(-0.070732 0.0162568 0)
(-0.073192 0.0152663 0)
(-0.0754893 0.0141797 0)
(-0.07761 0.0129994 0)
(-0.0795407 0.0117285 0)
(-0.0812688 0.0103709 0)
(-0.082782 0.00893117 0)
(-0.0840689 0.00741492 0)
(-0.0851192 0.00582866 0)
(-0.0859233 0.00417996 0)
(-0.0864729 0.00247738 0)
(-0.086761 0.000730546 0)
(-0.0867819 -0.0010499 0)
(-0.0865315 -0.00285232 0)
(-0.0860074 -0.00466418 0)
(-0.0852089 -0.00647205 0)
(-0.0841372 -0.00826181 0)
(-0.0827954 -0.0100187 0)
(-0.0811887 -0.0117275 0)
(-0.0793244 -0.0133727 0)
(-0.077212 -0.0149388 0)
(-0.0748631 -0.01641 0)
(-0.0722914 -0.0177713 0)
(-0.0695129 -0.019008 0)
(-0.0665455 -0.0201062 0)
(-0.0634092 -0.0210529 0)
(-0.0601256 -0.0218366 0)
(-0.0567184 -0.022447 0)
(-0.0532124 -0.0228759 0)
(-0.0496338 -0.0231166 0)
(-0.0460098 -0.0231649 0)
(-0.0423683 -0.0230187 0)
(-0.0387375 -0.0226784 0)
(-0.0351459 -0.0221471 0)
(-0.0316213 -0.0214304 0)
(-0.028191 -0.0205368 0)
(-0.0248812 -0.0194775 0)
(-0.0217165 -0.0182668 0)
(-0.0187197 -0.0169214 0)
(-0.0159113 -0.0154611 0)
(-0.0133091 -0.0139085 0)
(-0.010928 -0.0122887 0)
(-0.00877955 -0.0106297 0)
(-0.00687194 -0.00896216 0)
(-0.00520948 -0.00731961 0)
(-0.00379269 -0.00573819 0)
(-0.00261816 -0.00425694 0)
(-0.00167865 -0.00291785 0)
(-0.000962794 -0.00176609 0)
(-0.000454905 -0.000849948 0)
(-0.000141041 -0.000220986 0)
(-1.56754e-05 6.32627e-05 0)
(-5.94146e-05 0.000802918 0)
(-0.000407866 0.00260903 0)
(-0.00117268 0.00453143 0)
(-0.00228368 0.0065041 0)
(-0.00370299 0.00847514 0)
(-0.00540884 0.0104023 0)
(-0.00737825 0.0122521 0)
(-0.00958789 0.0139989 0)
(-0.0120152 0.0156238 0)
(-0.0146384 0.0171136 0)
(-0.0174361 0.0184596 0)
(-0.0203874 0.0196569 0)
(-0.0234719 0.0207036 0)
(-0.0266698 0.0215997 0)
(-0.0299617 0.022347 0)
(-0.0333287 0.0229482 0)
(-0.0367524 0.0234067 0)
(-0.0402146 0.0237261 0)
(-0.0436978 0.0239099 0)
(-0.0471847 0.0239616 0)
(-0.0506582 0.0238842 0)
(-0.0541017 0.0236805 0)
(-0.0574986 0.0233527 0)
(-0.0608326 0.0229029 0)
(-0.0640876 0.0223326 0)
(-0.0672477 0.0216434 0)
(-0.070297 0.0208365 0)
(-0.07322 0.0199134 0)
(-0.0760013 0.0188756 0)
(-0.0786257 0.017725 0)
(-0.0810784 0.0164639 0)
(-0.0833451 0.0150952 0)
(-0.0854117 0.0136225 0)
(-0.0872648 0.0120503 0)
(-0.0888917 0.010384 0)
(-0.0902805 0.00862987 0)
(-0.09142 0.00679553 0)
(-0.0923003 0.00488958 0)
(-0.0929125 0.00292181 0)
(-0.0932489 0.000903203 0)
(-0.0933035 -0.00115413 0)
(-0.0930716 -0.00323693 0)
(-0.0925503 -0.00533093 0)
(-0.0917384 -0.00742087 0)
(-0.0906368 -0.00949067 0)
(-0.0892483 -0.0115235 0)
(-0.0875779 -0.0135022 0)
(-0.0856326 -0.0154088 0)
(-0.0834218 -0.0172257 0)
(-0.0809572 -0.0189351 0)
(-0.0782526 -0.0205196 0)
(-0.0753243 -0.0219623 0)
(-0.0721905 -0.0232472 0)
(-0.0688718 -0.0243595 0)
(-0.0653906 -0.0252858 0)
(-0.0617714 -0.0260141 0)
(-0.05804 -0.0265346 0)
(-0.0542238 -0.0268397 0)
(-0.0503515 -0.0269241 0)
(-0.0464525 -0.0267851 0)
(-0.0425567 -0.0264229 0)
(-0.0386942 -0.0258406 0)
(-0.0348948 -0.0250443 0)
(-0.031188 -0.0240435 0)
(-0.0276018 -0.0228506 0)
(-0.0241632 -0.0214814 0)
(-0.0208969 -0.019955 0)
(-0.0178256 -0.0182935 0)
(-0.0149693 -0.0165223 0)
(-0.0123449 -0.0146697 0)
(-0.00996605 -0.0127671 0)
(-0.00784288 -0.0108489 0)
(-0.00598162 -0.00895227 0)
(-0.0043846 -0.00711738 0)
(-0.00305024 -0.00538718 0)
(-0.00197306 -0.0038075 0)
(-0.00114337 -0.00242712 0)
(-0.000547014 -0.00129764 0)
(-0.000172748 -0.000473367 0)
(-2.01853e-05 -1.38523e-05 0)
(-6.59756e-05 0.00101979 0)
(-0.000450519 0.00322545 0)
(-0.00129166 0.00551593 0)
(-0.00250955 0.00782732 0)
(-0.00406021 0.0101093 0)
(-0.00591792 0.0123211 0)
(-0.00805599 0.0144302 0)
(-0.0104478 0.0164121 0)
(-0.0130681 0.0182486 0)
(-0.0158927 0.0199273 0)
(-0.0188981 0.0214402 0)
(-0.022062 0.022783 0)
(-0.0253624 0.0239544 0)
(-0.0287785 0.0249552 0)
(-0.0322899 0.0257875 0)
(-0.0358767 0.0264546 0)
(-0.0395199 0.0269604 0)
(-0.0432006 0.0273089 0)
(-0.0469008 0.0275041 0)
(-0.0506025 0.0275497 0)
(-0.0542881 0.0274491 0)
(-0.0579404 0.0272052 0)
(-0.0615425 0.0268207 0)
(-0.0650774 0.0262975 0)
(-0.0685286 0.0256376 0)
(-0.0718795 0.0248426 0)
(-0.0751139 0.023914 0)
(-0.0782156 0.0228534 0)
(-0.0811686 0.0216625 0)
(-0.0839574 0.0203435 0)
(-0.0865665 0.0188992 0)
(-0.088981 0.0173327 0)
(-0.0911863 0.0156483 0)
(-0.0931684 0.013851 0)
(-0.094914 0.0119469 0)
(-0.0964105 0.00994331 0)
(-0.0976463 0.00784859 0)
(-0.0986108 0.00567251 0)
(-0.0992943 0.00342608 0)
(-0.0996889 0.00112165 0)
(-0.0997875 -0.00122716 0)
(-0.0995852 -0.00360548 0)
(-0.0990783 -0.00599727 0)
(-0.0982651 -0.00838541 0)
(-0.097146 -0.0107518 0)
(-0.0957232 -0.0130776 0)
(-0.0940013 -0.0153432 0)
(-0.0919871 -0.0175288 0)
(-0.0896897 -0.0196141 0)
(-0.0871205 -0.0215792 0)
(-0.0842934 -0.0234043 0)
(-0.0812247 -0.0250702 0)
(-0.077933 -0.0265587 0)
(-0.0744392 -0.0278528 0)
(-0.0707663 -0.028937 0)