/*--------------------------------*- C++ -*----------------------------------*\
  =========                 |
  \\      /  F ield         | OpenFOAM: The Open Source CFD Toolbox
   \\    /   O peration     | Website:  https://openfoam.org
    \\  /    A nd           | Version:  7
     \\/     M anipulation  |
\*---------------------------------------------------------------------------*/
FoamFile
{
    version     2.0;
    format      ascii;
    class       volScalarField;
    location    "1.7";
    object      p;
}
// * * * * * * * * * * * * * * * * * * * * * * * * * * * * * * * * * * * * * //

dimensions      [0 2 -2 0 0 0 0];

internalField   nonuniform List<scalar> 
6400
(
-9.28889e-07
1.13153e-06
-3.09271e-05
-9.67347e-05
-0.000188919
-0.00030055
-0.000425605
-0.000559053
-0.000696993
-0.000836504
-0.000975473
-0.00111241
-0.00124625
-0.00137627
-0.00150185
-0.00162247
-0.00173762
-0.00184669
-0.00194898
-0.00204367
-0.00212983
-0.00220637
-0.00227212
-0.00232583
-0.00236618
-0.00239186
-0.00240155
-0.00239401
-0.00236812
-0.00232289
-0.00225754
-0.00217153
-0.00206459
-0.00193683
-0.00178867
-0.00162097
-0.001435
-0.00123248
-0.00101555
-0.000786852
-0.000549405
-0.000306651
-6.23743e-05
0.000179349
0.000414227
0.000637838
0.000845728
0.00103352
0.00119703
0.00133237
0.00143608
0.0015052
0.00153742
0.0015311
0.0014854
0.00140024
0.0012764
0.00111547
0.000919837
0.000692607
0.000437568
0.000159075
-0.000138044
-0.000448597
-0.000767149
-0.00108812
-0.00140591
-0.00171496
-0.00200985
-0.00228537
-0.00253656
-0.00275877
-0.00294775
-0.00309977
-0.00321185
-0.0032822
-0.0033112
-0.00330295
-0.00326719
-0.00322154
-4.24902e-06
-1.8099e-06
-3.09533e-05
-8.81434e-05
-0.000167045
-0.000262851
-0.000371107
-0.000487834
-0.000609793
-0.000734412
-0.000859721
-0.000984245
-0.00110687
-0.00122674
-0.00134316
-0.00145552
-0.00156321
-0.00166558
-0.00176193
-0.00185145
-0.00193324
-0.0020063
-0.00206957
-0.00212188
-0.00216207
-0.00218893
-0.00220129
-0.00219804
-0.00217817
-0.00214078
-0.00208519
-0.00201089
-0.00191769
-0.00180565
-0.00167519
-0.00152708
-0.00136248
-0.00118295
-0.000990459
-0.000787391
-0.000576504
-0.000360931
-0.000144116
7.0231e-05
0.000278206
0.000475787
0.000658931
0.000823663
0.000966187
0.00108299
0.00117094
0.00122739
0.00125027
0.00123815
0.00119028
0.00110668
0.00098811
0.000836076
0.000652806
0.000441198
0.000204746
-5.25362e-05
-0.000326217
-0.000611549
-0.000903567
-0.00119721
-0.00148739
-0.00176913
-0.00203758
-0.00228813
-0.00251649
-0.00271871
-0.00289132
-0.00303143
-0.00313694
-0.00320687
-0.0032421
-0.0032459
-0.00322171
-0.00317596
2.79244e-05
2.68793e-05
-2.88468e-06
-5.67358e-05
-0.000128998
-0.000215835
-0.000313747
-0.000419526
-0.000530462
-0.000644368
-0.000759513
-0.000874555
-0.000988443
-0.00110034
-0.00120955
-0.00131545
-0.00141741
-0.0015148
-0.00160691
-0.00169296
-0.00177209
-0.00184337
-0.00190577
-0.00195823
-0.00199963
-0.00202887
-0.00204483
-0.00204649
-0.00203288
-0.00200315
-0.00195664
-0.00189287
-0.00181161
-0.0017129
-0.00159709
-0.00146487
-0.00131727
-0.00115573
-0.000982051
-0.000798433
-0.000607417
-0.000411927
-0.000215166
-2.05933e-05
0.000168139
0.000347266
0.000512997
0.000661606
0.000789529
0.000893471
0.000970499
0.00101814
0.00103445
0.00101812
0.000968475
0.000885567
0.000770148
0.000623683
0.000448312
0.000246803
2.24848e-05
-0.000220837
-0.000478975
-0.000747459
-0.00102164
-0.00129679
-0.00156821
-0.00183129
-0.00208163
-0.00231507
-0.0025278
-0.00271634
-0.00287775
-0.00300959
-0.00311012
-0.00317849
-0.00321528
-0.00322241
-0.00319781
-0.0031399
9.56188e-05
8.43442e-05
4.93115e-05
-5.63701e-06
-7.60747e-05
-0.00015876
-0.000250799
-0.000349586
-0.000452917
-0.000558999
-0.000666403
-0.000774003
-0.000880894
-0.000986349
-0.00108974
-0.0011905
-0.00128803
-0.00138173
-0.00147093
-0.00155488
-0.00163276
-0.00170367
-0.00176664
-0.00182064
-0.0018646
-0.00189745
-0.00191812
-0.00192558
-0.0019189
-0.00189723
-0.00185987
-0.00180633
-0.00173631
-0.0016498
-0.00154704
-0.00142863
-0.00129548
-0.00114889
-0.000990526
-0.000822417
-0.000646969
-0.000466918
-0.000285305
-0.000105424
6.92338e-05
0.000235058
0.000388402
0.000525674
0.000643433
0.000738491
0.000808009
0.000849591
0.000861363
0.000842048
0.000791016
0.000708322
0.000594715
0.000451635
0.000281178
8.60469e-05
-0.000130518
-0.000364823
-0.000612819
-0.000870201
-0.00113252
-0.00139527
-0.001654
-0.0019044
-0.00214237
-0.0023641
-0.0025661
-0.00274528
-0.00289899
-0.00302506
-0.00312182
-0.00318823
-0.00322435
-0.00323084
-0.00320172
-0.00313058
0.000192379
0.000164785
0.000120407
6.10876e-05
-1.06265e-05
-9.20402e-05
-0.000180784
-0.000274839
-0.000372515
-0.000472436
-0.000573503
-0.000674856
-0.000775802
-0.000875768
-0.00097425
-0.00107075
-0.00116477
-0.00125574
-0.00134305
-0.00142599
-0.00150378
-0.00157555
-0.00164035
-0.00169719
-0.00174503
-0.00178279
-0.00180942
-0.00182388
-0.0018252
-0.00181251
-0.00178507
-0.0017423
-0.00168384
-0.00160956
-0.00151961
-0.00141446
-0.00129489
-0.00116207
-0.00101751
-0.000863101
-0.000701123
-0.000534163
-0.000365135
-0.000197217
-3.37912e-05
0.000121625
0.000265466
0.000394204
0.000504452
0.000593062
0.000657224
0.00069456
0.000703206
0.000681888
0.000629973
0.000547506
0.000435225
0.00029455
0.000127551
-6.31023e-05
-0.000274216
-0.000502159
-0.000742959
-0.000992415
-0.0012462
-0.00149997
-0.00174946
-0.00199057
-0.00221946
-0.00243257
-0.00262671
-0.00279905
-0.00294717
-0.00306907
-0.00316312
-0.00322805
-0.00326349
-0.0032692
-0.00323685
-0.00315744
0.000311768
0.000263596
0.000206548
0.000140118
6.45271e-05
-1.80463e-05
-0.000105723
-0.000197059
-0.000290874
-0.000386227
-0.000482379
-0.000578767
-0.000674942
-0.00077053
-0.000865176
-0.000958506
-0.00105011
-0.0011395
-0.00122612
-0.00130931
-0.00138833
-0.00146233
-0.00153038
-0.00159151
-0.00164466
-0.00168876
-0.00172271
-0.00174545
-0.00175596
-0.00175328
-0.00173661
-0.00170526
-0.00165876
-0.00159687
-0.00151961
-0.00142729
-0.00132057
-0.00120046
-0.00106836
-0.000926009
-0.000775566
-0.000619516
-0.000460676
-0.000302149
-0.000147256
5.27058e-07
0.000137656
0.000260609
0.000365991
0.000450633
0.000511694
0.000546757
0.000553919
0.000531864
0.000479922
0.000398102
0.000287115
0.000148358
-1.61168e-05
-0.000203655
-0.000411078
-0.000634776
-0.00087081
-0.00111502
-0.00136316
-0.00161097
-0.00185431
-0.00208924
-0.00231207
-0.00251947
-0.00270845
-0.00287639
-0.00302107
-0.00314058
-0.00323332
-0.00329789
-0.00333359
-0.00333965
-0.00330664
-0.00322458
0.000447636
0.000375888
0.00030368
0.000227918
0.000146306
6.05296e-05
-2.80026e-05
-0.000118411
-0.000210026
-0.00030234
-0.000395003
-0.000487771
-0.000580467
-0.000672933
-0.00076499
-0.000856411
-0.000946895
-0.00103605
-0.00112338
-0.00120828
-0.00129003
-0.00136782
-0.00144072
-0.00150774
-0.00156782
-0.00161983
-0.00166264
-0.0016951
-0.00171612
-0.00172465
-0.00171975
-0.00170062
-0.00166666
-0.00161747
-0.00155291
-0.00147317
-0.00137873
-0.00127047
-0.00114963
-0.00101786
-0.000877197
-0.000730037
-0.000579136
-0.000427553
-0.000278591
-0.000135734
-2.55125e-06
0.000117388
0.000220623
0.000303907
0.000364311
0.000399328
0.000406963
0.000385811
0.000335124
0.000254848
0.00014564
8.86155e-06
-0.000153456
-0.000338666
-0.000543589
-0.000764607
-0.000997778
-0.00123895
-0.00148388
-0.00172835
-0.00196829
-0.00219984
-0.00241944
-0.00262387
-0.00281031
-0.00297629
-0.00311971
-0.00323879
-0.00333193
-0.00339766
-0.00343511
-0.00344322
-0.0034124
-0.00333272
0.000594012
0.000496615
0.000407429
0.000320653
0.000231362
0.000140766
4.98149e-05
-4.1171e-05
-0.000132031
-0.000222708
-0.000313243
-0.000403734
-0.000494284
-0.000584971
-0.000675809
-0.000766727
-0.00085755
-0.000947985
-0.0010376
-0.00112585
-0.00121203
-0.00129536
-0.00137489
-0.00144961
-0.00151841
-0.00158012
-0.00163352
-0.00167736
-0.00171044
-0.00173158
-0.00173971
-0.00173386
-0.00171326
-0.00167736
-0.00162584
-0.0015587
-0.00147629
-0.00137931
-0.00126889
-0.00114654
-0.0010142
-0.000874205
-0.000729265
-0.000582421
-0.000436994
-0.000296508
-0.000164603
-4.4941e-05
5.89027e-05
0.000143552
0.000205937
0.000243407
0.00025382
0.000235639
0.00018799
0.000110713
4.38182e-06
-0.000129704
-0.000289548
-0.000472518
-0.000675429
-0.000894643
-0.00112619
-0.00136588
-0.00160945
-0.00185268
-0.00209149
-0.00232206
-0.00254088
-0.00274482
-0.00293114
-0.00309748
-0.00324183
-0.00336249
-0.0034579
-0.0035266
-0.00356762
-0.00357978
-0.00355394
-0.00348084
0.000745179
0.000620759
0.000513315
0.000414296
0.000316083
0.000219418
0.000124802
3.19879e-05
-5.93827e-05
-0.000149706
-0.000239422
-0.000328976
-0.000418759
-0.000509093
-0.000600199
-0.000692167
-0.000784952
-0.00087836
-0.000972033
-0.00106546
-0.00115799
-0.00124881
-0.00133697
-0.00142142
-0.00150099
-0.00157442
-0.00164037
-0.00169751
-0.00174446
-0.0017799
-0.00180259
-0.00181137
-0.00180528
-0.00178357
-0.00174573
-0.00169159
-0.00162129
-0.00153539
-0.00143486
-0.0013211
-0.00119595
-0.00106169
-0.000920987
-0.000776894
-0.000632767
-0.000492202
-0.000358945
-0.00023679
-0.000129469
-4.05389e-05
2.6741e-05
6.95183e-05
8.54551e-05
7.28208e-05
3.05667e-05
-4.16224e-05
-0.000143302
-0.000273268
-0.000429591
-0.000609672
-0.000810327
-0.0010279
-0.00125837
-0.00149751
-0.00174099
-0.00198453
-0.00222402
-0.00245561
-0.00267579
-0.00288145
-0.00306988
-0.0032388
-0.00338624
-0.00351055
-0.00361022
-0.00368382
-0.00373036
-0.00374864
-0.00373033
-0.00366721
0.000895713
0.000743354
0.000616787
0.000504663
0.000396628
0.000292951
0.000193681
9.79916e-05
4.99452e-06
-8.61677e-05
-0.000176334
-0.000266295
-0.000356741
-0.000448244
-0.000541225
-0.000635942
-0.000732483
-0.000830746
-0.000930446
-0.00103111
-0.00113211
-0.00123262
-0.00133166
-0.00142813
-0.00152076
-0.00160819
-0.00168897
-0.0017616
-0.00182455
-0.0018763
-0.0019154
-0.00194051
-0.00195043
-0.00194419
-0.00192106
-0.00188066
-0.00182295
-0.00174829
-0.0016575
-0.00155185
-0.00143308
-0.0013034
-0.00116545
-0.00102231
-0.000877381
-0.00073435
-0.000597095
-0.000469578
-0.00035573
-0.000259332
-0.000183888
-0.000132506
-0.000107782
-0.0001117
-0.000145546
-0.000209851
-0.000304355
-0.000428003
-0.000578972
-0.00075473
-0.00095212
-0.00116747
-0.00139673
-0.00163559
-0.00187965
-0.00212453
-0.00236605
-0.00260028
-0.00282365
-0.00303301
-0.00322564
-0.00339924
-0.00355188
-0.00368192
-0.00378789
-0.00386841
-0.00392247
-0.00394887
-0.00394034
-0.00388991
0.00104031
0.000859449
0.000713215
0.000587431
0.000468956
0.00035758
0.000252876
0.000153424
5.77999e-05
-3.53181e-05
-0.000127175
-0.000218908
-0.000311505
-0.000405785
-0.000502373
-0.000601691
-0.00070395
-0.000809144
-0.000917051
-0.00102724
-0.00113907
-0.00125172
-0.00136417
-0.0014752
-0.00158349
-0.00168752
-0.00178571
-0.00187638
-0.00195779
-0.00202823
-0.002086
-0.00212953
-0.00215736
-0.00216829
-0.00216134
-0.00213588
-0.00209165
-0.00202882
-0.00194802
-0.00185038
-0.00173752
-0.00161158
-0.00147517
-0.00133137
-0.00118365
-0.00103581
-0.000891868
-0.000755987
-0.000632333
-0.000524957
-0.000437659
-0.000373865
-0.000336494
-0.000327855
-0.000349545
-0.000402382
-0.00048636
-0.00060064
-0.000743564
-0.000912717
-0.00110501
-0.00131677
-0.00154393
-0.00178211
-0.0020268
-0.00227353
-0.00251796
-0.00275605
-0.00298412
-0.00319892
-0.00339765
-0.00357795
-0.00373784
-0.00387569
-0.00399002
-0.00407947
-0.004143
-0.00417944
-0.00418267
-0.00414709
0.00117375
0.000964096
0.000797909
0.000658155
0.000528856
0.000409289
0.000298535
0.000194565
9.54049e-05
-7.36982e-07
-9.55125e-05
-0.000190409
-0.000286708
-0.000385471
-0.000487521
-0.000593438
-0.000703555
-0.000817953
-0.000936466
-0.00105869
-0.00118399
-0.00131151
-0.00144015
-0.00156863
-0.00169548
-0.00181907
-0.00193761
-0.00204923
-0.00215198
-0.0022439
-0.00232303
-0.00238753
-0.00243566
-0.00246594
-0.00247711
-0.00246827
-0.00243892
-0.00238899
-0.0023189
-0.00222961
-0.00212258
-0.00199988
-0.00186407
-0.00171822
-0.00156587
-0.00141091
-0.00125754
-0.00111014
-0.000973147
-0.000850919
-0.000747613
-0.000667031
-0.000612496
-0.000586715
-0.000591685
-0.000628597
-0.000697788
-0.000798714
-0.000929961
-0.0010893
-0.00127374
-0.0014797
-0.00170307
-0.00193943
-0.00218415
-0.00243263
-0.00268036
-0.00292313
-0.00315708
-0.0033788
-0.00358534
-0.00377422
-0.00394337
-0.00409106
-0.00421579
-0.00431617
-0.00439111
-0.00443941
-0.00445615
-0.00443716
0.00129079
0.00105232
0.000866122
0.00071228
0.000571953
0.000443864
0.000326572
0.000217421
0.00011388
1.36764e-05
-8.52537e-05
-0.000184744
-0.000286364
-0.000391415
-0.00050091
-0.000615579
-0.00073587
-0.000861945
-0.000993688
-0.00113072
-0.00127238
-0.00141776
-0.00156572
-0.00171484
-0.00186353
-0.00200998
-0.00215222
-0.00228815
-0.00241556
-0.00253223
-0.0026359
-0.00272443
-0.00279578
-0.00284814
-0.00287994
-0.00288998
-0.00287746
-0.00284204
-0.00278389
-0.00270379
-0.00260296
-0.00248339
-0.00234756
-0.00219853
-0.00203986
-0.00187556
-0.00170999
-0.00154777
-0.00139363
-0.0012523
-0.00112833
-0.00102598
-0.000949053
-0.000900742
-0.00088354
-0.000899118
-0.000948259
-0.00103082
-0.00114572
-0.001291
-0.00146387
-0.00166084
-0.00187785
-0.00211043
-0.00235385
-0.00260334
-0.00285421
-0.00310202
-0.00334267
-0.00357251
-0.00378839
-0.0039876
-0.0041679
-0.00432743
-0.00446457
-0.00457786
-0.00466609
-0.00472798
-0.00475982
-0.00475889
0.00138622
0.00111912
0.000913055
0.000745173
0.000593751
0.000456926
0.000332705
0.000217781
0.000109048
3.74961e-06
-0.000100593
-0.000206156
-0.000314796
-0.000428043
-0.000547094
-0.000672824
-0.000805785
-0.000946216
-0.00109404
-0.00124889
-0.00141008
-0.00157665
-0.00174735
-0.00192067
-0.00209485
-0.0022679
-0.00243762
-0.00260166
-0.00275755
-0.00290275
-0.0030347
-0.00315091
-0.00324899
-0.00332676
-0.00338233
-0.00341412
-0.00342101
-0.00340232
-0.00335795
-0.00328833
-0.00319467
-0.00307861
-0.00294255
-0.0027895
-0.00262305
-0.00244729
-0.00226675
-0.0020863
-0.00191098
-0.00174592
-0.00159615
-0.00146642
-0.00136112
-0.00128404
-0.00123827
-0.00122607
-0.00124882
-0.00130687
-0.00139961
-0.00152545
-0.0016819
-0.00186566
-0.00207274
-0.00229868
-0.00253865
-0.00278772
-0.00304095
-0.00329364
-0.00354139
-0.00378025
-0.00400673
-0.00421785
-0.00441112
-0.00458441
-0.00473593
-0.00486409
-0.00496747
-0.00504459
-0.00509303
-0.00511145
0.00145481
0.0011595
0.000933867
0.000752133
0.000589665
0.000443981
0.000312504
0.000191252
7.65305e-05
-3.49096e-05
-0.000145958
-0.000259137
-0.000376579
-0.000500037
-0.000630889
-0.000770144
-0.000918456
-0.00107613
-0.00124312
-0.00141906
-0.00160323
-0.00179461
-0.00199185
-0.00219329
-0.00239701
-0.00260081
-0.00280226
-0.00299874
-0.00318746
-0.00336555
-0.0035301
-0.00367825
-0.00380722
-0.00391443
-0.00399758
-0.0040547
-0.00408426
-0.00408523
-0.00405713
-0.00400011
-0.00391503
-0.00380335
-0.00366732
-0.00350982
-0.00333442
-0.00314527
-0.00294707
-0.00274491
-0.00254419
-0.00235046
-0.00216925
-0.00200594
-0.00186554
-0.00175257
-0.00167084
-0.00162335
-0.00161218
-0.00163836
-0.00170188
-0.00180167
-0.00193563
-0.00210075
-0.00229322
-0.00250862
-0.00274207
-0.00298844
-0.00324257
-0.0034994
-0.00375418
-0.00400255
-0.00424064
-0.00446506
-0.00467295
-0.00486186
-0.0050297
-0.00517464
-0.00529499
-0.005389
-0.00545546
-0.00549446
0.00149133
0.00116844
0.000923709
0.000728429
0.000555059
0.000400461
0.000261438
0.000133317
1.18031e-05
-0.000106853
-0.000225952
-0.000348356
-0.000476473
-0.000612272
-0.000757304
-0.000912708
-0.00107923
-0.00125724
-0.00144672
-0.00164728
-0.00185818
-0.00207831
-0.00230622
-0.0025401
-0.00277783
-0.00301701
-0.00325493
-0.00348867
-0.00371513
-0.00393108
-0.0041332
-0.00431823
-0.00448294
-0.00462433
-0.00473963
-0.0048264
-0.00488267
-0.00490695
-0.00489836
-0.00485666
-0.00478232
-0.00467657
-0.00454136
-0.00437946
-0.00419434
-0.00399018
-0.00377178
-0.00354449
-0.00331403
-0.00308642
-0.00286776
-0.00266408
-0.00248115
-0.00232431
-0.00219823
-0.0021068
-0.00205298
-0.00203864
-0.00206453
-0.00213026
-0.00223429
-0.00237403
-0.00254596
-0.00274576
-0.00296854
-0.00320901
-0.00346173
-0.00372128
-0.00398245
-0.00424041
-0.00449077
-0.00472963
-0.00495364
-0.00515991
-0.00534594
-0.00550957
-0.00564869
-0.00576124
-0.00584715
-0.00590795
0.00149059
0.00114098
0.00087777
0.000669352
0.0004853
0.000321774
0.000174937
3.94019e-05
-8.97338e-05
-0.00021672
-0.000345274
-0.000478592
-0.00061935
-0.000769735
-0.000931461
-0.0011058
-0.00129358
-0.00149522
-0.00171073
-0.00193971
-0.00218137
-0.00243452
-0.00269758
-0.0029686
-0.00324525
-0.00352488
-0.00380452
-0.00408093
-0.00435063
-0.00461001
-0.00485533
-0.00508287
-0.00528892
-0.00546998
-0.00562276
-0.00574431
-0.00583212
-0.00588419
-0.00589915
-0.00587627
-0.00581561
-0.005718
-0.0055851
-0.00541942
-0.00522431
-0.00500391
-0.00476309
-0.00450739
-0.0042429
-0.00397608
-0.00371364
-0.00346235
-0.00322882
-0.00301931
-0.00283952
-0.00269439
-0.00258793
-0.00252304
-0.00250146
-0.00252366
-0.00258884
-0.002695
-0.00283903
-0.00301684
-0.00322359
-0.00345386
-0.00370192
-0.00396195
-0.00422822
-0.0044953
-0.00475818
-0.00501233
-0.00525377
-0.005479
-0.00568503
-0.00586921
-0.00602893
-0.00616167
-0.00626851
-0.00635238
0.00144746
0.00107223
0.000791318
0.000570261
0.000375803
0.000203367
4.8445e-05
-9.50661e-05
-0.000232687
-0.000369172
-0.00050865
-0.00065465
-0.000810116
-0.000977445
-0.00115851
-0.00135471
-0.00156697
-0.00179574
-0.00204105
-0.0023025
-0.00257924
-0.00286999
-0.00317304
-0.00348629
-0.00380718
-0.00413282
-0.00445993
-0.00478493
-0.00510396
-0.00541298
-0.0057078
-0.00598418
-0.0062379
-0.0064649
-0.0066613
-0.00682356
-0.00694859
-0.00703377
-0.00707715
-0.00707745
-0.0070342
-0.00694776
-0.00681939
-0.00665128
-0.00644653
-0.0062092
-0.00594416
-0.00565713
-0.00535447
-0.00504314
-0.00473048
-0.00442401
-0.0041313
-0.00385964
-0.00361589
-0.00340622
-0.0032359
-0.00310908
-0.0030287
-0.00299632
-0.00301212
-0.00307489
-0.0031821
-0.00333004
-0.003514
-0.0037285
-0.00396755
-0.00422487
-0.00449414
-0.00476924
-0.0050444
-0.00531431
-0.00557421
-0.00581987
-0.00604761
-0.00625417
-0.00643631
-0.00659096
-0.00672027
-0.00682863
0.00135698
0.000957459
0.000659749
0.000426635
0.000222088
4.07752e-05
-0.000122505
-0.000274584
-0.000421597
-0.000568805
-0.000720746
-0.000881281
-0.00105362
-0.00124036
-0.00144355
-0.00166469
-0.00190479
-0.00216437
-0.00244347
-0.00274167
-0.00305807
-0.0033913
-0.00373953
-0.00410045
-0.00447132
-0.00484896
-0.00522978
-0.00560982
-0.00598484
-0.00635032
-0.00670158
-0.00703382
-0.00734227
-0.00762222
-0.00786916
-0.0080789
-0.00824764
-0.00837211
-0.00844965
-0.00847836
-0.00845713
-0.00838574
-0.00826496
-0.00809654
-0.00788328
-0.00762902
-0.00733858
-0.00701777
-0.00667322
-0.00631232
-0.00594304
-0.00557373
-0.00521294
-0.00486912
-0.00455044
-0.00426445
-0.00401789
-0.00381642
-0.00366441
-0.00356481
-0.00351902
-0.00352685
-0.0035866
-0.00369511
-0.00384797
-0.00403971
-0.00426409
-0.00451438
-0.00478361
-0.00506486
-0.00535146
-0.00563716
-0.00591624
-0.00618357
-0.0064346
-0.00666533
-0.00687174
-0.00705004
-0.00720349
-0.00733792
0.00121435
0.000792097
0.000478651
0.000234135
1.98583e-05
-0.000170292
-0.000342222
-0.000503492
-0.000660854
-0.000820069
-0.000986084
-0.00116309
-0.00135455
-0.00156327
-0.00179147
-0.00204075
-0.00231223
-0.00260647
-0.00292353
-0.00326298
-0.00362386
-0.00400473
-0.0044036
-0.00481801
-0.00524496
-0.00568099
-0.0061222
-0.00656424
-0.00700242
-0.00743173
-0.00784696
-0.00824273
-0.00861362
-0.00895424
-0.00925939
-0.00952412
-0.00974387
-0.00991462
-0.0100329
-0.0100961
-0.0101024
-0.0100509
-0.00994162
-0.00977592
-0.00955614
-0.00928578
-0.00896955
-0.00861322
-0.00822364
-0.0078086
-0.00737665
-0.00693699
-0.00649918
-0.00607294
-0.00566783
-0.005293
-0.00495685
-0.00466679
-0.00442892
-0.00424785
-0.0041265
-0.00406605
-0.00406586
-0.00412358
-0.00423526
-0.00439559
-0.00459818
-0.00483583
-0.00510087
-0.00538547
-0.00568193
-0.00598289
-0.00628148
-0.00657144
-0.0068472
-0.00710383
-0.00733635
-0.00754013
-0.00771951
-0.00788181
0.00101504
0.000571855
0.000243868
-1.13242e-05
-0.000234941
-0.000433886
-0.000614777
-0.000785898
-0.000954614
-0.00112718
-0.00130895
-0.00150442
-0.00171734
-0.00195071
-0.00220689
-0.00248764
-0.00279414
-0.00312703
-0.00348638
-0.00387176
-0.00428217
-0.00471605
-0.00517131
-0.00564527
-0.00613472
-0.0066359
-0.00714456
-0.00765595
-0.00816491
-0.00866592
-0.00915317
-0.00962067
-0.0100623
-0.0104719
-0.0108436
-0.0111715
-0.0114503
-0.011675
-0.0118415
-0.0119461
-0.0119862
-0.0119602
-0.0118674
-0.0117084
-0.011485
-0.0112004
-0.0108589
-0.0104663
-0.0100294
-0.00955638
-0.00905636
-0.0085393
-0.00801583
-0.00749695
-0.00699374
-0.00651709
-0.00607727
-0.00568367
-0.00534443
-0.00506614
-0.00485361
-0.00470968
-0.00463515
-0.00462874
-0.00468727
-0.00480574
-0.00497773
-0.00519561
-0.00545101
-0.00573509
-0.00603897
-0.00635397
-0.00667189
-0.00698514
-0.00728688
-0.00757103
-0.0078315
-0.00806266
-0.0082699
-0.0084621
0.000754871
0.000292768
-4.84352e-05
-0.000313512
-0.000546051
-0.000753746
-0.00094393
-0.0011256
-0.00130672
-0.00149403
-0.00169328
-0.0019093
-0.00214607
-0.00240681
-0.00269404
-0.00300965
-0.00335492
-0.00373055
-0.00413665
-0.00457278
-0.00503789
-0.00553035
-0.00604792
-0.00658774
-0.00714635
-0.0077197
-0.00830316
-0.00889156
-0.00947926
-0.0100602
-0.0106279
-0.0111757
-0.0116968
-0.0121843
-0.0126312
-0.0130311
-0.0133775
-0.0136647
-0.0138873
-0.014041
-0.0141221
-0.0141281
-0.0140575
-0.0139102
-0.0136872
-0.0133912
-0.0130261
-0.0125974
-0.0121121
-0.0115783
-0.0110058
-0.0104051
-0.00978804
-0.00916678
-0.00855404
-0.00796252
-0.00740458
-0.00689182
-0.00643471
-0.00604215
-0.00572123
-0.00547686
-0.00531163
-0.00522577
-0.00521711
-0.00528129
-0.00541199
-0.0056013
-0.0058401
-0.00611851
-0.00642632
-0.00675337
-0.00708985
-0.0074266
-0.0077553
-0.0080685
-0.00835874
-0.00861923
-0.00885642
-0.00908082
0.000430047
-4.87281e-05
-0.000401699
-0.000675807
-0.000916822
-0.00113322
-0.00133305
-0.001526
-0.00172062
-0.00192411
-0.00214262
-0.00238128
-0.00264434
-0.00293521
-0.0032566
-0.00361052
-0.00399836
-0.00442089
-0.00487827
-0.00537005
-0.00589514
-0.00645184
-0.00703776
-0.00764987
-0.00828445
-0.00893713
-0.00960292
-0.0102762
-0.0109508
-0.0116201
-0.0122769
-0.0129139
-0.0135235
-0.0140979
-0.0146293
-0.0151101
-0.0155332
-0.0158915
-0.016179
-0.0163899
-0.0165198
-0.0165651
-0.0165234
-0.0163936
-0.016176
-0.0158726
-0.0154868
-0.0150237
-0.01449
-0.0138941
-0.0132459
-0.0125567
-0.0118392
-0.0111067
-0.0103737
-0.00965474
-0.00896434
-0.00831656
-0.00772445
-0.00719962
-0.00675178
-0.00638837
-0.00611427
-0.00593158
-0.00583961
-0.00583493
-0.00591164
-0.00606166
-0.00627522
-0.00654136
-0.00684841
-0.00718451
-0.00753806
-0.00789804
-0.00825435
-0.00859793
-0.00891973
-0.00921156
-0.00948096
-0.00974012
3.72639e-05
-0.000455729
-0.0008189
-0.00110113
-0.00135015
-0.00157522
-0.00178506
-0.00199004
-0.00219926
-0.00242039
-0.00265995
-0.00292339
-0.00321518
-0.00353898
-0.00389764
-0.00429333
-0.00472754
-0.00520114
-0.00571432
-0.00626666
-0.00685703
-0.00748364
-0.00814399
-0.00883483
-0.0095522
-0.0102914
-0.0110471
-0.0118131
-0.0125828
-0.0133489
-0.0141036
-0.0148387
-0.0155458
-0.0162162
-0.0168413
-0.0174124
-0.0179212
-0.0183598
-0.0187208
-0.0189977
-0.0191846
-0.019277
-0.0192715
-0.0191659
-0.0189598
-0.0186541
-0.0182517
-0.0177572
-0.0171768
-0.016519
-0.0157936
-0.0150126
-0.0141893
-0.0133384
-0.0124756
-0.0116176
-0.0107811
-0.00998276
-0.00923846
-0.00856283
-0.00796864
-0.0074663
-0.00706347
-0.00676466
-0.00657115
-0.00648089
-0.00648871
-0.00658667
-0.00676448
-0.00701007
-0.00731026
-0.00765134
-0.0080196
-0.00840191
-0.00878609
-0.00916116
-0.00951622
-0.00984143
-0.0101454
-0.0104422
-0.00042623
-0.000930794
-0.00130249
-0.00159188
-0.00184841
-0.00208209
-0.00230231
-0.00252007
-0.00274502
-0.00298526
-0.00324767
-0.00353799
-0.00386096
-0.00422043
-0.00461945
-0.00506033
-0.00554468
-0.00607345
-0.00664691
-0.00726464
-0.00792551
-0.00862763
-0.00936836
-0.0101443
-0.0109512
-0.011784
-0.0126369
-0.0135035
-0.0143763
-0.0152474
-0.0161085
-0.0169504
-0.0177639
-0.0185394
-0.0192671
-0.0199375
-0.0205411
-0.0210689
-0.0215124
-0.0218638
-0.0221162
-0.022264
-0.0223025
-0.0222286
-0.0220407
-0.021739
-0.0213254
-0.0208038
-0.0201801
-0.0194622
-0.0186602
-0.0177861
-0.0168538
-0.0158791
-0.014879
-0.013872
-0.0128771
-0.0119137
-0.0110006
-0.0101558
-0.00939539
-0.00873336
-0.00818064
-0.00774475
-0.00742949
-0.00723476
-0.00715661
-0.00718755
-0.00731701
-0.00753196
-0.00781762
-0.00815826
-0.00853788
-0.00894087
-0.00935269
-0.00976009
-0.01015
-0.0105106
-0.0108518
-0.0111893
-0.000962576
-0.00147589
-0.00185432
-0.00214986
-0.00241339
-0.00265561
-0.00288657
-0.00311787
-0.00335965
-0.00362044
-0.00390746
-0.00422674
-0.00458327
-0.00498111
-0.00542348
-0.00591287
-0.006451
-0.00703894
-0.007677
-0.00836481
-0.00910119
-0.00988421
-0.0107111
-0.0115782
-0.012481
-0.0134142
-0.0143716
-0.015346
-0.0163295
-0.0173137
-0.0182891
-0.0192461
-0.0201744
-0.0210633
-0.0219023
-0.0226806
-0.0233876
-0.0240131
-0.0245476
-0.0249821
-0.0253084
-0.0255197
-0.0256103
-0.0255759
-0.0254138
-0.0251231
-0.0247049
-0.0241621
-0.0235001
-0.0227262
-0.0218501
-0.0208839
-0.0198419
-0.0187404
-0.0175979
-0.0164344
-0.015271
-0.0141297
-0.0130325
-0.0120009
-0.0110549
-0.0102121
-0.00948754
-0.00889231
-0.0084334
-0.0081133
-0.00792988
-0.0078766
-0.00794297
-0.00811515
-0.00837684
-0.00871018
-0.00909662
-0.00951781
-0.00995641
-0.0103966
-0.0108227
-0.0112208
-0.0116018
-0.0119835
-0.00157324
-0.00209233
-0.00247564
-0.00277626
-0.00304622
-0.0032969
-0.00353894
-0.0037845
-0.00404419
-0.00432692
-0.00464025
-0.00499048
-0.00538285
-0.00582163
-0.00631023
-0.00685128
-0.00744667
-0.00809754
-0.0088043
-0.0095666
-0.0103833
-0.0112522
-0.0121707
-0.0131347
-0.0141395
-0.0151794
-0.0162476
-0.0173367
-0.018438
-0.0195424
-0.0206396
-0.0217192
-0.0227698
-0.02378
-0.0247379
-0.0256319
-0.0264501
-0.0271814
-0.0278147
-0.0283401
-0.0287483
-0.0290312
-0.0291818
-0.0291948
-0.0290664
-0.0287946
-0.0283792
-0.0278225
-0.0271287
-0.0263046
-0.0253593
-0.0243046
-0.0231548
-0.0219268
-0.0206397
-0.019315
-0.0179758
-0.0166464
-0.0153522
-0.014118
-0.0129678
-0.0119239
-0.0110054
-0.0102278
-0.00960211
-0.00913402
-0.008824
-0.0086671
-0.00865338
-0.00876855
-0.00899493
-0.00931245
-0.00969985
-0.0101357
-0.0105996
-0.0110726
-0.0115361
-0.0119736
-0.0123972
-0.0128266
-0.00225895
-0.00278072
-0.00316697
-0.00347157
-0.00374737
-0.00400638
-0.0042598
-0.00452029
-0.00479889
-0.00510488
-0.00544612
-0.00582919
-0.00625954
-0.00674167
-0.00727915
-0.00787481
-0.00853065
-0.00924794
-0.0100272
-0.010868
-0.0117693
-0.0127288
-0.0137437
-0.0148097
-0.0159219
-0.0170741
-0.0182592
-0.019469
-0.0206943
-0.0219251
-0.0231506
-0.0243592
-0.0255388
-0.0266768
-0.0277604
-0.0287767
-0.029713
-0.0305567
-0.0312959
-0.0319193
-0.0324165
-0.0327783
-0.0329964
-0.0330647
-0.032978
-0.0327331
-0.0323289
-0.0317664
-0.0310489
-0.0301823
-0.0291748
-0.0280378
-0.0267852
-0.0254339
-0.0240036
-0.0225167
-0.0209978
-0.0194736
-0.0179723
-0.0165223
-0.0151519
-0.0138877
-0.012754
-0.0117711
-0.0109546
-0.0103147
-0.00985498
-0.009573
-0.00946001
-0.00950176
-0.00967941
-0.00997082
-0.0103518
-0.0107977
-0.0112844
-0.0117897
-0.0122915
-0.0127703
-0.0132392
-0.0137202
-0.00301967
-0.00354094
-0.00392812
-0.00423555
-0.00451656
-0.00478372
-0.00504876
-0.00532478
-0.00562322
-0.00595368
-0.0063243
-0.0067419
-0.00721219
-0.00773983
-0.00832862
-0.00898151
-0.00970067
-0.0104875
-0.0113425
-0.0122655
-0.0132552
-0.0143094
-0.0154249
-0.0165974
-0.0178216
-0.0190909
-0.0203977
-0.0217333
-0.0230877
-0.0244502
-0.0258092
-0.0271521
-0.0284659
-0.0297369
-0.0309515
-0.0320955
-0.0331551
-0.0341168
-0.0349674
-0.0356946
-0.0362869
-0.036734
-0.0370268
-0.0371574
-0.0371199
-0.0369101
-0.0365256
-0.0359663
-0.0352343
-0.0343345
-0.0332741
-0.0320634
-0.0307159
-0.0292481
-0.0276795
-0.0260332
-0.024335
-0.0226134
-0.0208989
-0.0192236
-0.0176197
-0.0161187
-0.0147501
-0.0135398
-0.0125089
-0.0116725
-0.0110388
-0.0106086
-0.0103751
-0.0103248
-0.0104383
-0.0106913
-0.011057
-0.0115069
-0.0120132
-0.0125495
-0.0130901
-0.0136119
-0.0141289
-0.0146655
-0.00385458
-0.00437209
-0.00475816
-0.00506722
-0.00535276
-0.00562784
-0.00590466
-0.00619673
-0.0065158
-0.00687178
-0.00727306
-0.00772671
-0.00823862
-0.00881368
-0.00945584
-0.0101682
-0.0109532
-0.0118122
-0.0127458
-0.0137539
-0.0148352
-0.0159873
-0.017207
-0.0184896
-0.0198295
-0.0212198
-0.0226521
-0.0241173
-0.0256047
-0.0271027
-0.028599
-0.03008
-0.0315317
-0.0329396
-0.0342887
-0.035564
-0.0367507
-0.0378342
-0.0388003
-0.0396356
-0.0403277
-0.0408652
-0.041238
-0.0414374
-0.0414563
-0.0412893
-0.0409331
-0.0403862
-0.0396498
-0.0387272
-0.0376247
-0.0363515
-0.0349198
-0.0333454
-0.0316475
-0.0298489
-0.0279762
-0.026059
-0.0241301
-0.0222242
-0.0203778
-0.0186269
-0.0170066
-0.0155488
-0.0142808
-0.0132237
-0.012391
-0.0117879
-0.011411
-0.0112481
-0.0112797
-0.0114803
-0.0118199
-0.0122665
-0.0127878
-0.0133533
-0.0139326
-0.0144988
-0.0150667
-0.0156631
-0.00476204
-0.00527252
-0.0056554
-0.00596486
-0.00625418
-0.00653687
-0.00682555
-0.00713404
-0.00747439
-0.00785675
-0.00828977
-0.0087807
-0.00933564
-0.00995966
-0.0106569
-0.0114306
-0.0122833
-0.0132166
-0.014231
-0.0153266
-0.0165018
-0.0177544
-0.0190808
-0.0204762
-0.0219344
-0.0234482
-0.0250087
-0.026606
-0.0282288
-0.0298648
-0.0315006
-0.0331218
-0.0347135
-0.03626
-0.0377456
-0.0391541
-0.0404698
-0.0416771
-0.0427608
-0.0437069
-0.0445018
-0.0451333
-0.0455904
-0.0458636
-0.0459448
-0.0458277
-0.0455078
-0.0449827
-0.0442521
-0.0433182
-0.0421858
-0.0408627
-0.03936
-0.0376921
-0.0358772
-0.0339377
-0.0318999
-0.0297941
-0.0276545
-0.0255183
-0.0234251
-0.0214159
-0.019531
-0.0178087
-0.0162829
-0.0149818
-0.0139254
-0.0131244
-0.0125796
-0.0122818
-0.0122121
-0.012344
-0.012645
-0.0130794
-0.0136102
-0.014202
-0.0148195
-0.0154313
-0.0160527