/*--------------------------------*- C++ -*----------------------------------*\
  =========                 |
  \\      /  F ield         | OpenFOAM: The Open Source CFD Toolbox
   \\    /   O peration     | Website:  https://openfoam.org
    \\  /    A nd           | Version:  7
     \\/     M anipulation  |
\*---------------------------------------------------------------------------*/
FoamFile
{
    version     2.0;
    format      ascii;
    class       volScalarField;
    location    "0.75";
    object      p;
}
// * * * * * * * * * * * * * * * * * * * * * * * * * * * * * * * * * * * * * //

dimensions      [0 2 -2 0 0 0 0];

internalField   nonuniform List<scalar> 
6400
(
1.98694e-06
7.42595e-07
-0.000110553
-0.000328902
-0.000628114
-0.000984205
-0.00137603
-0.0017853
-0.00219669
-0.00259759
-0.00297771
-0.00332869
-0.00364386
-0.00391791
-0.00414671
-0.00432712
-0.00445681
-0.00453411
-0.00455791
-0.0045276
-0.00444295
-0.00430406
-0.00411133
-0.00386543
-0.00356723
-0.00321784
-0.00281856
-0.0023709
-0.00187656
-0.00133744
-0.000755664
-0.000133564
0.000526295
0.00122111
0.00194784
0.00270318
0.00348358
0.00428525
0.00510412
0.00593589
0.00677604
0.00761983
0.00846233
0.00929845
0.010123
0.0109306
0.011716
0.0124737
0.0131987
0.0138855
0.0145294
0.0151255
0.0156694
0.0161571
0.0165848
0.0169495
0.0172487
0.0174803
0.0176431
0.0177366
0.017761
0.0177174
0.0176077
0.0174347
0.0172021
0.0169147
0.0165781
0.0161991
0.0157853
0.0153457
0.0148903
0.0144303
0.0139784
0.0135487
0.0131567
0.0128195
0.0125544
0.0123787
0.012308
0.0123314
7.76021e-06
5.39743e-06
-9.34572e-05
-0.000279
-0.000529648
-0.000828239
-0.00115876
-0.00150648
-0.00185841
-0.00220342
-0.00253214
-0.00283679
-0.00311098
-0.00334953
-0.00354831
-0.00370408
-0.00381436
-0.00387732
-0.00389168
-0.0038566
-0.00377167
-0.00363681
-0.00345224
-0.00321844
-0.00293614
-0.00260629
-0.00223004
-0.00180876
-0.00134403
-0.000837599
-0.000291452
0.000292215
0.000910985
0.00156222
0.00224305
0.00295036
0.00368082
0.00443084
0.00519664
0.00597417
0.0067592
0.00754731
0.00833391
0.00911427
0.00988354
0.0106368
0.0113692
0.0120757
0.0127516
0.013392
0.0139924
0.0145486
0.0150564
0.0155123
0.015913
0.0162556
0.016538
0.0167584
0.016916
0.0170102
0.0170415
0.017011
0.0169207
0.0167733
0.0165724
0.0163225
0.0160291
0.0156983
0.0153374
0.0149547
0.0145592
0.0141611
0.0137717
0.013403
0.013068
0.0127803
0.0125529
0.012398
0.012331
0.0123548
0.000122045
0.000106206
6.55147e-06
-0.000164838
-0.00038986
-0.000654961
-0.000947345
-0.00125483
-0.00156637
-0.00187227
-0.00216416
-0.00243493
-0.00267866
-0.00289044
-0.00306631
-0.00320309
-0.0032983
-0.00335006
-0.00335701
-0.00331823
-0.00323319
-0.00310167
-0.0029238
-0.00269992
-0.00243064
-0.0021168
-0.00175942
-0.00135975
-0.000919235
-0.000439526
7.75258e-05
0.000629861
0.0012152
0.00183106
0.00247471
0.00314321
0.00383342
0.00454195
0.00526521
0.00599939
0.0067405
0.00748437
0.00822668
0.00896298
0.00968874
0.0103993
0.0110902
0.0117566
0.0123942
0.0129985
0.0135652
0.0140904
0.0145703
0.0150016
0.0153813
0.0157068
0.0159762
0.0161879
0.0163411
0.0164356
0.0164718
0.0164508
0.0163747
0.0162461
0.0160684
0.0158459
0.0155838
0.0152878
0.0149649
0.0146224
0.0142689
0.0139135
0.0135661
0.0132374
0.0129384
0.0126805
0.0124743
0.0123299
0.0122635
0.0122847
0.00034341
0.000293742
0.000178068
5.42224e-06
-0.00021113
-0.000460315
-0.000731417
-0.00101424
-0.00129942
-0.00157858
-0.00184439
-0.0020905
-0.00231155
-0.00250303
-0.00266127
-0.00278327
-0.00286666
-0.00290962
-0.00291079
-0.00286923
-0.00278435
-0.0026559
-0.0024839
-0.00226862
-0.00201058
-0.00171051
-0.00136934
-0.000988199
-0.000568429
-0.000111561
0.000380673
0.000906338
0.00146329
0.00204918
0.00266144
0.00329729
0.00395374
0.00462758
0.0053154
0.0060136
0.00671838
0.00742579
0.00813174
0.008832
0.00952227
0.0101982
0.0108554
0.0114895
0.0120963
0.0126715
0.0132113
0.0137117
0.0141694
0.0145811
0.0149441
0.0152559
0.0155148
0.0157194
0.015869
0.0159632
0.0160027
0.0159887
0.0159229
0.0158079
0.0156471
0.0154446
0.0152051
0.0149341
0.014638
0.0143238
0.013999
0.013672
0.0133518
0.0130476
0.0127692
0.0125263
0.0123283
0.0121842
0.0121084
0.0121108
0.000647491
0.000547787
0.000404022
0.000219632
1.05483e-06
-0.00024244
-0.000501879
-0.000768881
-0.00103565
-0.00129508
-0.00154087
-0.0017675
-0.00197024
-0.00214507
-0.00228866
-0.00239828
-0.00247174
-0.00250732
-0.00250373
-0.00246007
-0.00237574
-0.00225046
-0.0020842
-0.00187717
-0.0016298
-0.00134274
-0.00101683
-0.000653097
-0.000252767
0.000182745
0.000651829
0.00115268
0.00168328
0.00224143
0.00282472
0.0034305
0.00405597
0.00469807
0.00535359
0.00601908
0.00669097
0.00736547
0.0080387
0.00870665
0.00936523
0.0100103
0.0106376
0.0112431
0.0118227
0.0123724
0.0128884
0.0133672
0.0138054
0.0141999
0.0145483
0.0148482
0.0150979
0.0152961
0.0154421
0.0155359
0.0155778
0.015569
0.0155113
0.0154072
0.0152599
0.015073
0.0148513
0.0145998
0.0143243
0.0140313
0.0137277
0.0134212
0.0131195
0.0128309
0.012564
0.0123272
0.0121285
0.0119761
0.0118805
0.0118484
0.00101236
0.000852552
0.000671815
0.000467282
0.000238107
-8.17722e-06
-0.00026408
-0.000522885
-0.000778232
-0.00102424
-0.00125559
-0.00146761
-0.00165622
-0.00181794
-0.00194983
-0.00204949
-0.00211495
-0.00214466
-0.00213744
-0.00209245
-0.00200914
-0.0018872
-0.0017266
-0.00152749
-0.00129027
-0.00101547
-0.000703874
-0.000356404
2.58223e-05
0.000441505
0.000889155
0.00136709
0.00187344
0.00240615
0.00296292
0.00354131
0.00413863
0.00475201
0.00537839
0.0060145
0.00665694
0.00730212
0.0079463
0.00858567
0.00921632
0.00983425
0.0104355
0.011016
0.011572
0.0120996
0.0125952
0.0130553
0.0134768
0.0138567
0.0141925
0.0144821
0.0147238
0.0149164
0.0150592
0.0151521
0.0151956
0.0151907
0.0151391
0.0150432
0.014906
0.014731
0.0145224
0.0142851
0.0140245
0.0137464
0.0134573
0.0131637
0.0128729
0.0125921
0.0123287
0.0120899
0.0118829
0.0117147
0.0115907
0.0115132
0.00141862
0.00119308
0.000969338
0.00073819
0.000491505
0.00023538
-2.39235e-05
-0.00028117
-0.00053132
-0.000769604
-0.000991674
-0.00119365
-0.00137213
-0.00152417
-0.00164728
-0.0017394
-0.00179883
-0.00182423
-0.00181457
-0.00176909
-0.0016873
-0.00156894
-0.00141395
-0.00122248
-0.000994858
-0.000731579
-0.000433318
-0.000100921
0.000264594
0.000662041
0.00109005
0.00154707
0.00203136
0.002541
0.00307385
0.0036276
0.00419971
0.00478749
0.005388
0.00599816
0.0066147
0.0072342
0.00785308
0.00846769
0.00907424
0.00966891
0.0102478
0.0108072
0.0113432
0.0118522
0.0123307
0.0127752
0.0131827
0.0135504
0.0138758
0.0141569
0.0143919
0.0145798
0.0147197
0.0148116
0.0148559
0.0148535
0.0148062
0.014716
0.0145858
0.0144189
0.0142193
0.0139915
0.0137403
0.0134712
0.0131901
0.0129029
0.012616
0.0123358
0.0120687
0.011821
0.011599
0.0114087
0.0112501
0.0111204
0.00184929
0.00155538
0.00128482
0.00102242
0.000753032
0.000481575
0.000213318
-4.78009e-05
-0.000297936
-0.000533347
-0.000750579
-0.000946523
-0.00111843
-0.00126391
-0.00138092
-0.00146776
-0.00152304
-0.00154563
-0.00153467
-0.00148955
-0.00140984
-0.00129533
-0.00114598
-0.000961917
-0.000743442
-0.000490998
-0.00020519
0.000113223
0.000463323
0.000844029
0.00125409
0.00169207
0.00215637
0.0026452
0.00315657
0.00368829
0.00423799
0.0048031
0.00538085
0.00596829
0.00656229
0.00715957
0.00775671
0.00835014
0.00893623
0.00951128
0.0100715
0.0106133
0.0111328
0.0116265
0.0120909
0.0125228
0.0129191
0.013277
0.0135941
0.0138683
0.014098
0.014282
0.0144195
0.0145103
0.0145549
0.014554
0.0145093
0.0144227
0.0142968
0.0141349
0.0139404
0.0137177
0.0134712
0.013206
0.0129274
0.0126407
0.0123517
0.012066
0.0117893
0.0115268
0.0112842
0.011067
0.0108694
0.0106837
0.00228989
0.00192689
0.00160737
0.00131058
0.0010147
0.000723757
0.000442204
0.000172841
-8.15411e-05
-0.000318133
-0.000534312
-0.000727692
-0.000896153
-0.00103785
-0.00115118
-0.00123482
-0.00128768
-0.00130888
-0.00129775
-0.00125381
-0.00117674
-0.00106639
-0.000922735
-0.00074592
-0.000536208
-0.000294001
-1.98396e-05
0.000285596
0.000621482
0.000986839
0.00138053
0.00180125
0.00224751
0.00271766
0.00320985
0.00372203
0.00425196
0.0047972
0.00535512
0.0059229
0.00649755
0.0070759
0.00765463
0.00823031
0.0087994
0.00935827
0.00990326
0.0104307
0.010937
0.0114186
0.0118721
0.0122941
0.0126818
0.0130323
0.0133431
0.0136122
0.0138379
0.014019
0.0141546
0.0142446
0.0142891
0.0142889
0.0142455
0.0141606
0.0140368
0.0138769
0.0136844
0.0134631
0.0132172
0.0129514
0.0126704
0.0123792
0.012083
0.0117867
0.0114953
0.0112132
0.0109458
0.0106978
0.0104582
0.0102148
0.00272814
0.00229657
0.0019271
0.0015939
0.00126888
0.000955347
0.000657141
0.000376066
0.000113969
-0.000127171
-0.000345492
-0.00053929
-0.000707034
-0.000847391
-0.000959214
-0.00104154
-0.00109359
-0.00111472
-0.00110448
-0.00106253
-0.000988651
-0.000882771
-0.000744914
-0.000575219
-0.000373934
-0.000141424
0.00012183
0.000415223
0.00073802
0.00108934
0.00146816
0.00187329
0.00230337
0.00275687
0.00323208
0.00372708
0.00423975
0.00476779
0.00530869
0.00585975
0.00641808
0.00698064
0.00754419
0.0081054
0.00866078
0.00920681
0.00973985
0.0102563
0.0107526
0.0112251
0.0116706
0.0120856
0.0124672
0.0128126
0.0131192
0.013385
0.0136082
0.0137875
0.0139219
0.0140112
0.0140555
0.0140555
0.0140123
0.0139278
0.0138041
0.0136439
0.0134505
0.0132274
0.0129785
0.0127082
0.0124207
0.0121207
0.0118128
0.0115016
0.0111912
0.0108856
0.0105899
0.0103084
0.010025
0.00972313
0.00315357
0.00265462
0.00223505
0.00186427
0.00150832
0.00116997
0.000852567
0.000557065
0.000284478
3.60306e-05
-0.0001871
-0.000383838
-0.000553214
-0.000694378
-0.000806608
-0.000889308
-0.000941994
-0.000964288
-0.000955922
-0.000916715
-0.000846576
-0.000745493
-0.000613539
-0.000450869
-0.00025772
-3.44176e-05
0.000218609
0.000500827
0.000811585
0.0011501
0.00151546
0.00190659
0.00232225
0.00276104
0.00322136
0.00370143
0.00419925
0.00471264
0.0052392
0.00577634
0.00632128
0.00687106
0.00742253
0.00797241
0.0085173
0.00905369
0.009578
0.0100866
0.010576
0.0110425
0.0114829
0.0118936
0.0122718
0.0126144
0.012919
0.0131833
0.0134055
0.0135841
0.0137183
0.0138075
0.0138517
0.0138514
0.0138078
0.0137224
0.0135972
0.0134348
0.0132381
0.0130105
0.0127556
0.0124773
0.0121799
0.0118674
0.0115441
0.0112141
0.0108813
0.010549
0.0102223
0.0099051
0.0095767
0.00921664
0.00355714
0.0029924
0.00252311
0.00211419
0.0017262
0.00136148
0.00102301
0.000711001
0.000425738
0.000167763
-6.23728e-05
-0.000264165
-0.000437164
-0.000580983
-0.000695302
-0.000779869
-0.000834498
-0.000859058
-0.000853476
-0.000817726
-0.000751832
-0.000655863
-0.000529936
-0.000374222
-0.000188949
2.55879e-05
0.000269011
0.000540857
0.000840559
0.00116743
0.00152066
0.00189929
0.0023022
0.00272811
0.00317554
0.00364282
0.00412809
0.00462926
0.00514406
0.00566998
0.00620434
0.00674424
0.00728662
0.00782823
0.00836572
0.0088956
0.0094143
0.00991821
0.0104037
0.0108673
0.0113054
0.0117146
0.0120919
0.0124342
0.0127389
0.0130037
0.0132266
0.013406
0.0135409
0.0136306
0.013675
0.0136746
0.0136301
0.0135429
0.013415
0.0132488
0.0130469
0.0128124
0.0125489
0.0122599
0.0119494
0.0116212
0.0112793
0.0109275
0.0105693
0.0102078
0.00984773
0.00949333
0.00911931
0.00870154
0.00393093
0.00330215
0.00278387
0.00233672
0.00191607
0.00152397
0.00116311
0.000833055
0.000533422
0.000264157
2.52427e-05
-0.000183347
-0.000361644
-0.00050969
-0.000627545
-0.00071529
-0.000773019
-0.000800839
-0.000798865
-0.000767224
-0.000706054
-0.0006155
-0.000495724
-0.000346916
-0.000169293
3.68788e-05
0.000271271
0.000533489
0.000823047
0.00113935
0.00148171
0.00184925
0.00224099
0.00265576
0.00309219
0.00354874
0.00402365
0.00451494
0.00502044
0.00553774
0.00606421
0.00659705
0.00713322
0.00766954
0.00820265
0.00872908
0.00924525
0.00974751
0.0102322
0.0106957
0.0111345
0.011545
0.0119241
0.0122686
0.0125757
0.012843
0.0130684
0.0132501
0.013387
0.0134782
0.0135235
0.013523
0.0134774
0.0133881
0.0132567
0.0130853
0.0128766
0.0126334
0.0123591
0.012057
0.0117308
0.0113843
0.0110211
0.0106448
0.0102587
0.00986564
0.00947058
0.0090777
0.00865764
0.00818275
0.00426787
0.0035769
0.00301055
0.0025254
0.00207187
0.0016518
0.00126767
0.000918442
0.000603171
0.00032125
7.21407e-05
-0.000144665
-0.000329642
-0.000483238
-0.000605868
-0.000697923
-0.000759766
-0.000791728
-0.000794106
-0.00076717
-0.000711163
-0.000626306
-0.000512806
-0.000370867
-0.000200697
-2.53113e-06
0.000223352
0.000476627
0.00075689
0.00106365
0.00139629
0.00175409
0.00213615
0.00254141
0.00296865
0.00341641
0.00388305
0.00436671
0.00486528
0.00537644
0.00589765
0.00642614
0.00695893
0.00749284
0.00802454
0.00855053
0.0090672
0.00957087
0.0100578
0.0105243
0.0109667
0.0113813
0.0117649
0.0121141
0.0124261
0.0126981
0.012928
0.0131138
0.0132542
0.013348
0.0133949
0.0133949
0.0133485
0.0132567
0.0131212
0.0129438
0.0127271
0.0124737
0.0121868
0.0118696
0.0115256
0.0111585
0.0107716
0.0103686
0.0099525
0.00952608
0.00909446
0.00866209
0.00819564
0.00766417
0.0045616
0.00381026
0.00319689
0.0026742
0.00218786
0.00173955
0.00133161
0.000962456
0.000630624
0.000335013
7.46075e-05
-0.000151547
-0.000344338
-0.000504584
-0.000633035
-0.000730373
-0.00079721
-0.000834088
-0.000841477
-0.000819781
-0.000769341
-0.000690447
-0.000583345
-0.000448252
-0.000285364
-9.48842e-05
0.000122964
0.000367923
0.000639673
0.000937812
0.00126184
0.00161114
0.00198491
0.00238224
0.00280198
0.00324281
0.00370319
0.00418134
0.00467526
0.0051827
0.00570117
0.00622796
0.0067601
0.00729445
0.00782764
0.00835617
0.00887637
0.00938448
0.0098767
0.0103492
0.0107982
0.0112199
0.0116108
0.0119675
0.0122868
0.012566
0.0128026
0.0129944
0.0131398
0.0132377
0.0132874
0.0132886
0.0132418
0.0131478
0.013008
0.0128241
0.0125985
0.0123337
0.0120328
0.0116989
0.0113353
0.0109455
0.0105331
0.0101014
0.00965345
0.00919202
0.00872254
0.00824973
0.00773653
0.00714881
0.00480627
0.00399635
0.0033371
0.00277747
0.0022586
0.00178205
0.00135001
0.000960467
0.000611441
0.000301384
2.88445e-05
-0.000207547
-0.000409059
-0.000576858
-0.000712003
-0.000815449
-0.00088804
-0.000930512
-0.000943496
-0.000927519
-0.000883015
-0.000810332
-0.00070975
-0.000581494
-0.000425745
-0.000242668
-3.24332e-05
0.000204778
0.000468729
0.000759115
0.00107554
0.00141749
0.0017843
0.00217514
0.002589
0.00302466
0.00348067
0.00395537
0.00444682
0.00495286
0.00547104
0.00599869
0.00653288
0.00707044
0.00760801
0.00814203
0.00866877
0.00918439
0.00968497
0.0101665
0.0106252
0.011057
0.0114581
0.0118252
0.0121546
0.0124435
0.0126892
0.0128891
0.0130417
0.0131453
0.0131991
0.0132027
0.0131562
0.0130604
0.0129164
0.0127258
0.0124908
0.0122139
0.0118979
0.0115458
0.0111612
0.0107472
0.0103075
0.00984542
0.009364
0.00886611
0.00835753
0.00784337
0.00728295
0.00663902
0.00499647
0.0041297
0.00342573
0.00282987
0.00227891
0.00177429
0.00131812
0.000907937
0.000541318
0.000216291
-6.89993e-05
-0.000316307
-0.000527257
-0.000703337
-0.000845899
-0.000956147
-0.00103514
-0.0010838
-0.00110289
-0.00109306
-0.00105483
-0.000988592
-0.000894654
-0.000773244
-0.000624519
-0.000448606
-0.000245612
-1.56435e-05
0.000241154
0.000524571
0.000834321
0.00117
0.00153105
0.00191677
0.00232626
0.0027584
0.00321186
0.00368506
0.00417614
0.004683
0.00520327
0.00573429
0.00627315
0.00681667
0.00736147
0.00790391
0.00844022
0.00896643
0.00947851
0.00997233
0.0104438
0.0108888
0.0113034
0.0116837
0.0120262
0.0123276
0.0125849
0.0127955
0.0129573
0.0130685
0.0131282
0.0131355
0.0130905
0.0129937
0.0128459
0.0126488
0.0124042
0.0121146
0.0117827
0.0114117
0.0110047
0.0105652
0.0100967
0.00960273
0.0090864
0.00855067
0.00800178
0.00744532
0.00683704
0.00613661
0.0051271
0.00420517
0.00345764
0.00282635
0.00224384
0.00171148
0.0012313
0.000800419
0.000415997
7.56671e-05
-0.000222804
-0.000481534
-0.000702476
-0.000887423
-0.00103799
-0.00115562
-0.00124157
-0.00129692
-0.00132258
-0.00131929
-0.00128763
-0.00122806
-0.0011409
-0.00102636
-0.000884585
-0.000715639
-0.000519569
-0.000296402
-4.6189e-05
0.000230963
0.000534875
0.000865256
0.00122167
0.00160354
0.00201006
0.00244025
0.00289286
0.0033664
0.00385912
0.00436897
0.00489362
0.00543045
0.00597655
0.00652874
0.00708359
0.00763741
0.00818632
0.00872626
0.00925302
0.00976233
0.0102499
0.0107114
0.0111426
0.0115394
0.0118981
0.012215
0.0124868
0.0127107
0.0128842
0.0130055
0.0130729
0.0130858
0.0130437
0.0129469
0.0127962
0.0125929
0.0123389
0.0120365
0.0116883
0.0112974
0.0108672
0.010401
0.0099025
0.00937532
0.00882271
0.00824782
0.00765742
0.0070576
0.00640059
0.005643
0.00519335
0.00421787
0.00342796
0.00276207
0.00214864
0.00158899
0.00108505
0.000633554
0.000231272
-0.000124538
-0.00043647
-0.000706977
-0.000938329
-0.0011326
-0.00129165
-0.00141714
-0.00151051
-0.001573
-0.00160563
-0.00160923
-0.00158445
-0.00153177
-0.00145152
-0.00134392
-0.00120904
-0.00104691
-0.000857511
-0.000640772
-0.000396654
-0.000125153
0.000173667
0.000499631
0.000852429
0.00123159
0.00163646
0.00206614
0.0025195
0.00299515
0.00349142
0.00400631
0.00453757
0.00508258
0.00563845
0.00620199
0.0067697
0.00733784
0.00790242
0.00845924
0.00900396
0.0095321
0.0100391
0.0105205
0.0109718
0.0113886
0.0117668
0.0121024
0.0123919
0.0126321
0.0128202
0.012954
0.0130316
0.013052
0.0130146
0.0129193
0.0127667
0.0125581
0.0122952
0.01198
0.0116154
0.0112043
0.0107501
0.0102563
0.0097267
0.00916507
0.0085749
0.00795955
0.00732637
0.006682
0.00597515
0.00515934
0.00519064
0.00416314
0.00333202
0.0026324
0.00198876
0.00140232
0.000874975
0.000403071
-1.70047e-05
-0.000388348
-0.000713895
-0.000996417
-0.00123848
-0.00144242
-0.00161034
-0.00174409
-0.00184529
-0.00191531
-0.00195527
-0.00196609
-0.00194847
-0.00190291
-0.00182973
-0.00172913
-0.00160116
-0.00144576
-0.00126284
-0.00105223
-0.000813799
-0.000547427
-0.000253056
6.92653e-05
0.000419351
0.00079686
0.00120126
0.00163177
0.00208737
0.00256678
0.0030684
0.00359033
0.00413032
0.00468583
0.00525395
0.00583146
0.00641484
0.00700025
0.00758359
0.00816053
0.00872655
0.00927696
0.00980701
0.0103119
0.0107868
0.0112272
0.0116285
0.0119864
0.012297
0.0125568
0.0127626
0.0129118
0.0130024
0.0130328
0.0130021
0.0129102
0.0127573
0.0125445
0.0122734
0.011946
0.011565
0.0111335
0.0106548
0.0101327
0.00957106
0.00897388
0.00834489
0.00768775
0.00701042
0.00632017
0.0055621
0.00468658
0.00511452
0.00403652
0.00316534
0.00243287
0.00175976
0.00114713
0.000596811
0.000104788
-0.000332919
-0.000719749
-0.00105896
-0.00135364
-0.00160662
-0.0018205
-0.00199759
-0.00213994
-0.00224931
-0.0023272
-0.00237483
-0.00239319
-0.002383
-0.00234479
-0.00227888
-0.00218541
-0.00206438
-0.00191568
-0.00173911
-0.00153443
-0.00130137
-0.0010397
-0.000749241
-0.000429904
-8.17397e-05
0.000295042
0.000700034
0.0011326
0.00159182
0.00207653
0.00258521
0.00311603
0.00366683
0.00423506
0.00481784
0.00541194
0.00601376
0.00661939
0.00722463
0.00782497
0.00841572
0.00899197
0.00954872
0.0100809
0.0105833
0.0110511
0.0114793
0.0118634
0.0121989
0.0124819
0.0127089
0.0128769
0.0129834
0.0130266
0.0130053
0.0129189
0.0127675
0.0125521
0.0122739
0.0119351
0.0115382
0.0110863
0.0105829
0.0100319
0.0094374
0.00880362
0.00813459
0.0074343
0.00671136
0.00597371
0.00516276
0.00422564
0.00496074
0.00383369
0.0029236
0.0021592
0.00145737
0.000819192
0.000246387
-0.000265396
-0.000720497
-0.00112269
-0.00147554
-0.00178243
-0.00204647
-0.00227048
-0.00245698
-0.0026082
-0.00272605
-0.00281213
-0.00286775
-0.00289395
-0.00289149
-0.00286088
-0.00280244
-0.00271626
-0.00260228
-0.00246031
-0.00229006
-0.00209117
-0.00186327
-0.00160599
-0.00131902
-0.00100213
-0.00065522
-0.000278368
0.000128162
0.000563862
0.00102796
0.00151937
0.0020367
0.0025782
0.00314175
0.00372487
0.00432467
0.0049379
0.00556092
0.00618974
0.00682002
0.00744712
0.00806612
0.0086719
0.00925917
0.00982252
0.0103565
0.0108558
0.0113152
0.0117295
0.0120939
0.0124042
0.0126563
0.0128468
0.0129727
0.013032
0.0130229
0.0129447
0.0127972
0.0125809
0.0122972
0.0119481
0.011536
0.011064
0.010536
0.00995569
0.00932761
0.00865628
0.007946
0.00720112
0.00643098
0.00564423
0.00477845
0.0037774
0.00472512
0.00355048
0.00260261
0.00180719
0.00107745
0.00041438
-0.000180368
-0.000711496
-0.0011837
-0.00160106
-0.00196746
-0.00228656
-0.00256173
-0.00279601
-0.00299213
-0.00315246
-0.00327905
-0.00337361
-0.00343753
-0.00347187
-0.00347743
-0.00345471
-0.00340398
-0.0033253
-0.00321853
-0.0030834
-0.00291951
-0.00272639
-0.00250354
-0.00225045
-0.00196666
-0.00165181
-0.00130563
-0.000928053
-0.000519187
-7.93992e-05
0.00039067
0.000890071
0.00141751
0.00197134
0.00254951
0.00314957
0.00376868
0.00440355
0.00505051
0.00570547
0.00636398
0.00702122
0.00767209
0.0083112
0.00893298
0.00953169
0.0101015
0.0106367
0.0111316
0.0115806
0.0119785
0.0123205
0.0126019
0.012819
0.0129683
0.0130473
0.0130539
0.0129869
0.0128459
0.0126312
0.0123439
0.0119858
0.0115596
0.0110683
0.0105156
0.00990593
0.00924373
0.00853394
0.0077812
0.00699026
0.00617121
0.00533346
0.0044106
0.00334285
0.00440363
0.00318281
0.0021983
0.00137279
0.000615958
-7.13068e-05
-0.000687426
-0.00123744
-0.0017264
-0.00215869
-0.00253851
-0.00286977
-0.00315609
-0.00340074
-0.00360663
-0.00377628
-0.00391187
-0.00401519
-0.00408771
-0.00413051
-0.0041444
-0.00412987
-0.00408715
-0.00401624
-0.00391691
-0.00378881
-0.00363142
-0.00344414
-0.00322633
-0.00297736
-0.00269659
-0.00238349
-0.00203766
-0.00165885
-0.001247
-0.000802327
-0.000325323
0.0001832
0.000722076
0.00128975
0.00188427
0.00250325
0.00314385
0.00380281
0.00447639
0.00516044
0.00585037
0.00654121
0.00722764
0.00790401
0.00856444
0.00920285
0.00981305
0.0103888
0.010924
0.0114125
0.0118487
0.0122271
0.0125426
0.0127909
0.0129681
0.0130709
0.013097
0.0130448
0.0129135
0.0127031
0.0124145
0.0120494
0.0116103
0.0111005
0.0105238
0.00988469
0.00918795
0.00843886
0.00764246
0.0068039
0.00593411
0.00504326
0.00406076
0.00292316
0.00399232
0.00272675
0.00170674
0.000852075
6.89693e-05
-0.000641775
-0.00127867
-0.00184709
-0.00235242
-0.00279938
-0.00319242
-0.00353576
-0.00383323
-0.00408831
-0.00430409
-0.00448325
-0.00462807
-0.00474044
-0.00482185
-0.00487344
-0.00489601
-0.00489001
-0.00485563
-0.00479281
-0.00470123
-0.00458042
-0.00442976
-0.00424851
-0.00403587
-0.00379106
-0.00351328
-0.00320182
-0.0028561
-0.0024757
-0.00206039
-0.0016102
-0.00112547
-0.000606847
-5.53674e-05
0.00052754
0.00114002
0.00177975
0.00244395
0.00312934
0.00383218
0.00454823
0.00527279
0.00600072
0.00672648
0.00744416
0.00814754
0.00883019
0.00948549
0.0101068
0.0106873
0.0112206
0.0117003
0.0121203
0.0124752
0.0127597
0.0129696
0.013101
0.013151
0.0131177
0.0129996
0.0127967
0.0125096
0.0121398
0.0116897
0.0111627
0.0105626
0.00989422
0.00916266
0.00837353
0.00753227
0.00664449
0.00572198
0.00477574
0.00373077
0.00251969
0.00348735
0.00217846
0.00112408
0.0002412
-0.000567336
-0.00130083
-0.00195788
-0.0025442
-0.0030655
-0.00352681
-0.00393288
-0.00428816
-0.00459675
-0.0048623
-0.00508809
-0.00527693
-0.00543121
-0.00555289
-0.00564351
-0.00570423
-0.00573583
-0.00573875
-0.00571311
-0.00565876
-0.00557531
-0.00546216
-0.00531856
-0.00514362
-0.00493641
-0.00469595
-0.00442127
-0.00411148
-0.00376581
-0.00338363
-0.00296455
-0.00250839
-0.00201531
-0.0014858
-0.000920714
-0.000321359
0.000310527
0.000972718
0.00166249
0.00237659
0.00311125
0.00386218
0.00462456
0.00539309
0.00616201
0.00692514
0.00767593
0.00840755
0.00911295
0.00978494
0.0104163
0.0109999
0.0115287
0.0119962
0.012396
0.0127224
0.0129704
0.0131356
0.0132145
0.0132046
0.0131041
0.0129125
0.0126301
0.0122582
0.0117993
0.0112566
0.0106342
0.00993703
0.00917052
0.00834069
0.0074534
0.00651475
0.00553742
0.00453331
0.00342272
0.00213415
0.00288498
0.0015342
0.000446605
-0.000463552
-0.00129667
-0.00205217
-0.00272874
-0.00333243
-0.00386929
-0.00434463
-0.00476349
-0.00513058
-0.00545022
-0.00572627
-0.00596216
-0.00616083
-0.00632479
-0.00645605
-0.0065562
-0.00662641
-0.00666744
-0.00667969
-0.00666322
-0.0066178
-0.00654293
-0.00643789
-0.00630179
-0.00613359
-0.00593217
-0.00569639
-0.00542508
-0.00511716
-0.00477164
-0.0043877
-0.00396471
-0.00350232
-0.00300046
-0.00245945
-0.00187995
-0.00126311
-0.000610535
7.5667e-05
0.000792846
0.0015378
0.00230675
0.00309536
0.00389872
0.00471137
0.00552734
0.00634016
0.00714295
0.00792847
0.0086892
0.00941742
0.0101053
0.0107452
0.0113293
0.0118503
0.0123012
0.0126757
0.0129679
0.0131727
0.0132861
0.0133048
0.0132267
0.0130506
0.0127767
0.012406
0.0119409
0.0113845
0.0107412
0.0100159
0.0092145
0.00834342
0.00740897
0.00641774
0.00538339
0.00431874
0.00313909
0.00176859
0.00218156
0.00079034
-0.000329312
-0.00126579
-0.00212265
-0.0028994
-0.00359485
-0.00421537
-0.00476734
-0.00525637
-0.00568777
-0.00606651
-0.00639712
-0.00668367
-0.00692974
-0.0071384
-0.00731224
-0.00745336
-0.00756337
-0.00764344
-0.00769432
-0.00771636
-0.00770956
-0.00767358
-0.00760783
-0.00751144
-0.00738338
-0.00722244
-0.00702733
-0.0067967
-0.00652919
-0.00622349
-0.00587841
-0.00549289
-0.00506607
-0.00459738
-0.00408653
-0.00353361
-0.0029391
-0.00230394
-0.00162958
-0.000917995
-0.000171731
0.000606075
0.00141167
0.00224069
0.00308814
0.00394841
0.00481533
0.00568215
0.00654165
0.00738616
0.00820768
0.00899793
0.0097485
0.0104509
0.0110968
0.0116781
0.012187
0.0126162
0.0129592
0.0132101
0.0133641
0.0134173
0.013367
0.0132115
0.0129504
0.0125847
0.0121165
0.0115489
0.0108862
0.0101339
0.00929791
0.00838518
0.00740249
0.00635696
0.00526327
0.00413523
0.00288282
0.00142554
0.00137359
-5.66296e-05
-0.00120718
-0.00216903
-0.00304876
-0.00384602
-0.0045597
-0.00519651
-0.00576314
-0.0062655
-0.00670918
-0.00709938
-0.00744087
-0.00773789
-0.00799419
-0.00821297
-0.0083969
-0.00854814
-0.00866833
-0.00875866
-0.00881983
-0.00885216
-0.00885556
-0.00882961
-0.00877358
-0.00868647
-0.00856709
-0.00841406
-0.0082259
-0.00800104
-0.00773792
-0.00743499
-0.00709081
-0.00670409
-0.00627374
-0.0057989
-0.00527906
-0.00471405
-0.00410413
-0.00345004
-0.00275302
-0.00201488
-0.00123804
-0.000425545
0.000418906
0.00129094
0.0021855
0.00309685
0.00401862
0.0049438
0.00586481
0.00677357
0.00766156
0.00851992
0.00933957
0.0101113
0.010826
0.0114748
0.0120489
0.0125402
0.0129413
0.0132454
0.013447
0.0135412
0.0135248
0.0133954
0.0131523
0.012796
0.0123283
0.0117523
0.0110726
0.0102945
0.00942446
0.00846986
0.00743793
0.00633638
0.00518095
0.0039865
0.00265734
0.00110801
0.000457645
-0.00101011
-0.0021904
-0.00317666
-0.00407842
-0.00489543
-0.00562669
-0.00627923
-0.00686006
-0.00737538
-0.00783104
-0.0082325
-0.00858474
-0.0088922
-0.00915877
-0.00938778
-0.00958198
-0.0097436
-0.0098743
-0.00997528
-0.0100472
-0.0100903
-0.0101045
-0.0100892
-0.0100436
-0.00996647
-0.00985652
-0.00971216
-0.00953171
-0.00931339
-0.0090554
-0.00875596
-0.00841335
-0.00802603
-0.00759262
-0.00711201
-0.0065834
-0.00600637
-0.0053809
-0.00470749
-0.00398716
-0.00322153
-0.00241285
-0.00156402
-0.000678685
0.000238818
0.00118339
0.00214921
0.00312971
0.00411762
0.00510502
0.00608341
0.00704373
0.00797652
0.00887202
0.00972025
0.0105112
0.0112351
0.0118823
0.0124437
0.0129109
0.0132761
0.0135328
0.0136755
0.0136998
0.013603
0.0133836
0.0130416
0.0125787
0.0119979
0.0113036
0.0105015
0.00959832
0.00860182
0.00751978
0.00636049
0.00514086
0.00387684
0.00246667
0.00081964
-0.000569539
-0.00207336
-0.00328225
-0.00429199
-0.00521492
-0.00605092
-0.00679911
-0.00746682
-0.00806138
-0.00858926
-0.00905659
-0.00946909
-0.00983193
-0.0101497
-0.0104266
-0.0106659
-0.0108705
-0.0110428
-0.0111843
-0.0112963
-0.0113795
-0.0114339
-0.0114595
-0.0114555
-0.011421
-0.0113547
-0.011255
-0.0111202
-0.0109483
-0.0107374
-0.0104855
-0.0101904
-0.00985024
-0.00946311
-0.00902737
-0.0085416
-0.00800469
-0.00741594
-0.00677503
-0.00608219
-0.00533817
-0.00454435
-0.00370278
-0.00281622
-0.00188816
-0.000922913
7.44425e-05
0.00109799
0.00214102
0.00319602
0.00425473
0.00530822
0.0063469
0.00736069
0.00833909
0.00927132
0.0101465
0.0109538
0.0116826
0.0123227
0.0128646
0.0132995
0.0136198
0.013819
0.0138918
0.0138347
0.0136454
0.0133237
0.0128706
0.012289
0.0115833
0.0107593
0.00982416
0.00878599
0.00765311
0.00643444
0.0051481
0.00381119
0.00231551
0.000564716
-0.00171111
-0.00324954
-0.00448589
-0.00551817
-0.00646145
-0.0073157
-0.00808016
-0.00876247
-0.00937026
-0.00991029
-0.010389
-0.0108122
-0.0111855
-0.0115135
-0.0118006
-0.0120502
-0.0122654
-0.0124485
-0.0126011
-0.0127245
-0.0128193
-0.0128857
-0.0129233
-0.0129313
-0.0129087
-0.012854
-0.0127655
-0.0126411
-0.0124789
-0.0122765
-0.0120317
-0.011742
-0.0114053
-0.0110194
-0.0105823
-0.0100922
-0.00954769
-0.00894778
-0.00829182
-0.00757969
-0.00681187
-0.00598945
-0.00511424
-0.00418878
-0.00321642
-0.00220136
-0.00114865
-6.42502e-05
0.001045
0.00217138
0.00330632
0.00444044
0.00556364
0.00666519
0.00773383
0.00875794
0.00972566
0.0106251
0.0114446
0.0121727
0.0127988
0.0133128
0.013706
0.0139706
0.0141005
0.0140911
0.0139394
0.0136444
0.0132068
0.0126292
0.0119159
0.0110727
0.0101072
0.00902792
0.00784368
0.00656405
0.00520846
0.00379526
0.0022093
0.000348297
-0.00297005
-0.00454168
-0.00580435
-0.00685828
-0.00782108
-0.00869285
-0.00947293
-0.0101693
-0.0107898
-0.0113415
-0.0118311
-0.0122648
-0.0126482
-0.0129864
-0.0132835
-0.0135435
-0.0137693
-0.0139633
-0.0141273
-0.0142624
-0.0143693
-0.0144481
-0.0144983
-0.014519
-0.0145091
-0.0144669
-0.0143905
-0.0142778
-0.0141263
-0.0139335
-0.013697
-0.013414
-0.013082
-0.0126985
-0.0122611
-0.0117677
-0.0112167
-0.0106065
-0.0099361
-0.00920514
-0.0084137
-0.00756255
-0.00665322
-0.005688
-0.00467003
-0.00360335
-0.00249295
-0.00134478
-0.00016576
0.00103619
0.00225221
0.00347252
0.00468648
0.00588271
0.00704919
0.00817338
0.00924241
0.0102433
0.0111631
0.0119893
0.0127097
0.013313
0.0137892
0.0141292
0.0143257
0.0143729
0.0142671
0.0140064
0.0135908
0.0130227
0.0123062
0.0114472
0.0104534
0.00933383
0.00809794
0.00675592
0.00532856
0.00383555
0.00215434
0.000176286
-0.00434921
-0.00595264
-0.00724058
-0.00831526
-0.0092968
-0.0101854
-0.0109804
-0.0116902
-0.0123229
-0.0128858
-0.013386
-0.0138297
-0.014223
-0.0145709
-0.014878
-0.0151482
-0.0153845