/*--------------------------------*- C++ -*----------------------------------*\
  =========                 |
  \\      /  F ield         | OpenFOAM: The Open Source CFD Toolbox
   \\    /   O peration     | Website:  https://openfoam.org
    \\  /    A nd           | Version:  7
     \\/     M anipulation  |
\*---------------------------------------------------------------------------*/
FoamFile
{
    version     2.0;
    format      ascii;
    class       volVectorField;
    location    "0.75";
    object      U;
}
// * * * * * * * * * * * * * * * * * * * * * * * * * * * * * * * * * * * * * //

dimensions      [0 1 -1 0 0 0 0];

internalField   nonuniform List<vector> 
6400
(
(7.71507e-06 -7.85484e-06 0)
(3.07483e-05 -1.46953e-05 0)
(5.9394e-05 -1.37672e-05 0)
(7.81009e-05 -8.71829e-06 0)
(7.88616e-05 -1.95019e-06 0)
(5.8838e-05 5.31131e-06 0)
(1.73474e-05 1.24573e-05 0)
(-4.5152e-05 1.91898e-05 0)
(-0.000127527 2.53693e-05 0)
(-0.000228267 3.09362e-05 0)
(-0.000345671 3.58757e-05 0)
(-0.00047795 4.0197e-05 0)
(-0.000623299 4.39215e-05 0)
(-0.000779934 4.70778e-05 0)
(-0.00094612 4.96964e-05 0)
(-0.00112019 5.1808e-05 0)
(-0.00130054 5.34434e-05 0)
(-0.00148566 5.46322e-05 0)
(-0.00167409 5.54022e-05 0)
(-0.00186448 5.57788e-05 0)
(-0.00205552 5.57846e-05 0)
(-0.00224597 5.54406e-05 0)
(-0.00243466 5.47655e-05 0)
(-0.00262047 5.3775e-05 0)
(-0.00280232 5.24834e-05 0)
(-0.00297918 5.0903e-05 0)
(-0.00315007 4.90448e-05 0)
(-0.00331405 4.69186e-05 0)
(-0.00347018 4.45334e-05 0)
(-0.0036176 4.18978e-05 0)
(-0.00375545 3.90202e-05 0)
(-0.00388292 3.59092e-05 0)
(-0.00399923 3.25743e-05 0)
(-0.00410365 2.90259e-05 0)
(-0.00419546 2.52752e-05 0)
(-0.00427403 2.13354e-05 0)
(-0.00433874 1.72211e-05 0)
(-0.00438907 1.29489e-05 0)
(-0.00442451 8.5374e-06 0)
(-0.00444468 4.00778e-06 0)
(-0.00444923 -6.16122e-07 0)
(-0.00443793 -5.30837e-06 0)
(-0.00441061 -1.00407e-05 0)
(-0.00436723 -1.47826e-05 0)
(-0.00430785 -1.95012e-05 0)
(-0.00423262 -2.41618e-05 0)
(-0.00414184 -2.87278e-05 0)
(-0.00403591 -3.31611e-05 0)
(-0.00391538 -3.74223e-05 0)
(-0.0037809 -4.14714e-05 0)
(-0.00363329 -4.5268e-05 0)
(-0.00347345 -4.87723e-05 0)
(-0.00330246 -5.19448e-05 0)
(-0.0031215 -5.47473e-05 0)
(-0.00293186 -5.7143e-05 0)
(-0.00273496 -5.90975e-05 0)
(-0.00253232 -6.05796e-05 0)
(-0.00232555 -6.15609e-05 0)
(-0.00211636 -6.20164e-05 0)
(-0.0019065 -6.19255e-05 0)
(-0.00169781 -6.12722e-05 0)
(-0.00149213 -6.00455e-05 0)
(-0.00129135 -5.82392e-05 0)
(-0.00109735 -5.58519e-05 0)
(-0.000912022 -5.28879e-05 0)
(-0.000737184 -4.93569e-05 0)
(-0.000574622 -4.52747e-05 0)
(-0.000426034 -4.06633e-05 0)
(-0.000293015 -3.55518e-05 0)
(-0.000177021 -2.99778e-05 0)
(-7.9333e-05 -2.39906e-05 0)
(-1.00621e-06 -1.76561e-05 0)
(5.72016e-05 -1.10668e-05 0)
(9.49384e-05 -4.36149e-06 0)
(0.000112435 2.23458e-06 0)
(0.000110784 8.34182e-06 0)
(9.23369e-05 1.33024e-05 0)
(6.15672e-05 1.59253e-05 0)
(2.76486e-05 1.41276e-05 0)
(5.73246e-06 5.73666e-06 0)
(1.47164e-05 -3.10677e-05 0)
(5.07873e-05 -5.0787e-05 0)
(8.46175e-05 -4.02732e-05 0)
(9.02111e-05 -1.236e-05 0)
(5.23887e-05 2.43853e-05 0)
(-3.59052e-05 6.47609e-05 0)
(-0.000177433 0.000105658 0)
(-0.000372158 0.000145237 0)
(-0.000618156 0.000182425 0)
(-0.000912287 0.000216617 0)
(-0.00125068 0.000247494 0)
(-0.00162902 0.000274918 0)
(-0.00204281 0.000298871 0)
(-0.00248747 0.000319402 0)
(-0.00295845 0.00033661 0)
(-0.00345128 0.000350616 0)
(-0.00396164 0.000361558 0)
(-0.00448535 0.000369578 0)
(-0.00501841 0.000374818 0)
(-0.00555698 0.000377415 0)
(-0.0060974 0.000377498 0)
(-0.00663617 0.00037519 0)
(-0.00716992 0.0003706 0)
(-0.00769545 0.000363831 0)
(-0.00820969 0.000354975 0)
(-0.00870968 0.000344118 0)
(-0.00919261 0.000331336 0)
(-0.00965573 0.000316702 0)
(-0.0100964 0.000300286 0)
(-0.0105122 0.000282155 0)
(-0.0109007 0.000262377 0)
(-0.0112594 0.000241023 0)
(-0.0115864 0.000218167 0)
(-0.0118794 0.00019389 0)
(-0.0121366 0.00016828 0)
(-0.0123562 0.000141437 0)
(-0.0125364 0.000113469 0)
(-0.0126758 8.44971e-05 0)
(-0.0127732 5.46554e-05 0)
(-0.0128273 2.40919e-05 0)
(-0.0128375 -7.03069e-06 0)
(-0.012803 -3.85355e-05 0)
(-0.0127235 -7.02319e-05 0)
(-0.0125989 -0.000101916 0)
(-0.0124295 -0.000133369 0)
(-0.0122157 -0.000164364 0)
(-0.0119586 -0.000194662 0)
(-0.0116591 -0.000224017 0)
(-0.011319 -0.000252175 0)
(-0.0109401 -0.000278881 0)
(-0.0105247 -0.000303879 0)
(-0.0100754 -0.000326914 0)
(-0.00959512 -0.000347737 0)
(-0.00908721 -0.00036611 0)
(-0.00855528 -0.000381802 0)
(-0.00800324 -0.000394602 0)
(-0.0074353 -0.000404314 0)
(-0.0068559 -0.000410768 0)
(-0.00626971 -0.000413813 0)
(-0.00568156 -0.000413329 0)
(-0.00509644 -0.000409227 0)
(-0.00451943 -0.000401447 0)
(-0.00395563 -0.000389967 0)
(-0.00341016 -0.000374801 0)
(-0.00288806 -0.000356002 0)
(-0.00239427 -0.000333663 0)
(-0.00193352 -0.000307926 0)
(-0.00151028 -0.000278982 0)
(-0.0011287 -0.000247081 0)
(-0.000792463 -0.000212542 0)
(-0.000504708 -0.00017578 0)
(-0.000267859 -0.000137331 0)
(-8.3423e-05 -9.79119e-05 0)
(4.82889e-05 -5.85097e-05 0)
(0.000128575 -2.0534e-05 0)
(0.000160907 1.39367e-05 0)
(0.000151592 4.17765e-05 0)
(0.00011084 5.82229e-05 0)
(5.6162e-05 5.61885e-05 0)
(1.40765e-05 2.7598e-05 0)
(1.39558e-05 -5.98582e-05 0)
(4.0826e-05 -8.47701e-05 0)
(4.86712e-05 -4.79446e-05 0)
(9.0432e-06 2.62538e-05 0)
(-9.55616e-05 0.000121439 0)
(-0.000274289 0.000226509 0)
(-0.000531209 0.000334097 0)
(-0.000866728 0.000439427 0)
(-0.00127858 0.00053946 0)
(-0.00176268 0.000632308 0)
(-0.00231369 0.000716851 0)
(-0.00292552 0.000792484 0)
(-0.00359163 0.000858953 0)
(-0.00430524 0.000916236 0)
(-0.00505953 0.000964467 0)
(-0.00584773 0.00100388 0)
(-0.00666318 0.00103477 0)
(-0.00749944 0.00105748 0)
(-0.00835024 0.00107233 0)
(-0.00920956 0.00107967 0)
(-0.0100716 0.00107985 0)
(-0.0109308 0.00107316 0)
(-0.0117819 0.00105992 0)
(-0.0126196 0.0010404 0)
(-0.0134391 0.00101487 0)
(-0.0142357 0.000983551 0)
(-0.0150048 0.000946684 0)
(-0.015742 0.000904479 0)
(-0.0164432 0.000857144 0)
(-0.0171044 0.000804886 0)
(-0.0177216 0.000747913 0)
(-0.0182913 0.000686439 0)
(-0.0188099 0.000620695 0)
(-0.0192743 0.000550925 0)
(-0.0196812 0.000477399 0)
(-0.020028 0.00040041 0)
(-0.0203119 0.000320283 0)
(-0.0205309 0.000237374 0)
(-0.0206828 0.000152077 0)
(-0.020766 6.4822e-05 0)
(-0.0207792 -2.39242e-05 0)
(-0.0207215 -0.000113655 0)
(-0.0205925 -0.000203826 0)
(-0.020392 -0.000293858 0)
(-0.0201206 -0.000383137 0)
(-0.0197792 -0.00047102 0)
(-0.0193691 -0.000556837 0)
(-0.0188924 -0.000639901 0)
(-0.0183515 -0.000719508 0)
(-0.0177496 -0.000794948 0)
(-0.0170901 -0.000865508 0)
(-0.0163773 -0.000930486 0)
(-0.0156158 -0.000989198 0)
(-0.0148108 -0.00104098 0)
(-0.013968 -0.00108521 0)
(-0.0130935 -0.00112131 0)
(-0.0121939 -0.00114874 0)
(-0.0112762 -0.00116704 0)
(-0.0103475 -0.00117581 0)
(-0.00941539 -0.00117473 0)
(-0.00848762 -0.00116356 0)
(-0.00757202 -0.00114218 0)
(-0.0066765 -0.00111053 0)
(-0.00580893 -0.00106869 0)
(-0.00497706 -0.00101683 0)
(-0.00418841 -0.000955273 0)
(-0.00345019 -0.000884452 0)
(-0.00276917 -0.000804967 0)
(-0.00215151 -0.000717592 0)
(-0.00160267 -0.000623318 0)
(-0.00112717 -0.000523401 0)
(-0.000728387 -0.000419453 0)
(-0.000408238 -0.000313566 0)
(-0.000166821 -0.000208511 0)
(-1.90607e-06 -0.00010803 0)
(9.17006e-05 -1.72716e-05 0)
(0.000122803 5.66144e-05 0)
(0.000104707 0.000103768 0)
(5.85832e-05 0.000110932 0)
(1.59127e-05 6.14634e-05 0)
(9.09693e-06 -7.90586e-05 0)
(1.34427e-05 -9.09246e-05 0)
(-2.48668e-05 -8.50947e-06 0)
(-0.000131358 0.000132525 0)
(-0.000322861 0.000307986 0)
(-0.00060898 0.00050061 0)
(-0.000994093 0.000698291 0)
(-0.00147858 0.000892751 0)
(-0.00205982 0.00107843 0)
(-0.00273295 0.00125169 0)
(-0.00349158 0.00141022 0)
(-0.00432825 0.00155267 0)
(-0.00523485 0.00167834 0)
(-0.00620285 0.001787 0)
(-0.00722359 0.00187875 0)
(-0.00828837 0.00195388 0)
(-0.00938859 0.00201285 0)
(-0.0105158 0.0020562 0)
(-0.0116619 0.00208449 0)
(-0.0128187 0.00209832 0)
(-0.0139788 0.00209829 0)
(-0.0151346 0.00208497 0)
(-0.016279 0.00205891 0)
(-0.0174051 0.00202063 0)
(-0.0185064 0.00197062 0)
(-0.0195765 0.00190934 0)
(-0.0206092 0.00183724 0)
(-0.0215988 0.00175473 0)
(-0.0225395 0.00166225 0)
(-0.0234261 0.00156018 0)
(-0.0242532 0.00144897 0)
(-0.0250161 0.00132904 0)
(-0.0257101 0.00120087 0)
(-0.0263308 0.00106493 0)
(-0.0268742 0.000921786 0)
(-0.0273365 0.000772012 0)
(-0.0277144 0.000616257 0)
(-0.0280049 0.000455226 0)
(-0.0282054 0.000289693 0)
(-0.0283138 0.0001205 0)
(-0.0283284 -5.14419e-05 0)
(-0.0282481 -0.000225149 0)
(-0.0280724 -0.000399569 0)
(-0.0278013 -0.000573584 0)
(-0.0274354 -0.000746016 0)
(-0.0269761 -0.000915632 0)
(-0.0264253 -0.00108115 0)
(-0.0257857 -0.00124126 0)
(-0.0250608 -0.00139463 0)
(-0.0242545 -0.00153989 0)
(-0.0233717 -0.00167571 0)
(-0.0224179 -0.00180076 0)
(-0.0213993 -0.00191373 0)
(-0.0203229 -0.00201339 0)
(-0.019196 -0.00209855 0)
(-0.0180268 -0.00216813 0)
(-0.016824 -0.00222113 0)
(-0.0155967 -0.00225668 0)
(-0.0143543 -0.00227405 0)
(-0.0131068 -0.00227265 0)
(-0.0118643 -0.00225207 0)
(-0.010637 -0.00221206 0)
(-0.00943518 -0.00215258 0)
(-0.00826918 -0.0020738 0)
(-0.00714902 -0.00197612 0)
(-0.00608444 -0.00186017 0)
(-0.00508472 -0.00172687 0)
(-0.00415852 -0.00157742 0)
(-0.00331372 -0.0014134 0)
(-0.00255718 -0.00123677 0)
(-0.00189454 -0.00105003 0)
(-0.00132992 -0.000856299 0)
(-0.0008656 -0.000659574 0)
(-0.000501576 -0.000464975 0)
(-0.000235093 -0.000279178 0)
(-6.00277e-05 -0.00011097 0)
(3.3674e-05 2.80111e-05 0)
(6.07489e-05 0.000122497 0)
(4.34066e-05 0.000152751 0)
(1.35091e-05 9.25601e-05 0)
(2.48767e-06 -8.06176e-05 0)
(-2.31308e-05 -5.37653e-05 0)
(-0.000120554 9.61725e-05 0)
(-0.000308625 0.000324258 0)
(-0.000601343 0.000599344 0)
(-0.0010075 0.000898461 0)
(-0.00153088 0.0012049 0)
(-0.00217128 0.0015068 0)
(-0.00292545 0.00179588 0)
(-0.00378779 0.00206648 0)
(-0.00475094 0.00231488 0)
(-0.00580634 0.00253876 0)
(-0.00694455 0.0027368 0)
(-0.00815565 0.00290844 0)
(-0.00942943 0.00305361 0)
(-0.0107556 0.00317264 0)
(-0.0121238 0.0032661 0)
(-0.0135241 0.00333469 0)
(-0.0149465 0.00337924 0)
(-0.0163812 0.00340062 0)
(-0.0178191 0.0033997 0)
(-0.019251 0.00337735 0)
(-0.0206682 0.00333442 0)
(-0.0220622 0.00327172 0)
(-0.0234249 0.00319001 0)
(-0.0247484 0.00309004 0)
(-0.0260253 0.00297252 0)
(-0.0272482 0.00283815 0)
(-0.0284103 0.0026876 0)
(-0.0295049 0.00252157 0)
(-0.0305256 0.00234075 0)
(-0.0314664 0.00214588 0)
(-0.0323217 0.00193773 0)
(-0.0330861 0.00171712 0)
(-0.0337546 0.00148496 0)
(-0.0343228 0.0012422 0)
(-0.0347865 0.000989931 0)
(-0.0351421 0.000729295 0)
(-0.0353865 0.000461558 0)
(-0.0355172 0.00018809 0)
(-0.0355323 -8.963e-05 0)
(-0.0354304 -0.000370014 0)
(-0.035211 -0.000651366 0)
(-0.0348743 -0.000931891 0)
(-0.034421 -0.0012097 0)
(-0.0338529 -0.00148282 0)
(-0.0331724 -0.00174922 0)
(-0.0323829 -0.0020068 0)
(-0.0314886 -0.00225343 0)
(-0.0304945 -0.00248698 0)
(-0.0294064 -0.0027053 0)
(-0.0282313 -0.00290629 0)
(-0.0269765 -0.00308792 0)
(-0.0256506 -0.0032482 0)
(-0.0242626 -0.00338529 0)
(-0.0228223 -0.00349748 0)
(-0.0213403 -0.00358322 0)
(-0.0198276 -0.00364113 0)
(-0.0182957 -0.00367008 0)
(-0.0167565 -0.00366918 0)
(-0.0152222 -0.00363779 0)
(-0.0137052 -0.00357556 0)
(-0.0122179 -0.00348248 0)
(-0.0107725 -0.00335887 0)
(-0.00938113 -0.0032054 0)
(-0.00805545 -0.00302317 0)
(-0.0068065 -0.00281369 0)
(-0.00564458 -0.00257898 0)
(-0.004579 -0.0023216 0)
(-0.00361785 -0.00204479 0)
(-0.00276774 -0.00175255 0)
(-0.0020335 -0.00144987 0)
(-0.00141782 -0.00114295 0)
(-0.000920844 -0.000839605 0)
(-0.000539739 -0.000549704 0)
(-0.000268158 -0.00028584 0)
(-9.57468e-05 -6.41377e-05 0)
(-7.50374e-06 9.48947e-05 0)
(1.78694e-05 0.000165319 0)
(8.98662e-06 0.000112255 0)
(-4.72481e-06 -6.14262e-05 0)
(-6.40848e-05 3.4609e-05 0)
(-0.000228298 0.000276682 0)
(-0.000507364 0.000613064 0)
(-0.00091097 0.00100689 0)
(-0.00144611 0.00143022 0)
(-0.0021152 0.00186217 0)
(-0.00291693 0.00228745 0)
(-0.00384709 0.00269508 0)
(-0.00489915 0.00307733 0)
(-0.00606481 0.00342891 0)
(-0.00733446 0.00374642 0)
(-0.00869755 0.00402779 0)
(-0.0101429 0.00427201 0)
(-0.011659 0.0044788 0)
(-0.0132342 0.00464842 0)
(-0.0148568 0.00478149 0)
(-0.0165152 0.00487892 0)
(-0.018198 0.00494173 0)
(-0.0198942 0.00497109 0)
(-0.0215928 0.00496816 0)
(-0.0232833 0.00493413 0)
(-0.0249556 0.00487016 0)
(-0.0265998 0.0047774 0)
(-0.0282063 0.00465694 0)
(-0.0297661 0.00450984 0)
(-0.0312702 0.00433714 0)
(-0.0327103 0.00413985 0)
(-0.034078 0.00391898 0)
(-0.0353658 0.00367555 0)
(-0.0365661 0.0034106 0)
(-0.0376719 0.00312523 0)
(-0.0386765 0.00282059 0)
(-0.0395739 0.00249792 0)
(-0.0403581 0.00215854 0)
(-0.041024 0.00180391 0)
(-0.0415668 0.00143558 0)
(-0.0419824 0.00105529 0)
(-0.0422673 0.000664863 0)
(-0.0424184 0.000266322 0)
(-0.0424338 -0.000138181 0)
(-0.0423118 -0.000546333 0)
(-0.0420521 -0.000955676 0)
(-0.0416546 -0.00136361 0)
(-0.0411206 -0.00176741 0)
(-0.0404521 -0.00216422 0)
(-0.0396519 -0.00255113 0)
(-0.0387241 -0.00292511 0)
(-0.0376736 -0.00328312 0)
(-0.0365062 -0.00362209 0)
(-0.0352287 -0.00393896 0)
(-0.0338492 -0.00423074 0)
(-0.0323762 -0.00449449 0)
(-0.0308197 -0.00472742 0)
(-0.02919 -0.00492689 0)
(-0.0274986 -0.00509047 0)
(-0.0257576 -0.00521596 0)
(-0.0239797 -0.00530143 0)
(-0.0221783 -0.00534528 0)
(-0.0203669 -0.00534626 0)
(-0.0185596 -0.00530349 0)
(-0.0167707 -0.00521655 0)
(-0.0150144 -0.00508543 0)
(-0.0133047 -0.00491066 0)
(-0.0116555 -0.00469328 0)
(-0.0100802 -0.00443493 0)
(-0.00859126 -0.00413786 0)
(-0.00720052 -0.00380504 0)
(-0.00591855 -0.00344023 0)
(-0.00475458 -0.00304812 0)
(-0.00371615 -0.00263445 0)
(-0.00280882 -0.00220627 0)
(-0.00203586 -0.00177226 0)
(-0.00139785 -0.00134305 0)
(-0.000892294 -0.000931813 0)
(-0.000513214 -0.000554923 0)
(-0.000250705 -0.000232802 0)
(-9.03969e-05 9.19162e-06 0)
(-1.33193e-05 0.000139605 0)
(3.53094e-06 0.000116642 0)
(-1.1994e-05 -2.03187e-05 0)
(-0.000106674 0.000178311 0)
(-0.000341695 0.000539252 0)
(-0.000717217 0.00100626 0)
(-0.00123774 0.00153808 0)
(-0.00190774 0.00210274 0)
(-0.00272763 0.00267571 0)
(-0.00369452 0.00323866 0)
(-0.00480287 0.00377805 0)
(-0.00604507 0.00428414 0)
(-0.00741175 0.00475011 0)
(-0.00889224 0.00517139 0)
(-0.0104749 0.00554512 0)
(-0.0121475 0.00586976 0)
(-0.0138974 0.00614475 0)
(-0.0157116 0.00637024 0)
(-0.0175772 0.00654688 0)
(-0.0194814 0.00667571 0)
(-0.0214115 0.00675799 0)
(-0.0233551 0.00679513 0)
(-0.0252999 0.00678861 0)
(-0.0272343 0.00673995 0)
(-0.0291467 0.00665065 0)
(-0.031026 0.00652222 0)
(-0.0328614 0.0063561 0)
(-0.0346427 0.00615373 0)
(-0.0363597 0.00591649 0)
(-0.0380029 0.00564576 0)
(-0.039563 0.00534295 0)
(-0.0410313 0.00500944 0)
(-0.0423993 0.00464669 0)
(-0.0436591 0.00425621 0)
(-0.0448032 0.00383961 0)
(-0.0458247 0.00339859 0)
(-0.0467169 0.00293501 0)
(-0.0474741 0.00245086 0)
(-0.0480908 0.0019483 0)
(-0.0485626 0.00142968 0)
(-0.0488854 0.000897535 0)
(-0.049056 0.000354604 0)
(-0.0490721 -0.000196173 0)
(-0.048932 -0.000751659 0)
(-0.0486353 -0.00130852 0)
(-0.048182 -0.00186324 0)
(-0.0475737 -0.00241213 0)
(-0.0468125 -0.00295137 0)
(-0.0459019 -0.003477 0)
(-0.0448463 -0.00398499 0)
(-0.0436512 -0.00447124 0)
(-0.0423233 -0.00493163 0)
(-0.0408703 -0.00536208 0)
(-0.0393011 -0.00575857 0)
(-0.0376254 -0.00611718 0)
(-0.0358543 -0.0064342 0)
(-0.0339995 -0.00670609 0)
(-0.0320737 -0.00692962 0)
(-0.0300906 -0.00710187 0)
(-0.0280642 -0.00722028 0)
(-0.0260095 -0.00728273 0)
(-0.0239418 -0.00728759 0)
(-0.0218767 -0.00723372 0)
(-0.0198301 -0.00712059 0)
(-0.0178178 -0.00694826 0)
(-0.0158556 -0.00671749 0)
(-0.0139589 -0.00642975 0)
(-0.0121425 -0.00608728 0)
(-0.0104203 -0.0056932 0)
(-0.00880562 -0.00525155 0)
(-0.00731013 -0.00476742 0)
(-0.00594417 -0.0042471 0)
(-0.00471625 -0.00369823 0)
(-0.00363279 -0.00313008 0)
(-0.00269781 -0.00255386 0)
(-0.00191259 -0.00198312 0)
(-0.00127537 -0.0014343 0)
(-0.000781042 -0.000927405 0)
(-0.00042073 -0.000486831 0)
(-0.000181368 -0.000142248 0)
(-4.72438e-05 7.02775e-05 0)
(-2.23454e-06 0.000103861 0)
(-1.90739e-05 4.29133e-05 0)
(-0.000149371 0.000379087 0)
(-0.000456802 0.000887081 0)
(-0.000931438 0.00150796 0)
(-0.00157214 0.00219739 0)
(-0.00238039 0.00292021 0)
(-0.00335417 0.00364899 0)
(-0.00448855 0.00436274 0)
(-0.00577641 0.0050457 0)
(-0.00720879 0.00568627 0)
(-0.00877511 0.00627616 0)
(-0.0104636 0.00680967 0)
(-0.0122616 0.00728316 0)
(-0.0141558 0.00769454 0)
(-0.0161323 0.00804291 0)
(-0.0181773 0.00832831 0)
(-0.0202766 0.00855138 0)
(-0.0224164 0.00871327 0)
(-0.0245827 0.00881545 0)
(-0.026762 0.00885958 0)
(-0.0289409 0.00884745 0)
(-0.0311066 0.00878093 0)
(-0.0332464 0.00866188 0)
(-0.035348 0.00849218 0)
(-0.0373997 0.00827365 0)
(-0.0393898 0.00800811 0)
(-0.0413075 0.00769737 0)
(-0.0431421 0.00734321 0)
(-0.0448833 0.00694744 0)
(-0.0465215 0.0065119 0)
(-0.0480474 0.00603849 0)
(-0.0494522 0.0055292 0)
(-0.0507276 0.00498616 0)
(-0.0518659 0.00441161 0)
(-0.05286 0.00380798 0)
(-0.0537034 0.00317788 0)
(-0.0543902 0.00252415 0)
(-0.0549155 0.00184986 0)
(-0.0552748 0.0011583 0)
(-0.0554647 0.000453038 0)
(-0.0554826 -0.000262118 0)
(-0.0553268 -0.000983107 0)
(-0.0549967 -0.00170562 0)
(-0.0544927 -0.00242514 0)
(-0.0538161 -0.00313691 0)
(-0.0529697 -0.00383601 0)
(-0.051957 -0.00451738 0)
(-0.050783 -0.00517583 0)
(-0.0494539 -0.00580612 0)
(-0.0479769 -0.00640299 0)
(-0.0463604 -0.0069612 0)
(-0.0446143 -0.00747563 0)
(-0.0427493 -0.00794128 0)
(-0.0407772 -0.0083534 0)
(-0.0387112 -0.0087075 0)
(-0.0365651 -0.00899946 0)
(-0.0343536 -0.00922555 0)
(-0.0320925 -0.00938255 0)
(-0.0297979 -0.00946777 0)
(-0.0274866 -0.00947914 0)
(-0.0251757 -0.00941526 0)
(-0.0228825 -0.00927548 0)
(-0.0206244 -0.00905994 0)
(-0.0184186 -0.00876965 0)
(-0.016282 -0.00840655 0)
(-0.0142306 -0.00797357 0)
(-0.0122801 -0.00747475 0)
(-0.0104446 -0.0069153 0)
(-0.00873722 -0.00630173 0)
(-0.00716939 -0.00564204 0)
(-0.00575065 -0.00494585 0)
(-0.00448841 -0.00422473 0)
(-0.00338763 -0.00349245 0)
(-0.00245059 -0.00276547 0)
(-0.00167657 -0.00206335 0)
(-0.00106174 -0.00140951 0)
(-0.00059869 -0.000831948 0)
(-0.000276135 -0.000364036 0)
(-8.21467e-05 -4.55311e-05 0)
(-7.98566e-06 7.31685e-05 0)
(-2.58684e-05 0.000127943 0)
(-0.00019136 0.000637164 0)
(-0.000571262 0.00132126 0)
(-0.00114573 0.00211999 0)
(-0.00190785 0.00298699 0)
(-0.00285584 0.00388487 0)
(-0.0039849 0.00478389 0)
(-0.00528781 0.00566093 0)
(-0.00675557 0.00649834 0)
(-0.00837765 0.00728291 0)
(-0.0101422 0.00800502 0)
(-0.0120362 0.00865797 0)
(-0.0140458 0.00923734 0)
(-0.0161567 0.00974053 0)
(-0.0183541 0.0101663 0)
(-0.020623 0.0105146 0)
(-0.0229482 0.010786 0)
(-0.0253149 0.0109818 0)
(-0.0277082 0.0111037 0)
(-0.0301134 0.0111535 0)
(-0.0325163 0.0111333 0)
(-0.0349027 0.0110455 0)
(-0.0372592 0.0108921 0)
(-0.0395723 0.0106755 0)
(-0.0418294 0.010398 0)
(-0.044018 0.0100616 0)
(-0.0461261 0.00966878 0)
(-0.0481422 0.00922163 0)
(-0.0500552 0.00872246 0)
(-0.0518545 0.00817358 0)
(-0.0535302 0.0075774 0)
(-0.0550725 0.00693643 0)
(-0.0564727 0.00625336 0)
(-0.0577222 0.00553104 0)
(-0.0588135 0.00477253 0)
(-0.0597393 0.00398114 0)
(-0.0604936 0.00316044 0)
(-0.0610707 0.00231427 0)
(-0.0614661 0.00144679 0)
(-0.0616759 0.000562443 0)
(-0.0616973 -0.000334001 0)
(-0.0615287 -0.00123748 0)
(-0.0611692 -0.00214263 0)
(-0.0606193 -0.00304381 0)
(-0.0598805 -0.00393514 0)
(-0.0589557 -0.00481051 0)
(-0.0578488 -0.00566364 0)
(-0.0565652 -0.00648811 0)
(-0.0551115 -0.00727744 0)
(-0.0534954 -0.00802512 0)
(-0.0517262 -0.00872468 0)
(-0.0498143 -0.00936979 0)
(-0.0477713 -0.00995429 0)
(-0.04561 -0.0104723 0)
(-0.0433444 -0.0109183 0)
(-0.0409896 -0.0112873 0)
(-0.0385614 -0.0115745 0)
(-0.0360766 -0.0117761 0)
(-0.0335527 -0.0118887 0)
(-0.0310079 -0.0119099 0)
(-0.0284605 -0.0118379 0)
(-0.0259293 -0.0116719 0)
(-0.023433 -0.0114122 0)
(-0.0209901 -0.01106 0)
(-0.018619 -0.0106178 0)
(-0.016337 -0.0100893 0)
(-0.0141611 -0.00947932 0)
(-0.0121067 -0.00879446 0)
(-0.0101881 -0.00804267 0)
(-0.00841796 -0.00723371 0)
(-0.00680694 -0.00637923 0)
(-0.00536359 -0.0054931 0)
(-0.00409403 -0.00459167 0)
(-0.00300174 -0.00369416 0)
(-0.00208736 -0.00282316 0)
(-0.00134862 -0.00200521 0)
(-0.000779918 -0.00127152 0)
(-0.000372021 -0.00065857 0)
(-0.000117014 -0.000209001 0)
(-1.35649e-05 2.44963e-05 0)
(-3.23515e-05 0.000234179 0)
(-0.000232228 0.000951862 0)
(-0.00068371 0.00184148 0)
(-0.00135743 0.0028425 0)
(-0.00224076 0.00390743 0)
(-0.00332852 0.00499738 0)
(-0.00461295 0.00608096 0)
(-0.00608431 0.00713341 0)
(-0.00773152 0.00813558 0)
(-0.00954233 0.00907291 0)
(-0.0115034 0.0099347 0)
(-0.0136004 0.0107133 0)
(-0.0158183 0.0114038 0)
(-0.0181418 0.0120029 0)
(-0.0205551 0.0125092 0)
(-0.023042 0.0129225 0)
(-0.0255867 0.0132434 0)
(-0.0281732 0.0134733 0)
(-0.0307856 0.013614 0)
(-0.0334085 0.0136677 0)
(-0.0360266 0.0136368 0)
(-0.0386249 0.0135239 0)
(-0.041189 0.0133315 0)
(-0.0437047 0.0130625 0)
(-0.0461583 0.0127194 0)
(-0.0485365 0.0123048 0)
(-0.0508265 0.0118216 0)
(-0.053016 0.0112723 0)
(-0.055093 0.0106598 0)
(-0.0570464 0.0099869 0)
(-0.0588652 0.00925651 0)
(-0.0605393 0.00847175 0)
(-0.0620591 0.00763588 0)
(-0.0634157 0.00675243 0)
(-0.0646007 0.00582514 0)
(-0.0656066 0.00485807 0)
(-0.0664267 0.00385557 0)
(-0.0670551 0.00282235 0)
(-0.0674868 0.00176346 0)
(-0.0677178 0.000684317 0)
(-0.0677451 -0.000409297 0)
(-0.0675668 -0.00151123 0)
(-0.0671821 -0.002615 0)
(-0.0665914 -0.00371378 0)
(-0.0657963 -0.00480046 0)
(-0.0647998 -0.00586767 0)
(-0.0636062 -0.00690782 0)
(-0.062221 -0.00791319 0)
(-0.0606513 -0.00887595 0)
(-0.0589053 -0.00978827 0)
(-0.0569927 -0.0106424 0)
(-0.0549247 -0.0114306 0)
(-0.0527136 -0.0121456 0)
(-0.050373 -0.0127803 0)
(-0.0479177 -0.013328 0)
(-0.0453638 -0.0137826 0)
(-0.0427282 -0.0141386 0)
(-0.0400287 -0.0143912 0)
(-0.0372841 -0.0145365 0)
(-0.0345135 -0.0145714 0)
(-0.0317368 -0.0144939 0)
(-0.0289738 -0.0143031 0)
(-0.0262447 -0.0139992 0)
(-0.0235694 -0.0135837 0)
(-0.0209673 -0.0130597 0)
(-0.0184574 -0.0124315 0)
(-0.0160577 -0.0117052 0)
(-0.0137851 -0.0108883 0)
(-0.0116551 -0.00999049 0)
(-0.00968172 -0.00902323 0)
(-0.0078768 -0.00800023 0)
(-0.00625022 -0.00693763 0)
(-0.00480943 -0.00585428 0)
(-0.00355933 -0.0047721 0)
(-0.00250216 -0.00371649 0)
(-0.00163742 -0.00271687 0)
(-0.000961522 -0.00180726 0)
(-0.000467448 -0.00102678 0)
(-0.000151301 -0.00042027 0)
(-1.89076e-05 -4.18649e-05 0)
(-3.85289e-05 0.000360915 0)
(-0.000271792 0.00132199 0)
(-0.000793405 0.00244657 0)
(-0.00156496 0.00367455 0)
(-0.00256829 0.00495801 0)
(-0.00379479 0.0062572 0)
(-0.00523366 0.00753966 0)
(-0.00687249 0.00877949 0)
(-0.00869799 0.00995638 0)
(-0.010696 0.0110548 0)
(-0.0128516 0.0120631 0)
(-0.0151491 0.012973 0)
(-0.0175723 0.0137789 0)
(-0.0201047 0.0144773 0)
(-0.0227294 0.0150666 0)
(-0.0254294 0.0155463 0)
(-0.0281879 0.0159172 0)
(-0.030988 0.0161808 0)
(-0.033813 0.016339 0)
(-0.0366466 0.0163945 0)
(-0.0394727 0.0163498 0)
(-0.0422755 0.016208 0)
(-0.0450397 0.0159719 0)
(-0.0477504 0.0156449 0)
(-0.050393 0.0152298 0)
(-0.0529535 0.0147299 0)
(-0.0554184 0.0141483 0)
(-0.0577746 0.0134882 0)
(-0.0600096 0.0127529 0)
(-0.0621112 0.0119458 0)
(-0.0640682 0.0110704 0)
(-0.0658696 0.0101304 0)
(-0.0675053 0.00912973 0)
(-0.0689658 0.00807258 0)
(-0.0702423 0.00696346 0)
(-0.0713268 0.00580719 0)
(-0.0722122 0.00460898 0)
(-0.0728922 0.00337443 0)
(-0.0733615 0.00210956 0)
(-0.0736157 0.0008208 0)
(-0.0736518 -0.000484975 0)
(-0.0734675 -0.00180048 0)
(-0.073062 -0.00311803 0)
(-0.0724357 -0.00442956 0)
(-0.0715902 -0.00572665 0)
(-0.0705286 -0.00700059 0)
(-0.0692553 -0.00824243 0)
(-0.0677761 -0.00944305 0)
(-0.0660983 -0.0105932 0)
(-0.0642306 -0.0116837 0)
(-0.0621832 -0.0127053 0)
(-0.0599676 -0.013649 0)
(-0.057597 -0.0145061 0)
(-0.0550855 -0.0152682 0)
(-0.0524488 -0.0159275 0)
(-0.0497038 -0.0164769 0)
(-0.0468684 -0.0169096 0)
(-0.0439614 -0.0172202 0)
(-0.0410025 -0.017404 0)
(-0.0380122 -0.0174572 0)
(-0.0350113 -0.0173776 0)
(-0.0320211 -0.017164 0)
(-0.0290629 -0.0168167 0)
(-0.0261579 -0.0163375 0)
(-0.0233269 -0.0157299 0)
(-0.0205902 -0.0149989 0)
(-0.0179672 -0.0141517 0)
(-0.0154761 -0.013197 0)
(-0.0131339 -0.0121461 0)
(-0.0109558 -0.0110121 0)
(-0.00895519 -0.00981073 0)
(-0.00714333 -0.00856046 0)
(-0.0055292 -0.00728252 0)
(-0.0041193 -0.00600138 0)
(-0.00291762 -0.00474511 0)
(-0.00192565 -0.00354576 0)
(-0.00114188 -0.00243983 0)
(-0.00056159 -0.00146869 0)
(-0.000184761 -0.000678896 0)
(-2.39999e-05 -0.000125455 0)
(-4.44191e-05 0.000507413 0)
(-0.000309997 0.00174608 0)
(-0.00089999 0.00313484 0)
(-0.00176744 0.00461447 0)
(-0.00288888 0.00613718 0)
(-0.00425235 0.00766292 0)
(-0.00584397 0.00915864 0)
(-0.00764859 0.0105977 0)
(-0.00965062 0.0119591 0)
(-0.0118339 0.0132266 0)
(-0.0141818 0.0143878 0)
(-0.0166773 0.0154341 0)
(-0.0193027 0.0163594 0)
(-0.0220404 0.0171599 0)
(-0.0248726 0.017834 0)
(-0.0277813 0.0183811 0)
(-0.0307487 0.018802 0)
(-0.0337571 0.0190984 0)
(-0.0367891 0.0192726 0)
(-0.0398275 0.0193274 0)
(-0.0428555 0.0192657 0)
(-0.0458565 0.0190909 0)
(-0.0488145 0.0188065 0)
(-0.0517139 0.0184158 0)
(-0.0545394 0.0179226 0)
(-0.0572763 0.0173303 0)
(-0.0599104 0.0166427 0)
(-0.062428 0.0158635 0)
(-0.0648159 0.0149964 0)
(-0.0670615 0.0140456 0)
(-0.0691527 0.0130149 0)
(-0.0710782 0.0119089 0)
(-0.0728273 0.0107321 0)
(-0.0743899 0.00948947 0)
(-0.0757568 0.00818621 0)
(-0.0769195 0.00682802 0)
(-0.0778706 0.00542098 0)
(-0.0786033 0.00397165 0)
(-0.079112 0.00248703 0)
(-0.0793922 0.000974644 0)
(-0.0794404 -0.000557514 0)
(-0.0792542 -0.00210097 0)
(-0.0788328 -0.00364677 0)
(-0.0781763 -0.00518554 0)
(-0.0772864 -0.00670751 0)
(-0.0761661 -0.00820257 0)
(-0.0748199 -0.00966034 0)
(-0.0732538 -0.0110702 0)
(-0.0714754 -0.0124215 0)
(-0.0694936 -0.0137034 0)
(-0.067319 -0.0149053 0)
(-0.0649636 -0.0160168 0)
(-0.0624409 -0.0170278 0)
(-0.0597659 -0.0179284 0)
(-0.0569549 -0.0187097 0)
(-0.0540254 -0.0193631 0)
(-0.0509963 -0.0198811 0)
(-0.0478873 -0.0202572 0)
(-0.0447192 -0.0204858 0)
(-0.0415134 -0.0205627 0)
(-0.038292 -0.020485 0)
(-0.0350775 -0.0202515 0)
(-0.0318923 -0.0198624 0)
(-0.0287591 -0.0193198 0)
(-0.0256999 -0.0186274 0)
(-0.0227365 -0.0177913 0)
(-0.0198896 -0.0168193 0)
(-0.0171789 -0.0157216 0)
(-0.0146228 -0.0145108 0)
(-0.0122382 -0.013202 0)
(-0.0100397 -0.0118127 0)
(-0.00804048 -0.0103636 0)
(-0.00625102 -0.00887827 0)
(-0.0046796 -0.00738363 0)
(-0.00333212 -0.00591021 0)
(-0.00221212 -0.00449252 0)
(-0.00132029 -0.00316931 0)
(-0.000654128 -0.00198386 0)
(-0.000217335 -0.000984158 0)
(-2.88547e-05 -0.000225763 0)
(-5.00458e-05 0.000672949 0)
(-0.000346861 0.00222257 0)
(-0.00100334 0.0039043 0)
(-0.00196446 0.00566013 0)
(-0.00320171 0.00744284 0)
(-0.00469985 0.00921248 0)
(-0.00644197 0.0109359 0)
(-0.00841017 0.0125861 0)
(-0.0105865 0.0141417 0)
(-0.0129527 0.015586 0)
(-0.0154905 0.0169064 0)
(-0.0181811 0.0180938 0)
(-0.0210057 0.019142 0)
(-0.0239454 0.0200472 0)
(-0.0269814 0.0208074 0)
(-0.0300947 0.0214224 0)
(-0.0332667 0.0218931 0)
(-0.0364789 0.0222212 0)
(-0.039713 0.0224095 0)
(-0.0429511 0.0224609 0)
(-0.0461758 0.0223788 0)
(-0.0493698 0.022167 0)
(-0.0525163 0.0218294 0)
(-0.0555992 0.0213698 0)
(-0.0586026 0.0207923 0)
(-0.0615111 0.0201009 0)
(-0.0643099 0.0193 0)
(-0.0669847 0.0183937 0)
(-0.0695218 0.0173864 0)
(-0.071908 0.0162826 0)
(-0.0741308 0.0150872 0)
(-0.0761782 0.013805 0)
(-0.078039 0.0124414 0)
(-0.0797028 0.0110021 0)
(-0.0811599 0.00949313 0)
(-0.0824014 0.00792102 0)
(-0.0834193 0.00629278 0)
(-0.0842067 0.00461593 0)
(-0.0847576 0.00289852 0)
(-0.085067 0.00114919 0)
(-0.0851312 -0.000622903 0)
(-0.0849478 -0.00240804 0)
(-0.0845155 -0.00419597 0)
(-0.0838344 -0.00597597 0)
(-0.0829061 -0.00773685 0)
(-0.0817336 -0.00946703 0)
(-0.0803213 -0.0111546 0)
(-0.0786754 -0.0127875 0)
(-0.0768034 -0.0143534 0)
(-0.0747147 -0.0158401 0)
(-0.0724199 -0.0172353 0)
(-0.0699316 -0.0185271 0)
(-0.0672636 -0.0197038 0)
(-0.0644314 -0.0207543 0)
(-0.061452 -0.0216681 0)
(-0.0583437 -0.0224355 0)
(-0.0551258 -0.0230478 0)
(-0.0518193 -0.0234974 0)
(-0.0484457 -0.0237779 0)
(-0.0450275 -0.0238844 0)
(-0.0415879 -0.0238136 0)
(-0.0381506 -0.0235638 0)
(-0.0347394 -0.0231352 0)
(-0.0313781 -0.02253 0)
(-0.0280904 -0.0217525 0)
(-0.0248992 -0.0208093 0)
(-0.0218268 -0.0197093 0)
(-0.0188946 -0.0184638 0)
(-0.0161225 -0.0170868 0)
(-0.0135288 -0.0155952 0)
(-0.0111302 -0.0140084 0)
(-0.00894122 -0.0123492 0)
(-0.00697434 -0.0106434 0)
(-0.00523973 -0.00892024 0)
(-0.00374525 -0.0072127 0)
(-0.0024966 -0.00555749 0)
(-0.00149666 -0.00399548 0)
(-0.000745092 -0.00257167 0)
(-0.000249085 -0.00133527 0)
(-3.35005e-05 -0.000342294 0)
(-5.54335e-05 0.000856828 0)
(-0.000382436 0.00274985 0)
(-0.00110347 0.00475281 0)
(-0.00215588 0.00680914 0)
(-0.00350637 0.00887249 0)
(-0.00513656 0.0109034 0)
(-0.00702656 0.0128689 0)
(-0.00915572 0.0147422 0)
(-0.0115037 0.0165016 0)
(-0.0140502 0.0181305 0)
(-0.016775 0.0196162 0)
(-0.0196579 0.0209493 0)
(-0.0226786 0.0221237 0)
(-0.0258171 0.0231357 0)
(-0.0290534 0.0239833 0)
(-0.0323677 0.0246664 0)
(-0.0357404 0.0251862 0)
(-0.0391521 0.0255447 0)
(-0.0425841 0.0257449 0)
(-0.0460176 0.0257902 0)
(-0.0494345 0.0256843 0)
(-0.0528169 0.0254315 0)
(-0.0561476 0.0250359 0)
(-0.0594097 0.0245021 0)
(-0.0625868 0.0238344 0)
(-0.065663 0.0230376 0)
(-0.0686229 0.0221164 0)
(-0.0714518 0.0210754 0)
(-0.0741353 0.0199198 0)
(-0.0766598 0.0186546 0)
(-0.0790124 0.0172851 0)
(-0.0811805 0.0158172 0)
(-0.0831526 0.0142568 0)
(-0.0849176 0.0126104 0)
(-0.0864656 0.0108848 0)
(-0.0877871 0.00908748 0)
(-0.0888739 0.00722633 0)
(-0.0897186 0.0053099 0)
(-0.0903148 0.00334732 0)
(-0.0906573 0.00134835 0)
(-0.0907421 -0.000676647 0)
(-0.0905664 -0.00271667 0)
(-0.0901287 -0.00476013 0)
(-0.089429 -0.00679491 0)
(-0.0884685 -0.00880834 0)
(-0.0872503 -0.0107874 0)
(-0.0857787 -0.0127185 0)
(-0.0840597 -0.0145881 0)
(-0.0821011 -0.0163822 0)
(-0.0799122 -0.0180869 0)
(-0.077504 -0.0196884 0)
(-0.0748892 -0.0211732 0)