/*--------------------------------*- C++ -*----------------------------------*\
  =========                 |
  \\      /  F ield         | OpenFOAM: The Open Source CFD Toolbox
   \\    /   O peration     | Website:  https://openfoam.org
    \\  /    A nd           | Version:  7
     \\/     M anipulation  |
\*---------------------------------------------------------------------------*/
FoamFile
{
    version     2.0;
    format      ascii;
    class       surfaceScalarField;
    location    "3.875";
    object      phi;
}
// * * * * * * * * * * * * * * * * * * * * * * * * * * * * * * * * * * * * * //

dimensions      [0 3 -1 0 0 0 0];

internalField   nonuniform List<scalar> 
12640
(
4.09875e-10
-4.0604e-10
1.60956e-09
-1.19987e-09
3.11507e-09
-1.50539e-09
4.54009e-09
-1.42503e-09
5.66096e-09
-1.12082e-09
6.36062e-09
-6.99699e-10
6.58831e-09
-2.27627e-10
6.33189e-09
2.56404e-10
5.59968e-09
7.32192e-10
4.40829e-09
1.19139e-09
2.77538e-09
1.6329e-09
7.15674e-10
2.0597e-09
-1.76096e-09
2.47664e-09
-4.64992e-09
2.88896e-09
-7.95133e-09
3.30139e-09
-1.16688e-08
3.71747e-09
-1.58081e-08
4.13924e-09
-2.03751e-08
4.56706e-09
-2.53746e-08
4.99952e-09
-3.08081e-08
5.43351e-09
-3.66724e-08
5.86429e-09
-4.29581e-08
6.28562e-09
-4.9648e-08
6.68989e-09
-5.67162e-08
7.06825e-09
-6.41271e-08
7.41083e-09
-7.1834e-08
7.70692e-09
-7.97792e-08
7.94518e-09
-8.78931e-08
8.11393e-09
-9.60945e-08
8.20142e-09
-1.04291e-07
8.19618e-09
-1.12378e-07
8.08736e-09
-1.20243e-07
7.86513e-09
-1.27764e-07
7.52114e-09
-1.34813e-07
7.04887e-09
-1.41257e-07
6.44413e-09
-1.46963e-07
5.70542e-09
-1.51797e-07
4.83432e-09
-1.55633e-07
3.83581e-09
-1.58351e-07
2.7185e-09
-1.59846e-07
1.4948e-09
-1.6003e-07
1.83884e-10
-1.58827e-07
-1.2032e-09
-1.56194e-07
-2.63272e-09
-1.52112e-07
-4.08262e-09
-1.46588e-07
-5.52308e-09
-1.39666e-07
-6.92279e-09
-1.31416e-07
-8.2495e-09
-1.21945e-07
-9.47091e-09
-1.11389e-07
-1.05558e-08
-9.99142e-08
-1.14752e-08
-8.77107e-08
-1.22036e-08
-7.49906e-08
-1.27201e-08
-6.19812e-08
-1.30093e-08
-4.89187e-08
-1.30626e-08
-3.60406e-08
-1.2878e-08
-2.35792e-08
-1.24614e-08
-1.17536e-08
-1.18255e-08
-7.63317e-10
-1.09903e-08
9.21942e-09
-9.98273e-09
1.80507e-08
-8.83122e-09
2.56223e-08
-7.57167e-09
3.18626e-08
-6.24022e-09
3.67359e-08
-4.87335e-09
4.02422e-08
-3.50633e-09
4.24139e-08
-2.1717e-09
4.33121e-08
-8.98124e-10
4.30217e-08
2.90388e-10
4.1647e-08
1.37467e-09
3.93068e-08
2.34023e-09
3.61307e-08
3.17609e-09
3.22575e-08
3.87315e-09
2.7836e-08
4.42159e-09
2.30285e-08
4.80746e-09
1.80203e-08
5.00819e-09
1.30329e-08
4.98741e-09
8.34225e-09
4.69065e-09
4.29632e-09
4.04593e-09
1.32495e-09
2.97137e-09
-1.08581e-10
1.43351e-09
-1.08605e-10
1.21617e-09
-1.62239e-09
3.63451e-09
-3.61812e-09
6.37594e-09
-4.24677e-09
8.78994e-09
-3.839e-09
1.04301e-08
-2.761e-09
1.10227e-08
-1.29219e-09
1.04205e-08
3.74533e-10
8.56021e-09
2.11669e-09
5.42864e-09
3.86377e-09
1.03877e-09
5.58124e-09
-4.58671e-09
7.2584e-09
-1.14256e-08
8.89865e-09
-1.94615e-08
1.05125e-08
-2.86852e-08
1.21127e-08
-3.90945e-08
1.37106e-08
-5.06914e-08
1.53144e-08
-6.34793e-08
1.69272e-08
-7.74586e-08
1.85463e-08
-9.26225e-08
2.01634e-08
-1.08953e-07
2.17642e-08
-1.26418e-07
2.33287e-08
-1.44964e-07
2.48319e-08
-1.64518e-07
2.62442e-08
-1.84982e-07
2.75321e-08
-2.0623e-07
2.86588e-08
-2.28109e-07
2.95856e-08
-2.50435e-07
3.02721e-08
-2.72999e-07
3.06778e-08
-2.95561e-07
3.07631e-08
-3.17855e-07
3.04905e-08
-3.39594e-07
2.98259e-08
-3.60469e-07
2.87402e-08
-3.80158e-07
2.72102e-08
-3.9833e-07
2.52206e-08
-4.1465e-07
2.27644e-08
-4.28789e-07
1.98448e-08
-4.40431e-07
1.64758e-08
-4.49278e-07
1.26828e-08
-4.55063e-07
8.50342e-09
-4.57555e-07
3.98714e-09
-4.56572e-07
-7.99517e-10
-4.51976e-07
-5.79853e-09
-4.43697e-07
-1.09116e-08
-4.31728e-07
-1.60523e-08
-4.16129e-07
-2.11217e-08
-3.97035e-07
-2.60164e-08
-3.74654e-07
-3.0631e-08
-3.49264e-07
-3.48612e-08
-3.21212e-07
-3.86073e-08
-2.9091e-07
-4.17774e-08
-2.58823e-07
-4.42909e-08
-2.25461e-07
-4.6082e-08
-1.91368e-07
-4.71023e-08
-1.57107e-07
-4.73237e-08
-1.23244e-07
-4.67402e-08
-9.03374e-08
-4.53683e-08
-5.89153e-08
-4.32477e-08
-2.94659e-08
-4.04397e-08
-2.4231e-09
-3.70255e-08
2.18482e-08
-3.31025e-08
4.30555e-08
-2.8779e-08
6.09899e-08
-2.41746e-08
7.55258e-08
-1.94092e-08
8.66212e-08
-1.46016e-08
9.43135e-08
-9.86406e-09
9.87139e-08
-5.29849e-09
9.99983e-08
-9.94017e-10
9.83988e-08
2.97414e-09
9.41946e-08
6.54443e-09
8.77049e-08
9.66581e-09
7.92849e-08
1.22932e-08
6.93262e-08
1.43804e-08
5.82629e-08
1.58708e-08
4.6584e-08
1.66871e-08
3.485e-08
1.67214e-08
2.37095e-08
1.58312e-08
1.3903e-08
1.38525e-08
6.23174e-09
1.06426e-08
1.44629e-09
6.21903e-09
1.33767e-09
1.53678e-09
-3.15906e-09
4.27173e-09
-6.35299e-09
7.07241e-09
-7.04739e-09
9.15924e-09
-5.92589e-09
9.98969e-09
-3.59134e-09
9.21302e-09
-5.15536e-10
6.62486e-09
2.96268e-09
2.1211e-09
6.62045e-09
-4.33766e-09
1.03225e-08
-1.27546e-08
1.39982e-08
-2.31162e-08
1.762e-08
-3.54049e-08
2.11874e-08
-4.9606e-08
2.47135e-08
-6.57095e-08
2.82161e-08
-8.37096e-08
3.17108e-08
-1.03601e-07
3.52062e-08
-1.25376e-07
3.87015e-08
-1.49014e-07
4.21848e-08
-1.74483e-07
4.56322e-08
-2.01727e-07
4.90082e-08
-2.30665e-07
5.22664e-08
-2.61183e-07
5.535e-08
-2.93133e-07
5.8194e-08
-3.26326e-07
6.07259e-08
-3.60536e-07
6.28681e-08
-3.9549e-07
6.45398e-08
-4.30877e-07
6.56591e-08
-4.66344e-07
6.61453e-08
-5.01503e-07
6.59216e-08
-5.3593e-07
6.49178e-08
-5.69177e-07
6.30725e-08
-6.00773e-07
6.03363e-08
-6.30237e-07
5.66738e-08
-6.57082e-07
5.20664e-08
-6.80832e-07
4.65138e-08
-7.01023e-07
4.00363e-08
-7.17223e-07
3.26756e-08
-7.29036e-07
2.44961e-08
-7.36118e-07
1.55847e-08
-7.38182e-07
6.05121e-09
-7.35007e-07
-3.97458e-09
-7.26458e-07
-1.4347e-08
-7.12478e-07
-2.48917e-08
-6.93102e-07
-3.54286e-08
-6.68458e-07
-4.57649e-08
-6.38774e-07
-5.57013e-08
-6.04368e-07
-6.50365e-08
-5.65656e-07
-7.35731e-08
-5.2314e-07
-8.11232e-08
-4.77404e-07
-8.75141e-08
-4.291e-07
-9.25949e-08
-3.7894e-07
-9.62417e-08
-3.27679e-07
-9.83632e-08
-2.76098e-07
-9.89049e-08
-2.24985e-07
-9.78527e-08
-1.75119e-07
-9.52345e-08
-1.27246e-07
-9.11208e-08
-8.20627e-08
-8.56231e-08
-4.01978e-08
-7.88904e-08
-2.19655e-09
-7.11038e-08
3.14953e-08
-6.24709e-08
6.05359e-08
-5.32152e-08
8.46982e-08
-4.35716e-08
1.0387e-07
-3.37734e-08
1.18052e-07
-2.4046e-08
1.27352e-07
-1.4599e-08
1.31979e-07
-5.62071e-09
1.32229e-07
2.72404e-09
1.28479e-07
1.02947e-08
1.21175e-07
1.69699e-08
1.10828e-07
2.26402e-08
9.80111e-08
2.7197e-08
8.33642e-08
3.05177e-08
6.76007e-08
3.24506e-08
5.15197e-08
3.28024e-08
3.60135e-08
3.13373e-08
2.20642e-08
2.78018e-08
1.07144e-08
2.19924e-08
3.01019e-09
1.39233e-08
4.34786e-09
1.43901e-09
-4.5981e-09
3.74092e-09
-8.65481e-09
5.65968e-09
-8.9662e-09
6.36553e-09
-6.63163e-09
5.29031e-09
-2.51613e-09
2.06373e-09
2.711e-09
-3.53939e-09
8.56582e-09
-1.16425e-08
1.47236e-08
-2.23037e-08
2.09837e-08
-3.55423e-08
2.72368e-08
-5.13581e-08
3.34359e-08
-6.97434e-08
3.95727e-08
-9.06889e-08
4.5659e-08
-1.14185e-07
5.17125e-08
-1.40221e-07
5.77469e-08
-1.6878e-07
6.37648e-08
-1.99832e-07
6.9753e-08
-2.33328e-07
7.56809e-08
-2.69194e-07
8.14987e-08
-3.07324e-07
8.71383e-08
-3.47572e-07
9.25143e-08
-3.89748e-07
9.75261e-08
-4.33615e-07
1.0206e-07
-4.78883e-07
1.05994e-07
-5.25212e-07
1.09198e-07
-5.72211e-07
1.11538e-07
-6.19437e-07
1.12885e-07
-6.66404e-07
1.13113e-07
-7.12586e-07
1.12103e-07
-7.57424e-07
1.09755e-07
-8.00334e-07
1.05983e-07
-8.4072e-07
1.00723e-07
-8.77983e-07
9.3936e-08
-9.11529e-07
8.56129e-08
-9.40789e-07
7.57735e-08
-9.65223e-07
6.44707e-08
-9.84339e-07
5.17908e-08
-9.97697e-07
3.78542e-08
-1.00493e-06
2.28151e-08
-1.00574e-06
6.86055e-09
-9.99912e-07
-9.79948e-09
-9.87341e-07
-2.6918e-08
-9.68006e-07
-4.42262e-08
-9.41995e-07
-6.14395e-08
-9.09501e-07
-7.82589e-08
-8.70825e-07
-9.43778e-08
-8.26372e-07
-1.09489e-07
-7.76652e-07
-1.23293e-07
-7.22271e-07
-1.35504e-07
-6.63923e-07
-1.45862e-07
-6.02382e-07
-1.54137e-07
-5.38485e-07
-1.60139e-07
-4.73121e-07
-1.63727e-07
-4.07213e-07
-1.64813e-07
-3.41695e-07
-1.63371e-07
-2.77496e-07
-1.59434e-07
-2.15516e-07
-1.53101e-07
-1.56606e-07
-1.44533e-07
-1.01548e-07
-1.33949e-07
-5.10317e-08
-1.2162e-07
-5.64429e-09
-1.07858e-07
3.41496e-08
-9.30091e-08
6.80127e-08
-7.74347e-08
9.57435e-08
-6.15042e-08
1.17277e-07
-4.55791e-08
1.3268e-07
-3.00024e-08
1.42149e-07
-1.50899e-08
1.45998e-07
-1.12483e-09
1.44649e-07
1.16437e-08
1.38623e-07
2.29955e-08
1.28533e-07
3.27302e-08
1.15078e-07
4.06529e-08
9.90394e-08
4.65558e-08
8.1291e-08
5.0199e-08
6.27974e-08
5.12961e-08
4.46208e-08
4.95139e-08
2.79221e-08
4.45005e-08
1.39592e-08
3.59553e-08
4.10288e-09
2.37796e-08
8.45075e-09
1.05159e-09
-5.64968e-09
2.30651e-09
-9.90977e-09
2.54895e-09
-9.2085e-09
9.78484e-10
-5.06116e-09
-2.94176e-09
1.40408e-09
-9.55947e-09
9.32871e-09
-1.90884e-08
1.80948e-08
-3.16515e-08
2.72867e-08
-4.73139e-08
3.6646e-08
-6.6106e-08
4.60289e-08
-8.804e-08
5.53698e-08
-1.13118e-07
6.46508e-08
-1.41337e-07
7.38778e-08
-1.72687e-07
8.30623e-08
-2.07148e-07
9.22081e-08
-2.44685e-07
1.01302e-07
-2.8524e-07
1.10308e-07
-3.28725e-07
1.19166e-07
-3.75014e-07
1.27788e-07
-4.23936e-07
1.3606e-07
-4.75268e-07
1.43847e-07
-5.28734e-07
1.50992e-07
-5.83997e-07
1.57323e-07
-6.4066e-07
1.62658e-07
-6.98269e-07
1.66806e-07
-7.56312e-07
1.69581e-07
-8.14226e-07
1.70799e-07
-8.71403e-07
1.7029e-07
-9.27199e-07
1.679e-07
-9.80946e-07
1.63502e-07
-1.03196e-06
1.56996e-07
-1.07955e-06
1.48315e-07
-1.12305e-06
1.37431e-07
-1.16179e-06
1.24357e-07
-1.19516e-06
1.09149e-07
-1.2226e-06
9.19069e-08
-1.24359e-06
7.27773e-08
-1.25768e-06
5.19498e-08
-1.26453e-06
2.96582e-08
-1.26384e-06
6.17738e-09
-1.25545e-06
-1.8195e-08
-1.23926e-06
-4.31036e-08
-1.21531e-06
-6.81786e-08
-1.18372e-06
-9.30276e-08
-1.14474e-06
-1.17242e-07
-1.09871e-06
-1.40407e-07
-1.04609e-06
-1.62106e-07
-9.8745e-07
-1.81934e-07
-9.23447e-07
-1.99508e-07
-8.54837e-07
-2.14471e-07
-7.82461e-07
-2.26512e-07
-7.0723e-07
-2.3537e-07
-6.30113e-07
-2.40844e-07
-5.52119e-07
-2.42807e-07
-4.74282e-07
-2.41208e-07
-3.97635e-07
-2.3608e-07
-3.23195e-07
-2.27542e-07
-2.51931e-07
-2.15796e-07
-1.84752e-07
-2.01128e-07
-1.22478e-07
-1.83894e-07
-6.58216e-08
-1.64515e-07
-1.53726e-08
-1.43458e-07
2.84174e-08
-1.21225e-07
6.52436e-08
-9.83303e-08
9.49537e-08
-7.52891e-08
1.17549e-07
-5.25974e-08
1.3318e-07
-3.0721e-08
1.42141e-07
-1.00863e-08
1.44863e-07
8.9225e-09
1.41897e-07
2.59609e-08
1.33914e-07
4.07128e-08
1.21692e-07
5.28755e-08
1.0611e-07
6.21378e-08
8.81499e-08
6.81589e-08
6.88961e-08
7.05499e-08
4.95394e-08
6.88707e-08
3.13895e-08
6.26504e-08
1.59005e-08
5.14442e-08
4.73744e-09
3.49427e-08
1.31882e-08
4.55821e-10
-6.10552e-09
1.6919e-10
-9.62303e-09
-1.93e-09
-7.10933e-09
-6.53992e-09
-4.51247e-10
-1.41139e-08
8.97806e-09
-2.49395e-08
2.01543e-08
-3.91916e-08
3.23469e-08
-5.69739e-08
4.5069e-08
-7.83463e-08
5.80184e-08
-1.03343e-07
7.1026e-08
-1.31985e-07
8.40116e-08
-1.64282e-07
9.69474e-08
-2.00233e-07
1.09829e-07
-2.39826e-07
1.22655e-07
-2.83027e-07
1.35409e-07
-3.29778e-07
1.48052e-07
-3.79982e-07
1.60513e-07
-4.33504e-07
1.72688e-07
-4.90156e-07
1.84439e-07
-5.49693e-07
1.95596e-07
-6.11807e-07
2.05961e-07
-6.76126e-07
2.15311e-07
-7.42212e-07
2.23409e-07
-8.09561e-07
2.30006e-07
-8.77606e-07
2.34851e-07
-9.45726e-07
2.37701e-07
-1.01325e-06
2.38323e-07
-1.07947e-06
2.3651e-07
-1.14365e-06
2.32082e-07
-1.20505e-06
2.24896e-07
-1.2629e-06
2.14849e-07
-1.31647e-06
2.01889e-07
-1.36506e-06
1.86012e-07
-1.40797e-06
1.67268e-07
-1.44458e-06
1.45762e-07
-1.47433e-06
1.21654e-07
-1.49671e-06
9.51597e-08
-1.51131e-06
6.65459e-08
-1.51778e-06
3.61317e-08
-1.51589e-06
4.28556e-09
-1.50547e-06
-2.86139e-08
-1.48647e-06
-6.20974e-08
-1.45896e-06
-9.5697e-08
-1.42307e-06
-1.28916e-07
-1.37907e-06
-1.6124e-07
-1.32733e-06
-1.92146e-07
-1.26832e-06
-2.21113e-07
-1.20263e-06
-2.4763e-07
-1.13093e-06
-2.71211e-07
-1.05399e-06
-2.91406e-07
-9.72691e-07
-3.07812e-07
-8.87972e-07
-3.20089e-07
-8.00846e-07
-3.2797e-07
-7.1238e-07
-3.31273e-07
-6.23673e-07
-3.29915e-07
-5.3584e-07
-3.23913e-07
-4.49989e-07
-3.13392e-07
-3.67197e-07
-2.98588e-07
-2.88484e-07
-2.79841e-07
-2.14791e-07
-2.57587e-07
-1.46958e-07
-2.32348e-07
-8.56994e-08
-2.04717e-07
-3.15892e-08
-1.75335e-07
1.49535e-08
-1.44873e-07
5.36742e-08
-1.1401e-07
8.4487e-08
-8.34102e-08
1.07475e-07
-5.37094e-08
1.22888e-07
-2.54987e-08
1.31131e-07
6.79182e-10
1.32759e-07
2.43329e-08
1.28465e-07
4.50067e-08
1.19071e-07
6.22697e-08
1.05519e-07
7.56903e-08
8.88657e-08
8.48119e-08
7.02848e-08
8.91308e-08
5.10703e-08
8.80852e-08
3.26577e-08
8.10629e-08
1.66668e-08
6.74352e-08
4.98771e-09
4.66218e-08
1.81759e-08
-2.99909e-10
-5.80553e-09
-2.52601e-09
-7.39697e-09
-7.52512e-09
-2.11026e-09
-1.5822e-08
7.84565e-09
-2.77414e-08
2.08975e-08
-4.34756e-08
3.58884e-08
-6.31368e-08
5.20081e-08
-8.67919e-08
6.87241e-08
-1.14484e-07
8.57105e-08
-1.46244e-07
1.02786e-07
-1.82095e-07
1.19862e-07
-2.2205e-07
1.36902e-07
-2.66107e-07
1.53887e-07
-3.14246e-07
1.70794e-07
-3.66415e-07
1.87578e-07
-4.22521e-07
2.04159e-07
-4.82428e-07
2.2042e-07
-5.45941e-07
2.36201e-07
-6.12802e-07
2.51301e-07
-6.82687e-07
2.65481e-07
-7.55199e-07
2.78472e-07
-8.29868e-07
2.89981e-07
-9.06155e-07
2.99697e-07
-9.83455e-07
3.07306e-07
-1.0611e-06
3.12497e-07
-1.13838e-06
3.14977e-07
-1.21453e-06
3.14474e-07
-1.28877e-06
3.10751e-07
-1.3603e-06
3.03617e-07
-1.42833e-06
2.92926e-07
-1.49208e-06
2.78592e-07
-1.55077e-06
2.60586e-07
-1.6037e-06
2.38943e-07
-1.6502e-06
2.13764e-07
-1.68965e-06
1.85211e-07
-1.72151e-06
1.53512e-07
-1.7453e-06
1.18953e-07
-1.76064e-06
8.18815e-08
-1.7672e-06
4.26992e-08
-1.7648e-06
1.88003e-09
-1.75325e-06
-4.01621e-08
-1.73253e-06
-8.28123e-08
-1.70271e-06
-1.25524e-07
-1.66392e-06
-1.67704e-07
-1.61642e-06
-2.08737e-07
-1.56057e-06
-2.47999e-07
-1.49682e-06
-2.84864e-07
-1.42573e-06
-3.18719e-07
-1.34797e-06
-3.48973e-07
-1.2643e-06
-3.75074e-07
-1.17559e-06
-3.96523e-07
-1.08279e-06
-4.1289e-07
-9.8693e-07
-4.23827e-07
-8.89116e-07
-4.29087e-07
-7.90497e-07
-4.28534e-07
-6.92255e-07
-4.22155e-07
-5.95581e-07
-4.10066e-07
-5.01651e-07
-3.92518e-07
-4.11598e-07
-3.69894e-07
-3.26486e-07
-3.42698e-07
-2.47284e-07
-3.1155e-07
-1.74839e-07
-2.77162e-07
-1.09856e-07
-2.40317e-07
-5.28817e-08
-2.01848e-07
-4.28568e-09
-1.62606e-07
3.57438e-08
-1.2344e-07
6.72047e-08
-8.51702e-08
9.02798e-08
-4.85739e-08
1.05331e-07
-1.43719e-08
1.12891e-07
1.67724e-08
1.13653e-07
4.4245e-08
1.08457e-07
6.74656e-08
9.82833e-08
8.58641e-08
8.42427e-08
9.88525e-08
6.7576e-08
1.05797e-07
4.96613e-08
1.06e-07
3.20368e-08
9.86874e-08
1.64481e-08
8.30239e-08
4.93264e-09
5.81373e-08
2.31085e-08
-1.18295e-09
-4.62259e-09
-5.6802e-09
-2.89973e-09
-1.40439e-08
6.25342e-09
-2.6574e-08
2.03757e-08
-4.34218e-08
3.77453e-08
-6.46546e-08
5.71213e-08
-9.02999e-08
7.76535e-08
-1.20373e-07
9.8797e-08
-1.54889e-07
1.20227e-07
-1.93868e-07
1.41765e-07
-2.37329e-07
1.63323e-07
-2.85284e-07
1.84857e-07
-3.37724e-07
2.06328e-07
-3.94615e-07
2.27684e-07
-4.55877e-07
2.4884e-07
-5.21383e-07
2.69665e-07
-5.90943e-07
2.8998e-07
-6.64299e-07
3.09557e-07
-7.4112e-07
3.28122e-07
-8.20997e-07
3.45358e-07
-9.03444e-07
3.60919e-07
-9.87898e-07
3.74435e-07
-1.07373e-06
3.85525e-07
-1.16023e-06
3.93813e-07
-1.24667e-06
3.98935e-07
-1.33225e-06
4.00555e-07
-1.41615e-06
3.98376e-07
-1.49755e-06
3.92148e-07
-1.57561e-06
3.81678e-07
-1.64952e-06
3.66838e-07
-1.7185e-06
3.47568e-07
-1.78179e-06
3.23878e-07
-1.8387e-06
2.95852e-07
-1.88858e-06
2.63646e-07
-1.93086e-06
2.27486e-07
-1.96501e-06
1.87666e-07
-1.9906e-06
1.44545e-07
-2.00726e-06
9.85416e-08
-2.01469e-06
5.01237e-08
-2.01273e-06
-7.41539e-11
-2.00115e-06
-5.17481e-08
-1.97995e-06
-1.04011e-07
-1.94916e-06
-1.56312e-07
-1.9089e-06
-2.07961e-07
-1.85939e-06
-2.5825e-07
-1.80093e-06
-3.06457e-07
-1.73394e-06
-3.51855e-07
-1.65893e-06
-3.93727e-07
-1.57653e-06
-4.31376e-07
-1.48746e-06
-4.64142e-07
-1.39257e-06
-4.91419e-07
-1.29278e-06
-5.12674e-07
-1.18914e-06
-5.27464e-07
-1.08278e-06
-5.35455e-07
-9.7487e-07
-5.36441e-07
-8.66667e-07
-5.30358e-07
-7.5944e-07
-5.17293e-07
-6.54465e-07
-4.97494e-07
-5.52991e-07
-4.71368e-07
-4.56211e-07
-4.39478e-07
-3.65234e-07
-4.02527e-07
-2.81052e-07
-3.61344e-07
-2.04515e-07
-3.16854e-07
-1.36308e-07
-2.70055e-07
-7.69321e-08
-2.21982e-07
-2.66934e-08
-1.73678e-07
1.43057e-08
-1.26169e-07
4.61665e-08
-8.04347e-08
6.91904e-08
-3.73958e-08
8.38718e-08
2.09107e-09
9.08852e-08
3.72316e-08
9.10745e-08
6.72763e-08
8.54407e-08
9.14979e-08
7.51329e-08
1.0916e-07
6.14447e-08
1.19486e-07
4.5821e-08
1.21624e-07
2.98788e-08
1.1463e-07
1.54494e-08
9.74533e-08
4.64706e-09
6.89396e-08
2.77556e-08
-2.17435e-09
-2.44826e-09
-9.2171e-09
4.14305e-09
-2.13338e-08
1.83701e-08
-3.855e-08
3.75919e-08
-6.08075e-08
6.00028e-08
-8.80215e-08
8.43352e-08
-1.20116e-07
1.09748e-07
-1.57041e-07
1.35722e-07
-1.98776e-07
1.61962e-07
-2.45322e-07
1.88311e-07
-2.96688e-07
2.1469e-07
-3.52878e-07
2.41047e-07
-4.13872e-07
2.67322e-07
-4.79613e-07
2.93425e-07
-5.49991e-07
3.19218e-07
-6.24832e-07
3.44506e-07
-7.03891e-07
3.69039e-07
-7.86843e-07
3.92509e-07
-8.73279e-07
4.14558e-07
-9.62708e-07
4.34787e-07
-1.05456e-06
4.52769e-07
-1.14818e-06
4.68059e-07
-1.24287e-06
4.80211e-07
-1.33785e-06
4.88792e-07
-1.43231e-06
4.93397e-07
-1.52542e-06
4.93663e-07
-1.61632e-06
4.89278e-07
-1.70417e-06
4.79995e-07
-1.78813e-06
4.65639e-07
-1.8674e-06
4.46107e-07
-1.94121e-06
4.2138e-07
-2.00885e-06
3.91515e-07
-2.06964e-06
3.5665e-07
-2.123e-06
3.16999e-07
-2.16836e-06
2.7285e-07
-2.20526e-06
2.24559e-07
-2.23326e-06
1.7255e-07
-2.25203e-06
1.17306e-07
-2.26127e-06
5.93678e-08
-2.26072e-06
-6.22549e-10
-2.25031e-06
-6.21623e-08
-2.22989e-06
-1.24426e-07
-2.19947e-06
-1.8673e-07
-2.15912e-06
-2.48311e-07
-2.109e-06
-3.08379e-07
-2.04933e-06
-3.66119e-07
-1.98048e-06
-4.20709e-07
-1.90288e-06
-4.71325e-07
-1.8171e-06
-5.17161e-07
-1.7238e-06
-5.57441e-07
-1.62378e-06
-5.91442e-07
-1.51794e-06
-6.18511e-07
-1.40731e-06
-6.38094e-07
-1.29301e-06
-6.49749e-07
-1.17628e-06
-6.53178e-07
-1.0584e-06
-6.48238e-07
-9.40725e-07
-6.34966e-07
-8.24637e-07
-6.13582e-07
-7.11507e-07
-5.84498e-07
-6.02669e-07
-5.48316e-07
-4.99383e-07
-5.05813e-07
-4.02803e-07
-4.57925e-07
-3.13939e-07
-4.05718e-07
-2.33634e-07
-3.50359e-07
-1.62539e-07
-2.93076e-07
-1.01094e-07
-2.35124e-07
-4.95186e-08
-1.77745e-07
-7.8072e-09
-1.22146e-07
2.42669e-08
-6.947e-08
4.71455e-08
-2.07875e-08
6.14741e-08
2.2903e-08
6.80874e-08
6.0663e-08
6.79968e-08
9.15886e-08
6.23785e-08
1.14779e-07
5.25676e-08
1.29296e-07
4.00613e-08
1.3413e-07
2.65336e-08
1.28157e-07
1.38664e-08
1.1012e-07
4.19702e-09
7.86091e-08
3.19526e-08
-3.2582e-09
8.09932e-10
-1.30761e-08
1.39609e-08
-2.92645e-08
3.45585e-08
-5.15335e-08
5.9861e-08
-7.95839e-08
8.80532e-08
-1.13156e-07
1.17907e-07
-1.52055e-07
1.48647e-07
-1.96156e-07
1.79823e-07
-2.45392e-07
2.11198e-07
-2.99741e-07
2.42659e-07
-3.59195e-07
2.74144e-07
-4.23746e-07
3.05597e-07
-4.93354e-07
3.3693e-07
-5.67934e-07
3.68006e-07
-6.47339e-07
3.98622e-07
-7.31344e-07
4.28512e-07
-8.19645e-07
4.57339e-07
-9.11845e-07
4.84709e-07
-1.00746e-06
5.10176e-07
-1.10593e-06
5.33253e-07
-1.2066e-06
5.53435e-07
-1.30874e-06
5.70206e-07
-1.41159e-06
5.83063e-07
-1.51433e-06
5.91528e-07
-1.6161e-06
5.95169e-07
-1.71605e-06
5.93609e-07
-1.81331e-06
5.86539e-07
-1.90704e-06
5.7373e-07
-1.99644e-06
5.55034e-07
-2.08072e-06
5.30389e-07
-2.15916e-06
4.99819e-07
-2.23108e-06
4.63435e-07
-2.29586e-06
4.21429e-07
-2.35293e-06
3.74071e-07
-2.40178e-06
3.21704e-07
-2.44196e-06
2.64739e-07
-2.47307e-06
2.03654e-07
-2.49475e-06
1.38984e-07
-2.5067e-06
7.13242e-08
-2.50867e-06
1.34608e-09
-2.5005e-06
-7.03321e-08
-2.48204e-06
-1.42885e-07
-2.45322e-06
-2.15547e-07
-2.41405e-06
-2.87487e-07
-2.36459e-06
-3.57835e-07
-2.30501e-06
-4.25696e-07
-2.23557e-06
-4.9015e-07
-2.15663e-06
-5.50271e-07
-2.06865e-06
-6.05139e-07
-1.97223e-06
-6.53857e-07
-1.8681e-06
-6.95571e-07
-1.75712e-06
-7.29499e-07
-1.64026e-06
-7.54949e-07
-1.51866e-06
-7.71353e-07
-1.39354e-06
-7.78292e-07
-1.26626e-06
-7.75519e-07
-1.13824e-06
-7.62989e-07
-1.01095e-06
-7.40866e-07
-8.85908e-07
-7.09543e-07
-7.64587e-07
-6.69637e-07
-6.48419e-07
-6.21981e-07
-5.38736e-07
-5.67608e-07
-4.36732e-07
-5.07722e-07
-3.43432e-07
-4.4366e-07
-2.59656e-07
-3.76852e-07
-1.86001e-07
-3.08779e-07
-1.22823e-07
-2.40923e-07
-7.02303e-08
-1.74738e-07
-2.80862e-08
-1.11614e-07
3.98705e-09
-5.28607e-08
2.6595e-08
2.95079e-10
4.0554e-08
4.67039e-08
4.68786e-08
8.5264e-08
4.67644e-08
1.14893e-07
4.15795e-08
1.34481e-07
3.28615e-08
1.42848e-07
2.23243e-08
1.38695e-07
1.18749e-08
1.2057e-07
3.63906e-09
8.68449e-08
3.55917e-08
-4.42048e-09
5.2304e-09
-1.7202e-08
2.67425e-08
-3.77156e-08
5.50721e-08
-6.53213e-08
8.74667e-08
-9.94524e-08
1.22184e-07
-1.39656e-07
1.58112e-07
-1.85607e-07
1.94597e-07
-2.37094e-07
2.3131e-07
-2.94002e-07
2.68106e-07
-3.56277e-07
3.04933e-07
-4.23891e-07
3.41759e-07
-4.96815e-07
3.78521e-07
-5.74985e-07
4.151e-07
-6.58283e-07
4.51303e-07
-7.46517e-07
4.86856e-07
-8.3941e-07
5.21405e-07
-9.36593e-07
5.54523e-07
-1.03761e-06
5.85721e-07
-1.14189e-06
6.14463e-07
-1.24882e-06
6.40177e-07
-1.35766e-06
6.62283e-07
-1.46766e-06
6.80203e-07
-1.57799e-06
6.93388e-07
-1.68779e-06
7.01331e-07
-1.7962e-06
7.03585e-07
-1.90237e-06
6.99775e-07
-2.00544e-06
6.89612e-07
-2.10461e-06
6.72893e-07
-2.19908e-06
6.4951e-07
-2.28814e-06
6.19445e-07
-2.37109e-06
5.82773e-07
-2.44731e-06
5.39657e-07
-2.51622e-06
4.90338e-07
-2.57729e-06
4.35137e-07
-2.63003e-06
3.74445e-07
-2.67401e-06
3.08717e-07
-2.70883e-06
2.38474e-07
-2.73414e-06
1.64291e-07
-2.74962e-06
8.68042e-08
-2.75498e-06
6.70595e-09
-2.75002e-06
-7.52904e-08
-2.73454e-06
-1.58366e-07
-2.7084e-06
-2.41685e-07
-2.67153e-06
-3.24358e-07
-2.62391e-06
-4.0545e-07
-2.56562e-06
-4.83988e-07
-2.49681e-06
-5.58964e-07
-2.41773e-06
-6.29352e-07
-2.32875e-06
-6.94117e-07
-2.23037e-06
-7.52236e-07
-2.12322e-06
-8.02719e-07
-2.00809e-06
-8.44635e-07
-1.8859e-06
-8.77141e-07
-1.75773e-06
-8.99515e-07
-1.62484e-06
-9.1119e-07
-1.48857e-06
-9.11784e-07
-1.35043e-06
-9.01133e-07
-1.21198e-06
-8.79315e-07
-1.07486e-06
-8.46666e-07
-9.40704e-07
-8.03789e-07
-8.11133e-07
-7.51551e-07
-6.87676e-07
-6.91065e-07
-5.71736e-07
-6.23662e-07
-4.64544e-07
-5.50852e-07
-3.67122e-07
-4.74275e-07
-2.8025e-07
-3.9565e-07
-2.04447e-07
-3.16726e-07
-1.39959e-07
-2.39226e-07
-8.67561e-08
-1.64817e-07
-4.45397e-08
-9.50772e-08
-1.2757e-08
-3.14876e-08
9.38423e-09
2.45627e-08
2.28934e-08
7.17549e-08
2.89805e-08
1.08806e-07
2.90405e-08
1.34421e-07
2.46437e-08
1.47245e-07
1.75327e-08
1.45805e-07
9.62547e-09
1.28477e-07
3.0203e-09
9.345e-08
3.8612e-08
-5.64831e-09
1.08787e-08
-2.15399e-08
4.2634e-08
-4.65681e-08
8.01004e-08
-7.97127e-08
1.20611e-07
-1.20119e-07
1.6259e-07
-1.67126e-07
2.05119e-07
-2.20267e-07
2.47739e-07
-2.79243e-07
2.90286e-07
-3.43882e-07
3.32745e-07
-4.14093e-07
3.75145e-07
-4.89826e-07
4.17492e-07
-5.71025e-07
4.59719e-07
-6.57594e-07
5.0167e-07
-7.49379e-07
5.43088e-07
-8.46139e-07
5.83616e-07
-9.47542e-07
6.22808e-07
-1.05316e-06
6.60139e-07
-1.16246e-06
6.95024e-07
-1.27483e-06
7.26836e-07
-1.38958e-06
7.54924e-07
-1.50594e-06
7.7864e-07
-1.62309e-06
7.97358e-07
-1.7402e-06
8.10495e-07
-1.8564e-06
8.17528e-07
-1.97082e-06
8.18012e-07
-2.08264e-06
8.11589e-07
-2.19102e-06
7.97996e-07
-2.2952e-06
7.77071e-07
-2.39444e-06
7.48749e-07
-2.48806e-06
7.13061e-07
-2.57541e-06
6.70132e-07
-2.65593e-06
6.20171e-07
-2.72906e-06
5.63467e-07
-2.7943e-06
5.00383e-07
-2.8512e-06
4.31346e-07
-2.89934e-06
3.56851e-07
-2.93831e-06
2.77446e-07
-2.96776e-06
1.93741e-07
-2.98735e-06
1.06397e-07
-2.99678e-06
1.61315e-08
-2.99578e-06
-7.62932e-08
-2.9841e-06
-1.70042e-07
-2.96155e-06
-2.64236e-07
-2.92797e-06
-3.5794e-07
-2.88325e-06
-4.50162e-07
-2.82738e-06
-5.39864e-07
-2.76038e-06
-6.2596e-07
-2.6824e-06
-7.07329e-07
-2.59369e-06
-7.82827e-07
-2.49462e-06
-8.51306e-07
-2.38571e-06
-9.11631e-07
-2.26763e-06
-9.62715e-07
-2.14123e-06
-1.00355e-06
-2.00751e-06
-1.03323e-06
-1.86769e-06
-1.05101e-06
-1.72314e-06
-1.05634e-06
-1.57536e-06
-1.04891e-06
-1.42603e-06
-1.02865e-06
-1.27689e-06
-9.95806e-07
-1.12974e-06
-9.50933e-07
-9.86401e-07
-8.94893e-07
-8.48612e-07
-8.28854e-07
-7.18016e-07
-7.54259e-07
-5.96085e-07
-6.72783e-07
-4.84076e-07
-5.86283e-07
-3.8299e-07
-4.96736e-07
-2.93543e-07
-4.06173e-07
-2.16147e-07
-3.16623e-07
-1.50905e-07
-2.30059e-07
-9.76184e-08
-1.48363e-07
-5.58007e-08
-7.33054e-08
-2.4696e-08
-6.54196e-09
-3.30521e-09
5.03641e-08
9.59138e-09
9.59091e-08
1.5412e-08
1.28601e-07
1.57558e-08
1.46901e-07
1.23902e-08
1.49171e-07
7.24045e-09
1.33627e-07
2.37826e-09
9.83122e-08
4.09902e-08
-6.92579e-09
1.78045e-08
-2.60316e-08
6.17398e-08
-5.56991e-08
1.09768e-07
-9.45034e-08
1.59416e-07
-1.41285e-07
2.09371e-07
-1.95166e-07
2.59e-07
-2.55533e-07
3.08106e-07
-3.21991e-07
3.56745e-07
-3.94311e-07
4.05064e-07
-4.72362e-07
4.53197e-07
-5.56064e-07
5.01193e-07
-6.45329e-07
5.48984e-07
-7.4003e-07
5.96371e-07
-8.39966e-07
6.43024e-07
-9.44848e-07
6.88498e-07
-1.05429e-06
7.32249e-07
-1.1678e-06
7.73651e-07
-1.2848e-06
8.12022e-07
-1.40461e-06
8.46649e-07
-1.5265e-06
8.76811e-07
-1.64966e-06
9.01803e-07
-1.77327e-06
9.20962e-07
-1.89646e-06
9.33686e-07
-2.01838e-06
9.3945e-07
-2.13819e-06
9.37825e-07
-2.25509e-06
9.2848e-07
-2.36828e-06
9.1119e-07
-2.47704e-06
8.85835e-07
-2.58069e-06
8.52398e-07
-2.67859e-06
8.10959e-07
-2.77015e-06
7.61689e-07
-2.85482e-06
7.04842e-07
-2.9321e-06
6.40745e-07
-3.00151e-06
5.69798e-07
-3.06262e-06
4.92461e-07
-3.11503e-06
4.09253e-07
-3.15833e-06
3.2075e-07
-3.19217e-06
2.27582e-07
-3.2162e-06
1.30429e-07
-3.2301e-06
3.00272e-08
-3.23356e-06
-7.28353e-08
-3.22629e-06
-1.77308e-07
-3.20804e-06
-2.82485e-07
-3.17859e-06
-3.87397e-07
-3.13773e-06
-4.91016e-07
-3.08535e-06
-5.9225e-07
-3.02136e-06
-6.89949e-07
-2.94578e-06
-7.82911e-07
-2.85871e-06
-8.69893e-07
-2.76039e-06
-9.49626e-07
-2.65119e-06
-1.02083e-06
-2.53163e-06
-1.08227e-06
-2.40245e-06
-1.13273e-06
-2.26454e-06
-1.17114e-06
-2.11902e-06
-1.19652e-06
-1.96724e-06
-1.20813e-06
-1.8107e-06
-1.20544e-06
-1.65112e-06
-1.18823e-06
-1.49035e-06
-1.15657e-06
-1.33035e-06
-1.11093e-06
-1.17312e-06
-1.05212e-06
-1.02065e-06
-9.8133e-07
-8.74827e-07
-9.00078e-07
-7.37415e-07
-8.10195e-07
-6.09944e-07
-7.13755e-07
-4.93679e-07
-6.13001e-07
-3.89576e-07
-5.10276e-07
-2.98255e-07
-4.07944e-07
-2.19988e-07
-3.08327e-07
-1.54702e-07
-2.13649e-07
-1.01998e-07
-1.26009e-07
-6.11714e-08
-4.73687e-08
-3.12418e-08
2.04344e-08
-1.09846e-08
7.56519e-08
1.03998e-09
1.16576e-07
6.46038e-09
1.41481e-07
7.07115e-09
1.4856e-07
4.81148e-09
1.35886e-07
1.74072e-09
1.01383e-07
4.2731e-08
-8.23563e-09
2.60401e-08
-3.06145e-08
8.41186e-08
-6.49792e-08
1.44133e-07
-1.09482e-07
2.03918e-07
-1.62648e-07
2.62537e-07
-2.23375e-07
3.19727e-07
-2.909e-07
3.75631e-07
-3.64732e-07
4.30576e-07
-4.44577e-07
4.84909e-07
-5.30266e-07
5.38886e-07
-6.21681e-07
5.92609e-07
-7.18703e-07
6.46006e-07
-8.21164e-07
6.98831e-07
-9.28819e-07
7.50679e-07
-1.04133e-06
8.01008e-07
-1.15825e-06
8.49171e-07
-1.27904e-06
8.94444e-07
-1.40307e-06
9.36052e-07
-1.52963e-06
9.73202e-07
-1.65793e-06
1.00511e-06
-1.78715e-06
1.03103e-06
-1.91647e-06
1.05028e-06
-2.04503e-06
1.06224e-06
-2.17198e-06
1.06641e-06
-2.29653e-06
1.06237e-06
-2.41789e-06
1.04984e-06
-2.53534e-06
1.02863e-06
-2.64818e-06
9.98675e-07
-2.75577e-06
9.59995e-07
-2.85754e-06
9.12722e-07
-2.95292e-06
8.57068e-07
-3.0414e-06
7.93329e-07
-3.12253e-06
7.21869e-07
-3.19585e-06
6.43117e-07
-3.26095e-06
5.57562e-07
-3.31744e-06
4.65747e-07
-3.36496e-06
3.68266e-07
-3.40314e-06
2.65764e-07
-3.43165e-06
1.58935e-07
-3.45014e-06
4.85252e-08
-3.45831e-06
-6.46663e-08
-3.45584e-06
-1.79781e-07
-3.44242e-06
-2.95903e-07
-3.41777e-06
-4.12047e-07
-3.38162e-06
-5.27164e-07
-3.33375e-06
-6.40128e-07
-3.27395e-06
-7.49746e-07
-3.2021e-06
-8.54754e-07
-3.11817e-06
-9.53826e-07
-3.02221e-06
-1.04558e-06
-2.91442e-06
-1.12862e-06
-2.79516e-06
-1.20153e-06
-2.66497e-06
-1.26293e-06
-2.52461e-06
-1.3115e-06
-2.37506e-06
-1.34607e-06
-2.21757e-06
-1.36563e-06
-2.0536e-06
-1.36941e-06
-1.88488e-06
-1.35695e-06
-1.71331e-06
-1.32814e-06
-1.541e-06
-1.28325e-06
-1.37011e-06
-1.22301e-06
-1.2029e-06
-1.14855e-06
-1.04153e-06
-1.06144e-06
-8.88074e-07
-9.63651e-07
-7.44386e-07
-8.57443e-07
-6.12048e-07
-7.45339e-07
-4.9231e-07
-6.30014e-07
-3.86051e-07
-5.14204e-07
-2.93756e-07
-4.00621e-07
-2.15522e-07
-2.91883e-07
-1.51065e-07
-1.90467e-07
-9.97509e-08
-9.86825e-08
-6.0633e-08
-1.86835e-08
-3.24876e-08
4.75065e-08
-1.38543e-08
9.79428e-08
-3.07184e-09
1.30698e-07
1.68978e-09
1.43799e-07
2.39879e-09
1.35177e-07
1.12554e-09
1.02656e-07
4.38565e-08
-9.5586e-09
3.55987e-08
-3.52211e-08
1.09781e-07
-7.4272e-08
1.83183e-07
-1.2443e-07
2.54076e-07
-1.83898e-07
3.22005e-07
-2.51348e-07
3.87178e-07
-3.25865e-07
4.50148e-07
-4.06861e-07
5.11572e-07
-4.93978e-07
5.72027e-07
-5.87002e-07
6.3191e-07
-6.85779e-07
6.91385e-07
-7.9015e-07
7.50377e-07
-8.99906e-07
8.08588e-07
-1.01476e-06
8.65529e-07
-1.13431e-06
9.20563e-07
-1.25808e-06
9.72939e-07
-1.38547e-06
1.02183e-06
-1.51581e-06
1.06639e-06
-1.64834e-06
1.10574e-06
-1.78228e-06
1.13905e-06
-1.9168e-06
1.16555e-06
-2.05105e-06
1.18453e-06
-2.18421e-06
1.1954e-06
-2.31546e-06
1.19766e-06
-2.44403e-06
1.19094e-06
-2.56918e-06
1.17499e-06
-2.69021e-06
1.14967e-06
-2.80649e-06
1.11495e-06
-2.91741e-06
1.07092e-06
-3.02243e-06
1.01774e-06
-3.12104e-06
9.55674e-07
-3.21276e-06
8.8505e-07
-3.29716e-06
8.06269e-07
-3.37383e-06
7.19791e-07
-3.4424e-06
6.26132e-07
-3.50251e-06
5.25855e-07
-3.55382e-06
4.19573e-07
-3.59599e-06
3.07942e-07
-3.62872e-06
1.91665e-07
-3.65169e-06
7.14892e-08
-3.66457e-06
-5.17862e-08
-3.66704e-06
-1.77308e-07
-3.65878e-06
-3.04163e-07
-3.63946e-06
-4.31373e-07
-3.60873e-06
-5.57886e-07
-3.56629e-06
-6.82569e-07
-3.51183e-06
-8.04208e-07
-3.44508e-06
-9.21501e-07
-3.36585e-06
-1.03306e-06
-3.274e-06
-1.13743e-06
-3.16953e-06
-1.23309e-06
-3.05259e-06
-1.31847e-06
-2.9235e-06
-1.39201e-06
-2.78282e-06
-1.45218e-06
-2.63135e-06
-1.49754e-06
-2.47016e-06
-1.52682e-06
-2.30061e-06
-1.53895e-06
-2.12438e-06
-1.53319e-06
-1.94338e-06
-1.50913e-06
-1.75979e-06