/*--------------------------------*- C++ -*----------------------------------*\
  =========                 |
  \\      /  F ield         | OpenFOAM: The Open Source CFD Toolbox
   \\    /   O peration     | Website:  https://openfoam.org
    \\  /    A nd           | Version:  7
     \\/     M anipulation  |
\*---------------------------------------------------------------------------*/
FoamFile
{
    version     2.0;
    format      ascii;
    class       volVectorField;
    location    "1.1";
    object      U;
}
// * * * * * * * * * * * * * * * * * * * * * * * * * * * * * * * * * * * * * //

dimensions      [0 1 -1 0 0 0 0];

internalField   nonuniform List<vector> 
6400
(
(8.67872e-06 -8.65273e-06 0)
(3.39168e-05 -1.59135e-05 0)
(6.43278e-05 -1.45815e-05 0)
(8.30747e-05 -8.83192e-06 0)
(8.17735e-05 -1.33955e-06 0)
(5.76991e-05 6.55223e-06 0)
(1.04766e-05 1.41804e-05 0)
(-5.90462e-05 2.12405e-05 0)
(-0.000149337 2.76047e-05 0)
(-0.000258511 3.32349e-05 0)
(-0.000384547 3.81414e-05 0)
(-0.000525406 4.23599e-05 0)
(-0.000679097 4.59376e-05 0)
(-0.000843728 4.89267e-05 0)
(-0.00101752 5.13799e-05 0)
(-0.00119881 5.33446e-05 0)
(-0.00138606 5.48673e-05 0)
(-0.00157786 5.59884e-05 0)
(-0.00177289 5.67427e-05 0)
(-0.0019699 5.71588e-05 0)
(-0.00216775 5.72591e-05 0)
(-0.00236534 5.70601e-05 0)
(-0.00256162 5.65739e-05 0)
(-0.00275556 5.58073e-05 0)
(-0.00294616 5.47636e-05 0)
(-0.00313243 5.34425e-05 0)
(-0.00331338 5.18409e-05 0)
(-0.00348801 4.99548e-05 0)
(-0.00365531 4.77777e-05 0)
(-0.00381426 4.53045e-05 0)
(-0.00396386 4.25304e-05 0)
(-0.00410306 3.94516e-05 0)
(-0.00423084 3.6066e-05 0)
(-0.00434618 3.23743e-05 0)
(-0.00444808 2.83812e-05 0)
(-0.00453558 2.40953e-05 0)
(-0.00460775 1.95291e-05 0)
(-0.00466373 1.47003e-05 0)
(-0.00470271 9.63131e-06 0)
(-0.00472401 4.34985e-06 0)
(-0.00472701 -1.11107e-06 0)
(-0.00471126 -6.71306e-06 0)
(-0.0046764 -1.24124e-05 0)
(-0.00462226 -1.81607e-05 0)
(-0.00454882 -2.39049e-05 0)
(-0.00445624 -2.95883e-05 0)
(-0.00434488 -3.51509e-05 0)
(-0.00421529 -4.05299e-05 0)
(-0.00406822 -4.56611e-05 0)
(-0.00390463 -5.04799e-05 0)
(-0.00372569 -5.49221e-05 0)
(-0.00353277 -5.89251e-05 0)
(-0.00332742 -6.24299e-05 0)
(-0.00311138 -6.53814e-05 0)
(-0.00288656 -6.77299e-05 0)
(-0.002655 -6.94315e-05 0)
(-0.00241887 -7.04498e-05 0)
(-0.00218046 -7.07568e-05 0)
(-0.00194209 -7.0334e-05 0)
(-0.00170615 -6.91727e-05 0)
(-0.00147504 -6.72741e-05 0)
(-0.00125112 -6.46493e-05 0)
(-0.0010367 -6.13194e-05 0)
(-0.000834007 -5.7316e-05 0)
(-0.000645128 -5.26808e-05 0)
(-0.000472003 -4.7465e-05 0)
(-0.00031638 -4.17289e-05 0)
(-0.000179783 -3.55421e-05 0)
(-6.34776e-05 -2.89841e-05 0)
(3.15677e-05 -2.21472e-05 0)
(0.000104726 -1.51361e-05 0)
(0.000155771 -8.07826e-06 0)
(0.000184956 -1.13427e-06 0)
(0.000193128 5.47947e-06 0)
(0.000181925 1.14519e-05 0)
(0.000154054 1.63028e-05 0)
(0.000113679 1.92807e-05 0)
(6.71561e-05 1.91609e-05 0)
(2.52311e-05 1.41065e-05 0)
(3.56958e-06 3.58354e-06 0)
(1.60376e-05 -3.39561e-05 0)
(5.45184e-05 -5.42757e-05 0)
(8.86838e-05 -4.13657e-05 0)
(9.04707e-05 -9.8246e-06 0)
(4.40316e-05 3.07443e-05 0)
(-5.75415e-05 7.45828e-05 0)
(-0.000216426 0.000118306 0)
(-0.000431768 0.000159975 0)
(-0.000700756 0.000198528 0)
(-0.0010194 0.000233431 0)
(-0.00138306 0.000264479 0)
(-0.00178683 0.000291659 0)
(-0.00222572 0.000315086 0)
(-0.00269487 0.000334937 0)
(-0.00318956 0.000351426 0)
(-0.00370532 0.000364777 0)
(-0.00423795 0.00037521 0)
(-0.00478345 0.000382929 0)
(-0.00533811 0.000388118 0)
(-0.00589838 0.000390933 0)
(-0.00646092 0.000391504 0)
(-0.00702254 0.00038993 0)
(-0.00758014 0.000386287 0)
(-0.00813074 0.000380624 0)
(-0.0086714 0.000372971 0)
(-0.0091992 0.00036334 0)
(-0.00971128 0.000351729 0)
(-0.0102047 0.000338128 0)
(-0.0106767 0.000322522 0)
(-0.0111243 0.000304899 0)
(-0.0115446 0.000285248 0)
(-0.0119348 0.000263569 0)
(-0.0122919 0.000239878 0)
(-0.0126133 0.000214205 0)
(-0.0128961 0.0001866 0)
(-0.0131378 0.000157142 0)
(-0.0133358 0.000125933 0)
(-0.013488 9.3106e-05 0)
(-0.0135921 5.8823e-05 0)
(-0.0136464 2.32784e-05 0)
(-0.0136494 -1.33021e-05 0)
(-0.0135998 -5.06617e-05 0)
(-0.0134969 -8.8513e-05 0)
(-0.0133404 -0.000126541 0)
(-0.0131303 -0.000164404 0)
(-0.0128672 -0.000201741 0)
(-0.0125522 -0.000238171 0)
(-0.0121868 -0.000273302 0)
(-0.0117734 -0.000306732 0)
(-0.0113146 -0.000338062 0)
(-0.0108136 -0.000366895 0)
(-0.0102742 -0.000392849 0)
(-0.00970074 -0.000415561 0)
(-0.00909797 -0.000434694 0)
(-0.00847108 -0.000449948 0)
(-0.00782562 -0.000461059 0)
(-0.00716751 -0.000467811 0)
(-0.00650287 -0.000470041 0)
(-0.00583804 -0.00046764 0)
(-0.00517944 -0.000460563 0)
(-0.0045335 -0.000448826 0)
(-0.0039066 -0.000432509 0)
(-0.00330493 -0.000411759 0)
(-0.00273445 -0.000386788 0)
(-0.00220074 -0.000357875 0)
(-0.00170896 -0.000325364 0)
(-0.00126375 -0.000289667 0)
(-0.00086908 -0.000251261 0)
(-0.000528213 -0.0002107 0)
(-0.000243554 -0.000168622 0)
(-1.6528e-05 -0.000125766 0)
(0.000152578 -8.30094e-05 0)
(0.000264822 -4.14198e-05 0)
(0.000322879 -2.34731e-06 0)
(0.000331427 3.24397e-05 0)
(0.00029764 6.05411e-05 0)
(0.000231675 7.86576e-05 0)
(0.00014736 8.22284e-05 0)
(6.52916e-05 6.54228e-05 0)
(1.39895e-05 2.51461e-05 0)
(1.48956e-05 -6.47237e-05 0)
(4.21076e-05 -8.86647e-05 0)
(4.5814e-05 -4.51054e-05 0)
(-4.32267e-06 3.83104e-05 0)
(-0.000126372 0.000143159 0)
(-0.000329212 0.000257097 0)
(-0.000616126 0.000372095 0)
(-0.000986419 0.000483089 0)
(-0.00143663 0.000587013 0)
(-0.00196147 0.000682116 0)
(-0.00255456 0.000767522 0)
(-0.00320892 0.000842929 0)
(-0.00391734 0.000908402 0)
(-0.00467258 0.00096424 0)
(-0.00546758 0.00101087 0)
(-0.0062955 0.00104879 0)
(-0.00714983 0.00107852 0)
(-0.00802434 0.00110053 0)
(-0.00891313 0.00111528 0)
(-0.00981057 0.00112316 0)
(-0.0107113 0.00112451 0)
(-0.0116101 0.00111959 0)
(-0.0125021 0.00110861 0)
(-0.0133823 0.00109171 0)
(-0.0142459 0.00106899 0)
(-0.0150884 0.00104048 0)
(-0.0159049 0.00100622 0)
(-0.0166909 0.000966201 0)
(-0.0174418 0.000920407 0)
(-0.0181529 0.000868834 0)
(-0.0188196 0.000811491 0)
(-0.0194375 0.000748411 0)
(-0.0200019 0.000679668 0)
(-0.0205086 0.000605383 0)
(-0.0209534 0.000525735 0)
(-0.0213322 0.000440968 0)
(-0.0216411 0.000351401 0)
(-0.0218768 0.000257429 0)
(-0.0220361 0.00015953 0)
(-0.0221162 5.82665e-05 0)
(-0.022115 -4.57142e-05 0)
(-0.0220308 -0.000151684 0)
(-0.0218624 -0.000258833 0)
(-0.0216095 -0.00036628 0)
(-0.0212724 -0.000473077 0)
(-0.0208521 -0.00057822 0)
(-0.0203504 -0.000680659 0)
(-0.0197699 -0.000779316 0)
(-0.0191142 -0.000873095 0)
(-0.0183876 -0.0009609 0)
(-0.017595 -0.00104166 0)
(-0.0167426 -0.00111432 0)
(-0.0158369 -0.00117792 0)
(-0.0148854 -0.00123153 0)
(-0.0138961 -0.00127434 0)
(-0.0128776 -0.00130565 0)
(-0.0118389 -0.00132488 0)
(-0.0107896 -0.0013316 0)
(-0.00973936 -0.00132552 0)
(-0.00869805 -0.00130652 0)
(-0.00767556 -0.00127467 0)
(-0.00668165 -0.00123019 0)
(-0.00572581 -0.00117352 0)
(-0.00481715 -0.00110525 0)
(-0.00396422 -0.00102617 0)
(-0.00317488 -0.000937253 0)
(-0.00245615 -0.000839679 0)
(-0.00181406 -0.00073481 0)
(-0.00125347 -0.000624229 0)
(-0.000777936 -0.000509758 0)
(-0.000389453 -0.00039351 0)
(-8.82796e-05 -0.00027796 0)
(0.000127364 -0.000166059 0)
(0.000261629 -6.14086e-05 0)
(0.000321472 3.14996e-05 0)
(0.000317151 0.000106966 0)
(0.000262572 0.000157748 0)
(0.000175726 0.00017478 0)
(8.23904e-05 0.000147483 0)
(1.90097e-05 6.68479e-05 0)
(9.32481e-06 -8.41475e-05 0)
(1.07082e-05 -9.0786e-05 0)
(-3.82365e-05 5.06694e-06 0)
(-0.000164099 0.000163053 0)
(-0.00038387 0.000355969 0)
(-0.000706645 0.000564618 0)
(-0.00113576 0.000775791 0)
(-0.00167025 0.000980712 0)
(-0.00230603 0.00117375 0)
(-0.00303683 0.00135147 0)
(-0.00385496 0.00151198 0)
(-0.0047519 0.00165443 0)
(-0.00571867 0.00177868 0)
(-0.00674621 0.00188507 0)
(-0.00782549 0.0019742 0)
(-0.00894774 0.00204685 0)
(-0.0101045 0.00210385 0)
(-0.0112875 0.00214602 0)
(-0.012489 0.00217412 0)
(-0.0137014 0.00218886 0)
(-0.0149176 0.00219081 0)
(-0.0161305 0.00218046 0)
(-0.0173335 0.00215818 0)
(-0.0185198 0.00212425 0)
(-0.0196831 0.00207885 0)
(-0.0208168 0.00202211 0)
(-0.0219148 0.00195408 0)
(-0.0229707 0.0018748 0)
(-0.0239783 0.00178427 0)
(-0.0249313 0.00168254 0)
(-0.0258238 0.00156965 0)
(-0.0266496 0.00144572 0)
(-0.0274029 0.00131094 0)
(-0.0280778 0.00116559 0)
(-0.0286688 0.00101004 0)
(-0.0291707 0.000844819 0)
(-0.0295786 0.000670564 0)
(-0.029888 0.000488067 0)
(-0.0300949 0.000298273 0)
(-0.0301958 0.000102279 0)
(-0.0301881 -9.86595e-05 0)
(-0.0300695 -0.000303138 0)
(-0.0298389 -0.000509606 0)
(-0.0294959 -0.000716382 0)
(-0.0290411 -0.000921664 0)
(-0.0284759 -0.00112355 0)
(-0.0278028 -0.00132006 0)
(-0.0270256 -0.00150916 0)
(-0.0261487 -0.00168879 0)
(-0.0251781 -0.00185691 0)
(-0.0241203 -0.00201148 0)
(-0.0229833 -0.00215059 0)
(-0.0217758 -0.00227238 0)
(-0.0205075 -0.00237516 0)
(-0.0191889 -0.00245742 0)
(-0.0178313 -0.00251785 0)
(-0.0164463 -0.00255539 0)
(-0.0150465 -0.00256921 0)
(-0.0136444 -0.00255882 0)
(-0.0122528 -0.00252401 0)
(-0.0108846 -0.0024649 0)
(-0.00955241 -0.00238196 0)
(-0.0082686 -0.00227599 0)
(-0.00704495 -0.00214814 0)
(-0.00589254 -0.00199995 0)
(-0.00482154 -0.00183328 0)
(-0.00384103 -0.00165037 0)
(-0.00295876 -0.00145387 0)
(-0.00218099 -0.0012468 0)
(-0.00151223 -0.00103266 0)
(-0.000955028 -0.00081548 0)
(-0.000509684 -0.000599916 0)
(-0.000173956 -0.00039144 0)
(5.72851e-05 -0.000196554 0)
(0.000192455 -2.30987e-05 0)
(0.000243704 0.000119371 0)
(0.000227148 0.000219216 0)
(0.000163181 0.000262476 0)
(8.04316e-05 0.000233066 0)
(1.93398e-05 0.000113515 0)
(1.85858e-06 -8.34983e-05 0)
(-3.07729e-05 -4.37041e-05 0)
(-0.000146747 0.000129059 0)
(-0.000364736 0.00038399 0)
(-0.00069825 0.000686091 0)
(-0.00115521 0.00100985 0)
(-0.00173803 0.00133707 0)
(-0.00244491 0.00165519 0)
(-0.00327089 0.00195583 0)
(-0.00420873 0.00223365 0)
(-0.00524963 0.00248551 0)
(-0.00638377 0.00270983 0)
(-0.00760079 0.00290614 0)
(-0.00889007 0.00307468 0)
(-0.010241 0.00321619 0)
(-0.0116432 0.00333167 0)
(-0.0130864 0.00342226 0)
(-0.0145609 0.00348911 0)
(-0.016057 0.00353334 0)
(-0.0175656 0.00355595 0)
(-0.0190778 0.0035578 0)
(-0.020585 0.00353963 0)
(-0.0220788 0.00350199 0)
(-0.0235509 0.00344534 0)
(-0.0249935 0.00336996 0)
(-0.0263984 0.00327608 0)
(-0.0277579 0.00316382 0)
(-0.0290641 0.00303328 0)
(-0.0303094 0.00288452 0)
(-0.0314862 0.00271766 0)
(-0.0325869 0.00253284 0)
(-0.0336042 0.00233031 0)
(-0.0345308 0.00211042 0)
(-0.0353597 0.00187368 0)
(-0.0360844 0.00162077 0)
(-0.0366984 0.00135255 0)
(-0.0371959 0.00107012 0)
(-0.0375716 0.000774773 0)
(-0.0378207 0.000468059 0)
(-0.0379392 0.000151761 0)
(-0.037924 -0.000172096 0)
(-0.0377727 -0.000501258 0)
(-0.0374839 -0.000833249 0)
(-0.0370574 -0.00116539 0)
(-0.0364938 -0.00149482 0)
(-0.0357953 -0.00181854 0)
(-0.0349651 -0.00213341 0)
(-0.0340075 -0.00243624 0)
(-0.0329283 -0.0027238 0)
(-0.0317345 -0.00299285 0)
(-0.0304343 -0.00324025 0)
(-0.0290372 -0.00346295 0)
(-0.0275538 -0.0036581 0)
(-0.0259958 -0.00382303 0)
(-0.0243757 -0.00395539 0)
(-0.0227071 -0.00405315 0)
(-0.0210043 -0.00411462 0)
(-0.0192819 -0.00413858 0)
(-0.0175552 -0.00412422 0)
(-0.0158395 -0.00407124 0)
(-0.0141502 -0.00397985 0)
(-0.0125026 -0.0038508 0)
(-0.0109113 -0.00368538 0)
(-0.00939057 -0.00348544 0)
(-0.00795364 -0.00325339 0)
(-0.00661273 -0.00299224 0)
(-0.00537869 -0.00270555 0)
(-0.00426084 -0.00239752 0)
(-0.00326669 -0.00207298 0)
(-0.00240167 -0.00173748 0)
(-0.00166891 -0.00139734 0)
(-0.00106893 -0.00105984 0)
(-0.000599338 -0.000733373 0)
(-0.000254512 -0.000427718 0)
(-2.52597e-05 -0.000154379 0)
(0.000101562 7.30231e-05 0)
(0.000143218 0.000238318 0)
(0.000121398 0.000322506 0)
(6.57384e-05 0.0003036 0)
(1.69251e-05 0.000155258 0)
(-6.28158e-06 -5.93484e-05 0)
(-7.71868e-05 6.13978e-05 0)
(-0.000268895 0.000338764 0)
(-0.000589735 0.000714259 0)
(-0.00104809 0.0011465 0)
(-0.00164961 0.00160451 0)
(-0.00239496 0.00206562 0)
(-0.00328087 0.00251372 0)
(-0.00430119 0.00293773 0)
(-0.00544759 0.00333038 0)
(-0.00671012 0.00368719 0)
(-0.0080778 0.00400574 0)
(-0.00953905 0.00428513 0)
(-0.0110819 0.00452543 0)
(-0.0126945 0.00472745 0)
(-0.014365 0.00489237 0)
(-0.0160817 0.00502161 0)
(-0.0178333 0.00511665 0)
(-0.0196088 0.00517892 0)
(-0.0213975 0.00520975 0)
(-0.0231892 0.00521029 0)
(-0.0249736 0.00518153 0)
(-0.026741 0.00512425 0)
(-0.0284816 0.00503905 0)
(-0.0301861 0.0049264 0)
(-0.0318449 0.00478661 0)
(-0.0334489 0.0046199 0)
(-0.034989 0.00442646 0)
(-0.036456 0.00420646 0)
(-0.0378411 0.00396011 0)
(-0.0391355 0.00368771 0)
(-0.0403306 0.00338967 0)
(-0.041418 0.0030666 0)
(-0.0423897 0.00271929 0)
(-0.0432379 0.0023488 0)
(-0.0439555 0.00195645 0)
(-0.0445358 0.00154386 0)
(-0.0449726 0.00111296 0)
(-0.0452606 0.000666046 0)
(-0.0453954 0.000205705 0)
(-0.0453734 -0.000265121 0)
(-0.045192 -0.000743169 0)
(-0.0448498 -0.00122487 0)
(-0.0443465 -0.00170639 0)
(-0.0436834 -0.00218362 0)
(-0.0428627 -0.00265228 0)
(-0.0418883 -0.00310791 0)
(-0.0407653 -0.00354595 0)
(-0.0395005 -0.0039618 0)
(-0.038102 -0.00435091 0)
(-0.0365792 -0.0047088 0)
(-0.034943 -0.00503115 0)
(-0.0332057 -0.00531393 0)
(-0.0313806 -0.00555338 0)
(-0.0294822 -0.00574616 0)
(-0.0275261 -0.0058894 0)
(-0.0255284 -0.00598074 0)
(-0.0235062 -0.00601843 0)
(-0.0214767 -0.00600135 0)
(-0.0194577 -0.00592909 0)
(-0.0174667 -0.00580195 0)
(-0.0155212 -0.00562101 0)
(-0.0136381 -0.00538812 0)
(-0.0118336 -0.00510592 0)
(-0.010123 -0.0047779 0)
(-0.0085203 -0.00440832 0)
(-0.00703804 -0.00400234 0)
(-0.00568697 -0.00356593 0)
(-0.00447579 -0.00310602 0)
(-0.00341091 -0.00263046 0)
(-0.00249613 -0.00214821 0)
(-0.00173239 -0.00166946 0)
(-0.00111747 -0.00120581 0)
(-0.000645694 -0.000770552 0)
(-0.000307654 -0.000379031 0)
(-8.98983e-05 -4.90381e-05 0)
(2.52197e-05 0.000198709 0)
(5.98244e-05 0.000340193 0)
(4.30676e-05 0.000347634 0)
(1.30372e-05 0.000186767 0)
(-1.45216e-05 -1.03241e-05 0)
(-0.000125621 0.000229289 0)
(-0.000397847 0.00064142 0)
(-0.000828032 0.0011624 0)
(-0.00141843 0.00174597 0)
(-0.0021716 0.00235678 0)
(-0.00308576 0.00296833 0)
(-0.00415567 0.00356142 0)
(-0.0053736 0.00412252 0)
(-0.00672987 0.00464252 0)
(-0.00821335 0.00511566 0)
(-0.00981189 0.00553867 0)
(-0.0115127 0.00591016 0)
(-0.0133028 0.00623002 0)
(-0.015169 0.00649905 0)
(-0.0170982 0.0067186 0)
(-0.0190775 0.00689033 0)
(-0.0210944 0.00701601 0)
(-0.0231365 0.00709741 0)
(-0.025192 0.00713614 0)
(-0.027249 0.00713366 0)
(-0.0292962 0.0070912 0)
(-0.0313225 0.00700977 0)
(-0.0333167 0.00689017 0)
(-0.0352683 0.00673301 0)
(-0.0371664 0.00653873 0)
(-0.0390007 0.00630768 0)
(-0.0407606 0.00604017 0)
(-0.042436 0.00573649 0)
(-0.0440168 0.00539699 0)
(-0.045493 0.00502217 0)
(-0.046855 0.00461269 0)
(-0.0480934 0.00416943 0)
(-0.0491991 0.00369356 0)
(-0.0501635 0.00318658 0)
(-0.0509786 0.00265037 0)
(-0.051637 0.00208716 0)
(-0.0521319 0.00149965 0)
(-0.0524575 0.000890931 0)
(-0.0526088 0.000264566 0)
(-0.0525819 -0.000375467 0)
(-0.0523742 -0.00102476 0)
(-0.0519842 -0.00167853 0)
(-0.0514116 -0.00233159 0)
(-0.0506579 -0.00297849 0)
(-0.0497257 -0.00361346 0)
(-0.0486194 -0.00423058 0)
(-0.0473449 -0.00482377 0)
(-0.0459096 -0.00538693 0)
(-0.0443225 -0.00591397 0)
(-0.0425944 -0.00639896 0)
(-0.0407372 -0.00683619 0)
(-0.0387647 -0.00722027 0)
(-0.0366916 -0.00754623 0)
(-0.0345341 -0.00780965 0)
(-0.0323095 -0.0080067 0)
(-0.0300357 -0.00813426 0)
(-0.0277317 -0.00818999 0)
(-0.0254167 -0.00817242 0)
(-0.0231104 -0.008081 0)
(-0.0208324 -0.00791612 0)
(-0.0186021 -0.00767922 0)
(-0.0164385 -0.00737278 0)
(-0.0143597 -0.00700033 0)
(-0.0123827 -0.00656649 0)
(-0.0105233 -0.006077 0)
(-0.00879554 -0.00553872 0)
(-0.00721167 -0.00495962 0)
(-0.00578157 -0.00434891 0)
(-0.00451269 -0.00371703 0)
(-0.00340967 -0.00307576 0)
(-0.00247408 -0.00243842 0)
(-0.00170418 -0.00182 0)
(-0.00109461 -0.00123747 0)
(-0.000636204 -0.000710102 0)
(-0.000315749 -0.000259858 0)
(-0.000115817 8.80735e-05 0)
(-1.45345e-05 0.000304864 0)
(1.5656e-05 0.000357408 0)
(8.42141e-06 0.000204958 0)
(-2.26098e-05 6.39359e-05 0)
(-0.000174461 0.000462214 0)
(-0.000529389 0.00104101 0)
(-0.00107238 0.00173352 0)
(-0.00179903 0.00249006 0)
(-0.00270826 0.00327197 0)
(-0.0037953 0.00404974 0)
(-0.00505249 0.00480163 0)
(-0.0064702 0.00551203 0)
(-0.00803716 0.00617023 0)
(-0.00974089 0.0067693 0)
(-0.011568 0.00730523 0)
(-0.0135047 0.00777615 0)
(-0.0155367 0.00818177 0)
(-0.0176498 0.00852288 0)
(-0.0198298 0.00880096 0)
(-0.0220627 0.0090179 0)
(-0.0243349 0.00917575 0)
(-0.0266329 0.00927656 0)
(-0.0289436 0.00932226 0)
(-0.0312541 0.00931459 0)
(-0.0335519 0.00925503 0)
(-0.0358245 0.00914481 0)
(-0.0380599 0.00898492 0)
(-0.0402461 0.00877613 0)
(-0.0423714 0.00851905 0)
(-0.0444239 0.00821416 0)
(-0.0463924 0.0078619 0)
(-0.0482653 0.00746272 0)
(-0.0500316 0.00701718 0)
(-0.0516803 0.00652599 0)
(-0.0532007 0.00599009 0)
(-0.0545825 0.00541073 0)
(-0.0558159 0.0047895 0)
(-0.0568914 0.00412844 0)
(-0.0578001 0.00343001 0)
(-0.0585341 0.0026972 0)
(-0.059086 0.00193351 0)
(-0.0594495 0.00114299 0)
(-0.0596191 0.000330243 0)
(-0.0595909 -0.000499597 0)
(-0.0593617 -0.00134086 0)
(-0.0589302 -0.0021874 0)
(-0.0582962 -0.00303261 0)
(-0.057461 -0.00386948 0)
(-0.0564279 -0.0046907 0)
(-0.0552015 -0.00548871 0)
(-0.0537882 -0.00625579 0)
(-0.0521961 -0.00698416 0)
(-0.0504352 -0.00766611 0)
(-0.0485169 -0.0082941 0)
(-0.0464544 -0.00886088 0)
(-0.0442625 -0.00935961 0)
(-0.0419574 -0.00978399 0)
(-0.0395567 -0.0101284 0)
(-0.037079 -0.0103879 0)
(-0.034544 -0.0105586 0)
(-0.0319724 -0.0106375 0)
(-0.0293851 -0.0106227 0)
(-0.0268036 -0.0105135 0)
(-0.0242493 -0.0103103 0)
(-0.0217436 -0.010015 0)
(-0.0193071 -0.00963068 0)
(-0.0169599 -0.00916184 0)
(-0.0147207 -0.00861436 0)
(-0.012607 -0.0079955 0)
(-0.0106344 -0.00731398 0)
(-0.0088164 -0.00657994 0)
(-0.00716436 -0.00580501 0)
(-0.00568682 -0.00500236 0)
(-0.00438943 -0.00418681 0)
(-0.00327463 -0.00337493 0)
(-0.00234141 -0.00258524 0)
(-0.00158509 -0.00183847 0)
(-0.000997133 -0.00115781 0)
(-0.000564968 -0.000569382 0)
(-0.000271871 -0.000102667 0)
(-9.67505e-05 0.00020902 0)
(-1.43695e-05 0.000327886 0)
(3.51464e-06 0.000208117 0)
(-3.04467e-05 0.000163232 0)
(-0.000222833 0.000760794 0)
(-0.000660967 0.00153923 0)
(-0.0013181 0.00243018 0)
(-0.00218296 0.00338183 0)
(-0.00325049 0.00435319 0)
(-0.00451258 0.00531261 0)
(-0.00595882 0.00623637 0)
(-0.00757734 0.00710727 0)
(-0.00935509 0.00791331 0)
(-0.0112781 0.00864662 0)
(-0.0133317 0.00930256 0)
(-0.0155008 0.0098789 0)
(-0.0177701 0.0103752 0)
(-0.0201244 0.0107922 0)
(-0.0225485 0.0111317 0)
(-0.0250275 0.0113956 0)
(-0.0275465 0.0115863 0)
(-0.0300912 0.0117062 0)
(-0.0326475 0.0117574 0)
(-0.0352013 0.011742 0)
(-0.0377393 0.0116617 0)
(-0.0402478 0.0115179 0)
(-0.0427139 0.0113119 0)
(-0.0451244 0.0110445 0)
(-0.0474666 0.0107166 0)
(-0.0497278 0.0103288 0)
(-0.0518954 0.0098816 0)
(-0.0539572 0.00937577 0)
(-0.0559011 0.00881204 0)
(-0.0577151 0.00819137 0)
(-0.0593877 0.00751505 0)
(-0.0609078 0.00678472 0)
(-0.0622647 0.00600247 0)
(-0.0634481 0.00517091 0)
(-0.0644487 0.00429321 0)
(-0.0652578 0.00337312 0)
(-0.0658674 0.00241508 0)
(-0.0662708 0.00142415 0)
(-0.0664622 0.000406062 0)
(-0.0664372 -0.000632781 0)
(-0.0661926 -0.00168536 0)
(-0.0657267 -0.00274405 0)
(-0.0650396 -0.00380071 0)
(-0.0641325 -0.0048467 0)
(-0.0630089 -0.005873 0)
(-0.0616737 -0.00687031 0)
(-0.0601337 -0.00782914 0)
(-0.0583977 -0.00873995 0)
(-0.0564761 -0.00959324 0)
(-0.0543812 -0.0103797 0)
(-0.0521271 -0.0110906 0)
(-0.0497295 -0.0117173 0)
(-0.0472058 -0.0122521 0)
(-0.0445748 -0.0126882 0)
(-0.0418565 -0.0130195 0)
(-0.0390721 -0.013241 0)
(-0.0362437 -0.0133491 0)
(-0.0333938 -0.0133413 0)
(-0.0305458 -0.0132169 0)
(-0.0277226 -0.0129762 0)
(-0.0249474 -0.0126215 0)
(-0.0222427 -0.0121565 0)
(-0.0196302 -0.0115868 0)
(-0.0171304 -0.0109195 0)
(-0.0147624 -0.0101634 0)
(-0.0125434 -0.00932938 0)
(-0.0104885 -0.00842967 0)
(-0.00861044 -0.00747852 0)
(-0.006919 -0.00649196 0)
(-0.00542105 -0.00548794 0)
(-0.00412012 -0.0044864 0)
(-0.00301619 -0.00350949 0)
(-0.00210555 -0.00258169 0)
(-0.00138059 -0.00173017 0)
(-0.000829749 -0.000985059 0)
(-0.00043737 -0.000379968 0)
(-0.000183505 4.76776e-05 0)
(-4.56617e-05 0.000256042 0)
(-1.44168e-06 0.000195417 0)
(-3.80014e-05 0.000287078 0)
(-0.000270271 0.00112465 0)
(-0.000791051 0.00213625 0)
(-0.00156219 0.00325314 0)
(-0.00256555 0.00442241 0)
(-0.00379194 0.00560175 0)
(-0.00522968 0.00675809 0)
(-0.00686534 0.0078664 0)
(-0.00868462 0.00890835 0)
(-0.0106725 0.00987104 0)
(-0.0128133 0.0107459 0)
(-0.015091 0.011528 0)
(-0.0174893 0.0122146 0)
(-0.0199918 0.0128055 0)
(-0.0225823 0.0133014 0)
(-0.0252446 0.0137041 0)
(-0.0279629 0.0140159 0)
(-0.0307215 0.0142395 0)
(-0.0335051 0.0143775 0)
(-0.0362987 0.0144324 0)
(-0.0390874 0.0144064 0)
(-0.0418567 0.0143016 0)
(-0.0445925 0.0141195 0)
(-0.0472804 0.0138616 0)
(-0.0499067 0.0135289 0)
(-0.0524577 0.0131225 0)
(-0.0549196 0.012643 0)
(-0.0572792 0.0120914 0)
(-0.0595232 0.0114684 0)
(-0.0616387 0.0107751 0)
(-0.0636129 0.0100127 0)
(-0.0654336 0.00918289 0)
(-0.0670887 0.00828775 0)
(-0.0685669 0.00732991 0)
(-0.0698572 0.0063126 0)
(-0.0709497 0.00523972 0)
(-0.071835 0.00411592 0)
(-0.0725048 0.00294658 0)
(-0.0729517 0.00173786 0)
(-0.0731696 0.000496715 0)
(-0.0731537 -0.000769131 0)
(-0.0729007 -0.00205121 0)
(-0.0724086 -0.00334035 0)
(-0.0716772 -0.00462676 0)
(-0.0707081 -0.00590008 0)
(-0.0695046 -0.00714949 0)
(-0.0680718 -0.00836385 0)
(-0.0664169 -0.00953177 0)
(-0.0645489 -0.0106418 0)
(-0.0624788 -0.0116826 0)
(-0.0602195 -0.0126431 0)
(-0.0577859 -0.0135126 0)
(-0.0551944 -0.0142809 0)
(-0.0524635 -0.0149387 0)
(-0.049613 -0.0154777 0)
(-0.0466641 -0.0158907 0)
(-0.0436393 -0.0161715 0)
(-0.0405621 -0.0163159 0)
(-0.0374568 -0.0163207 0)
(-0.0343479 -0.0161848 0)
(-0.0312603 -0.0159087 0)
(-0.0282189 -0.0154949 0)
(-0.0252478 -0.014948 0)
(-0.0223705 -0.0142742 0)
(-0.0196093 -0.0134822 0)
(-0.0169849 -0.0125826 0)
(-0.0145164 -0.0115879 0)
(-0.0122204 -0.0105129 0)
(-0.0101111 -0.00937454 0)
(-0.00819993 -0.00819174 0)
(-0.00649499 -0.00698567 0)
(-0.00500117 -0.00577975 0)
(-0.0037197 -0.00459976 0)
(-0.00264807 -0.00347401 0)
(-0.00177988 -0.00243357 0)
(-0.00110486 -0.00151253 0)
(-0.000608649 -0.000748396 0)
(-0.000272694 -0.000182386 0)
(-7.74219e-05 0.00014017 0)
(-6.32243e-06 0.000166555 0)
(-4.5274e-05 0.000434855 0)
(-0.000316537 0.0015528 0)
(-0.000918724 0.00283121 0)
(-0.00180271 0.00420181 0)
(-0.00294365 0.00561153 0)
(-0.00432816 0.00701751 0)
(-0.00594086 0.00838602 0)
(-0.00776515 0.00969132 0)
(-0.00978414 0.0109144 0)
(-0.0119806 0.012042 0)
(-0.0143373 0.0130652 0)
(-0.0168364 0.0139786 0)
(-0.0194606 0.0147798 0)
(-0.0221924 0.0154683 0)
(-0.0250144 0.0160451 0)
(-0.0279096 0.0165123 0)
(-0.0308614 0.0168725 0)
(-0.0338532 0.0171285 0)
(-0.0368689 0.0172833 0)
(-0.0398926 0.0173397 0)
(-0.0429089 0.0173001 0)
(-0.0459023 0.0171668 0)
(-0.0488578 0.0169416 0)
(-0.0517605 0.0166262 0)
(-0.0545956 0.0162218 0)
(-0.0573487 0.0157295 0)
(-0.0600054 0.0151504 0)
(-0.0625513 0.0144853 0)
(-0.0649727 0.0137353 0)
(-0.0672557 0.0129018 0)
(-0.0693868 0.0119863 0)
(-0.0713531 0.0109909 0)
(-0.0731418 0.00991807 0)
(-0.0747409 0.00877111 0)
(-0.0761389 0.00755388 0)
(-0.077325 0.00627108 0)
(-0.0782895 0.00492825 0)
(-0.0790233 0.0035318 0)
(-0.0795188 0.00208903 0)
(-0.0797693 0.000608188 0)
(-0.0797697 -0.000901624 0)
(-0.0795162 -0.00243042 0)
(-0.0790068 -0.00396742 0)
(-0.0782409 -0.00550109 0)
(-0.07722 -0.00701927 0)
(-0.0759474 -0.00850926 0)
(-0.0744283 -0.00995797 0)
(-0.0726699 -0.011352 0)
(-0.0706815 -0.012678 0)
(-0.0684744 -0.0139226 0)
(-0.066062 -0.0150727 0)
(-0.0634597 -0.0161157 0)
(-0.0606848 -0.0170397 0)
(-0.0577563 -0.0178336 0)
(-0.0546952 -0.0184877 0)
(-0.0515236 -0.0189932 0)
(-0.0482654 -0.019343 0)
(-0.0449453 -0.0195317 0)
(-0.041589 -0.0195557 0)
(-0.0382227 -0.0194134 0)
(-0.0348728 -0.0191053 0)
(-0.0315659 -0.0186341 0)
(-0.0283279 -0.018005 0)
(-0.0251841 -0.0172254 0)
(-0.0221587 -0.0163051 0)
(-0.0192742 -0.0152563 0)
(-0.0165514 -0.0140939 0)
(-0.0140087 -0.012835 0)
(-0.011662 -0.011499 0)
(-0.00952444 -0.0101081 0)
(-0.00760569 -0.00868666 0)
(-0.00591216 -0.00726165 0)
(-0.00444655 -0.00586253 0)
(-0.00320777 -0.00452145 0)
(-0.00219088 -0.00327336 0)
(-0.00138707 -0.00215621 0)
(-0.000783503 -0.00121127 0)
(-0.000363096 -0.000483266 0)
(-0.00010922 -2.06242e-05 0)
(-1.10728e-05 0.000121519 0)
(-5.22755e-05 0.000605881 0)
(-0.000361518 0.00204393 0)
(-0.00104345 0.00362256 0)
(-0.00203844 0.00527471 0)
(-0.00331513 0.0069478 0)
(-0.004856 0.00859918 0)
(-0.00664192 0.0101951 0)
(-0.00865305 0.0117097 0)
(-0.0108698 0.0131239 0)
(-0.0132727 0.0144242 0)
(-0.0158426 0.0156018 0)
(-0.0185602 0.0166513 0)
(-0.0214068 0.0175706 0)
(-0.0243638 0.0183593 0)
(-0.0274128 0.0190186 0)
(-0.030536 0.0195511 0)
(-0.0337159 0.0199595 0)
(-0.0369351 0.0202471 0)
(-0.0401769 0.020417 0)
(-0.0434247 0.0204725 0)
(-0.0466622 0.0204161 0)
(-0.0498735 0.0202505 0)
(-0.0530426 0.0199777 0)
(-0.0561541 0.0195994 0)
(-0.0591925 0.0191172 0)
(-0.0621426 0.0185322 0)
(-0.0649893 0.0178457 0)
(-0.0677176 0.0170588 0)
(-0.070313 0.0161728 0)
(-0.0727609 0.0151893 0)
(-0.0750474 0.0141102 0)
(-0.0771585 0.0129379 0)
(-0.079081 0.0116756 0)
(-0.0808023 0.0103271 0)
(-0.0823101 0.00889681 0)
(-0.0835933 0.00739039 0)
(-0.0846412 0.00581429 0)
(-0.0854445 0.00417596 0)
(-0.085995 0.00248392 0)
(-0.0862855 0.000747702 0)
(-0.0863104 -0.00102214 0)
(-0.0860655 -0.00281405 0)
(-0.0855485 -0.00461558 0)
(-0.0847585 -0.00641341 0)
(-0.0836967 -0.0081935 0)
(-0.0823662 -0.00994119 0)
(-0.0807721 -0.0116413 0)
(-0.0789217 -0.0132786 0)
(-0.0768242 -0.0148373 0)
(-0.0744912 -0.0163021 0)
(-0.0719364 -0.0176578 0)
(-0.0691755 -0.0188898 0)
(-0.0662264 -0.0199843 0)
(-0.0631089 -0.0209284 0)
(-0.0598446 -0.0217105 0)
(-0.0564569 -0.0223204 0)
(-0.0529705 -0.0227499 0)
(-0.0494114 -0.0229924 0)
(-0.0458068 -0.0230434 0)
(-0.0421844 -0.022901 0)
(-0.0385722 -0.0225655 0)
(-0.0349986 -0.0220399 0)
(-0.0314913 -0.0213298 0)
(-0.0280775 -0.0204435 0)
(-0.0247832 -0.0193922 0)
(-0.0216331 -0.0181899 0)
(-0.0186497 -0.0168534 0)
(-0.0158534 -0.0154022 0)
(-0.0132622 -0.0138588 0)
(-0.0108908 -0.0122481 0)
(-0.00875091 -0.0105979 0)
(-0.00685054 -0.00893885 0)
(-0.00519412 -0.00730408 0)
(-0.0037822 -0.00572962 0)
(-0.00261146 -0.00425426 0)
(-0.00167476 -0.00291981 0)
(-0.000960829 -0.00177118 0)
(-0.000454133 -0.000856411 0)
(-0.000140877 -0.000226798 0)
(-1.56806e-05 6.04287e-05 0)
(-5.90202e-05 0.000799453 0)
(-0.000405158 0.00259646 0)
(-0.00116489 0.00450834 0)
(-0.00226856 0.00646967 0)
(-0.00367852 0.00842903 0)
(-0.0053732 0.0103446 0)
(-0.00732978 0.0121831 0)
(-0.0095251 0.0139192 0)
(-0.0119368 0.0155341 0)
(-0.0145432 0.0170148 0)
(-0.0173231 0.0183527 0)
(-0.0202558 0.0195428 0)
(-0.023321 0.0205833 0)
(-0.0264991 0.0214743 0)
(-0.0297707 0.0222174 0)
(-0.0331171 0.0228154 0)
(-0.03652 0.0232716 0)
(-0.0399615 0.0235896 0)
(-0.043424 0.0237729 0)
(-0.0468904 0.023825 0)
(-0.0503437 0.0237489 0)
(-0.0537674 0.0235472 0)
(-0.0571451 0.0232223 0)
(-0.0604606 0.0227761 0)
(-0.0636978 0.0222103 0)
(-0.0668409 0.0215263 0)
(-0.0698742 0.0207254 0)
(-0.0727822 0.019809 0)
(-0.0755496 0.0187787 0)
(-0.0781614 0.0176362 0)
(-0.0806028 0.0163839 0)
(-0.0828595 0.0150246 0)
(-0.0849175 0.0135619 0)
(-0.0867636 0.0120003 0)
(-0.088385 0.0103449 0)
(-0.0897698 0.00860223 0)
(-0.090907 0.00677963 0)
(-0.0917865 0.00488566 0)
(-0.0923996 0.00293004 0)
(-0.0927386 0.000923653 0)
(-0.0927974 -0.00112148 0)
(-0.0925712 -0.00319221 0)
(-0.0920573 -0.00527435 0)
(-0.0912543 -0.00735277 0)
(-0.0901631 -0.00941147 0)
(-0.0887865 -0.0114338 0)
(-0.0871292 -0.0134025 0)
(-0.0851983 -0.0152999 0)
(-0.0830031 -0.0171085 0)
(-0.0805552 -0.0188104 0)
(-0.0778682 -0.0203884 0)
(-0.0749583 -0.0218256 0)
(-0.0718437 -0.0231063 0)
(-0.0685448 -0.0242155 0)
(-0.0650838 -0.0251398 0)
(-0.0614851 -0.0258674 0)
(-0.0577744 -0.0263885 0)
(-0.0539789 -0.0266954 0)
(-0.0501272 -0.0267828 0)
(-0.0462484 -0.026648 0)
(-0.0423725 -0.0262911 0)
(-0.0385292 -0.0257151 0)
(-0.0347485 -0.0249262 0)
(-0.0310594 -0.0239335 0)
(-0.0274901 -0.0227496 0)
(-0.0240673 -0.02139 0)
(-0.0208156 -0.0198736 0)
(-0.0177578 -0.0182224 0)
(-0.0149137 -0.0164616 0)
(-0.0123003 -0.0146194 0)
(-0.00993112 -0.0127269 0)
(-0.00781627 -0.0108184 0)
(-0.00596205 -0.00893081 0)
(-0.00437085 -0.00710404 0)
(-0.00304112 -0.00538082 0)
(-0.00196748 -0.00380676 0)
(-0.00114036 -0.00243037 0)
(-0.000545692 -0.00130299 0)
(-0.000172388 -0.000478644 0)
(-2.01601e-05 -1.65662e-05 0)
(-6.55205e-05 0.00101486 0)
(-0.000447435 0.00320874 0)
(-0.00128286 0.00548625 0)
(-0.00249252 0.00778406 0)
(-0.00403277 0.0100524 0)
(-0.00587811 0.0122507 0)
(-0.00800205 0.014347 0)
(-0.0103782 0.0163167 0)
(-0.0129815 0.018142 0)
(-0.0157878 0.0198105 0)
(-0.018774 0.0213143 0)
(-0.0219177 0.0226492 0)
(-0.0251974 0.0238139 0)
(-0.0285922 0.0248089 0)
(-0.0320819 0.0256367 0)
(-0.0356468 0.0263004 0)
(-0.0392679 0.0268039 0)
(-0.0429267 0.0271511 0)
(-0.0466049 0.0273459 0)
(-0.0502849 0.0273922 0)
(-0.0539493 0.0272932 0)
(-0.0575808 0.0270519 0)
(-0.0611627 0.0266709 0)
(-0.0646781 0.0261521 0)
(-0.0681106 0.0254975 0)
(-0.0714438 0.0247087 0)
(-0.0746614 0.023787 0)
(-0.0777475 0.0227342 0)
(-0.0806861 0.021552 0)
(-0.0834618 0.0202425 0)
(-0.0860591 0.0188083 0)
(-0.0884632 0.0172527 0)
(-0.0906596 0.0155798 0)
(-0.0926344 0.0137946 0)
(-0.0943743 0.0119031 0)
(-0.0958667 0.00991248 0)
(-0.0971001 0.00783114 0)
(-0.0980638 0.0056687 0)
(-0.0987484 0.00343609 0)
(-0.0991455 0.00114555 0)
(-0.0992486 -0.00118942 0)
(-0.0990522 -0.00355405 0)
(-0.0985529 -0.0059324 0)
(-0.0977489 -0.00830747 0)
(-0.0966405 -0.0106613 0)
(-0.09523 -0.0129751 0)
(-0.0935217 -0.0152294 0)
(-0.0915224 -0.0174046 0)
(-0.0892411 -0.0194804 0)
(-0.0866892 -0.021437 0)
(-0.0838804 -0.0232546 0)
(-0.0808309 -0.0249143 0)
(-0.0775591 -0.0263978 0)