/*--------------------------------*- C++ -*----------------------------------*\
  =========                 |
  \\      /  F ield         | OpenFOAM: The Open Source CFD Toolbox
   \\    /   O peration     | Website:  https://openfoam.org
    \\  /    A nd           | Version:  7
     \\/     M anipulation  |
\*---------------------------------------------------------------------------*/
FoamFile
{
    version     2.0;
    format      ascii;
    class       volVectorField;
    location    "1.25";
    object      U;
}
// * * * * * * * * * * * * * * * * * * * * * * * * * * * * * * * * * * * * * //

dimensions      [0 1 -1 0 0 0 0];

internalField   nonuniform List<vector> 
6400
(
(1.0779e-05 -1.08026e-05 0)
(4.43208e-05 -2.09406e-05 0)
(8.70351e-05 -2.0008e-05 0)
(0.000116475 -1.3296e-05 0)
(0.000121803 -4.34906e-06 0)
(9.97661e-05 5.01649e-06 0)
(5.02174e-05 1.39105e-05 0)
(-2.53973e-05 2.19433e-05 0)
(-0.000124819 2.90029e-05 0)
(-0.000245503 3.51062e-05 0)
(-0.000384946 4.03455e-05 0)
(-0.000540835 4.48412e-05 0)
(-0.000711132 4.87218e-05 0)
(-0.000894102 5.21112e-05 0)
(-0.00108829 5.51161e-05 0)
(-0.00129251 5.78241e-05 0)
(-0.00150576 6.0303e-05 0)
(-0.0017272 6.25968e-05 0)
(-0.00195606 6.47282e-05 0)
(-0.0021916 6.67014e-05 0)
(-0.00243308 6.85023e-05 0)
(-0.00267965 7.01002e-05 0)
(-0.00293037 7.14532e-05 0)
(-0.00318414 7.251e-05 0)
(-0.0034397 7.32109e-05 0)
(-0.0036956 7.34904e-05 0)
(-0.00395017 7.32809e-05 0)
(-0.00420157 7.2516e-05 0)
(-0.00444774 7.11303e-05 0)
(-0.00468646 6.9062e-05 0)
(-0.00491532 6.62551e-05 0)
(-0.00513179 6.26618e-05 0)
(-0.00533324 5.82454e-05 0)
(-0.00551694 5.29812e-05 0)
(-0.00568017 4.68577e-05 0)
(-0.00582021 3.988e-05 0)
(-0.00593443 3.20708e-05 0)
(-0.00602033 2.34717e-05 0)
(-0.0060756 1.41453e-05 0)
(-0.0060982 4.17572e-06 0)
(-0.00608639 -6.33837e-06 0)
(-0.00603883 -1.72684e-05 0)
(-0.00595461 -2.84712e-05 0)
(-0.0058333 -3.97859e-05 0)
(-0.00567501 -5.10369e-05 0)
(-0.00548042 -6.20362e-05 0)
(-0.00525081 -7.2588e-05 0)
(-0.00498806 -8.24943e-05 0)
(-0.00469464 -9.15591e-05 0)
(-0.00437362 -9.95938e-05 0)
(-0.00402861 -0.000106423 0)
(-0.00366371 -0.000111892 0)
(-0.00328348 -0.000115867 0)
(-0.0028928 -0.000118246 0)
(-0.00249684 -0.000118959 0)
(-0.00210089 -0.00011797 0)
(-0.00171033 -0.000115284 0)
(-0.00133044 -0.000110941 0)
(-0.00096636 -0.000105018 0)
(-0.000622919 -9.763e-05 0)
(-0.000304568 -8.89201e-05 0)
(-1.5284e-05 -7.90602e-05 0)
(0.000241514 -6.82428e-05 0)
(0.000463027 -5.66761e-05 0)
(0.000647124 -4.45813e-05 0)
(0.000792381 -3.21846e-05 0)
(0.000898101 -1.97139e-05 0)
(0.000964336 -7.39798e-06 0)
(0.000991896 4.53169e-06 0)
(0.000982376 1.58367e-05 0)
(0.000938192 2.62625e-05 0)
(0.00086265 3.55164e-05 0)
(0.000760072 4.32405e-05 0)
(0.000635983 4.89628e-05 0)
(0.000497421 5.20255e-05 0)
(0.000353388 5.15026e-05 0)
(0.000215317 4.6138e-05 0)
(9.74119e-05 3.43119e-05 0)
(1.71758e-05 1.49002e-05 0)
(-5.5525e-06 -5.51973e-06 0)
(2.11867e-05 -4.44588e-05 0)
(7.51159e-05 -7.46402e-05 0)
(0.000128688 -6.17333e-05 0)
(0.000144436 -2.45829e-05 0)
(0.000102224 2.40284e-05 0)
(-6.12584e-06 7.63022e-05 0)
(-0.000182592 0.000127745 0)
(-0.000425281 0.000175941 0)
(-0.000730013 0.000219785 0)
(-0.00109149 0.000258944 0)
(-0.00150408 0.000293555 0)
(-0.00196229 0.000324012 0)
(-0.00246108 0.000350825 0)
(-0.0029959 0.00037453 0)
(-0.00356282 0.000395624 0)
(-0.0041584 0.000414532 0)
(-0.00477964 0.00043158 0)
(-0.00542384 0.000446983 0)
(-0.00608848 0.000460846 0)
(-0.00677108 0.00047317 0)
(-0.00746906 0.000483859 0)
(-0.00817968 0.000492728 0)
(-0.00889986 0.000499528 0)
(-0.00962616 0.000503951 0)
(-0.0103547 0.000505649 0)
(-0.0110812 0.000504248 0)
(-0.0118007 0.000499364 0)
(-0.0125079 0.00049062 0)
(-0.0131971 0.000477654 0)
(-0.013862 0.000460136 0)
(-0.0144959 0.000437778 0)
(-0.015092 0.000410352 0)
(-0.0156431 0.000377698 0)
(-0.0161421 0.000339735 0)
(-0.0165816 0.000296472 0)
(-0.0169547 0.000248019 0)
(-0.0172545 0.000194593 0)
(-0.0174747 0.000136525 0)
(-0.0176095 7.42631e-05 0)
(-0.0176539 8.37752e-06 0)
(-0.0176036 -6.04346e-05 0)
(-0.0174557 -0.000131385 0)
(-0.0172081 -0.000203569 0)
(-0.0168602 -0.000275992 0)
(-0.0164128 -0.000347581 0)
(-0.0158681 -0.000417211 0)
(-0.0152297 -0.000483723 0)
(-0.014503 -0.000545952 0)
(-0.0136948 -0.000602756 0)
(-0.0128131 -0.000653044 0)
(-0.0118678 -0.00069581 0)
(-0.0108695 -0.000730159 0)
(-0.00983014 -0.000755337 0)
(-0.00876255 -0.000770754 0)
(-0.00768012 -0.000776008 0)
(-0.00659665 -0.000770902 0)
(-0.00552608 -0.000755447 0)
(-0.00448219 -0.000729872 0)
(-0.00347835 -0.00069462 0)
(-0.00252723 -0.000650333 0)
(-0.00164053 -0.000597843 0)
(-0.000828794 -0.000538144 0)
(-0.000101142 -0.000472372 0)
(0.000534861 -0.000401774 0)
(0.00107337 -0.000327684 0)
(0.0015104 -0.000251501 0)
(0.00184385 -0.000174665 0)
(0.00207367 -9.86558e-05 0)
(0.00220184 -2.49931e-05 0)
(0.00223251 4.4741e-05 0)
(0.00217211 0.000108861 0)
(0.00202945 0.0001655 0)
(0.00181601 0.000212514 0)
(0.00154625 0.000247336 0)
(0.001238 0.000266807 0)
(0.000912969 0.000267065 0)
(0.000596679 0.00024365 0)
(0.000317783 0.000192044 0)
(0.000110416 0.00011066 0)
(1.47008e-05 1.70569e-05 0)
(2.07559e-05 -8.81215e-05 0)
(6.29597e-05 -0.000128595 0)
(8.12899e-05 -8.10343e-05 0)
(3.51954e-05 1.80756e-05 0)
(-9.80342e-05 0.000144027 0)
(-0.000328664 0.000280189 0)
(-0.000659605 0.000416006 0)
(-0.00108882 0.000545244 0)
(-0.00161112 0.000664623 0)
(-0.00221955 0.000772803 0)
(-0.00290648 0.000869678 0)
(-0.00366422 0.000955882 0)
(-0.00448549 0.00103244 0)
(-0.00536358 0.0011005 0)
(-0.00629244 0.00116118 0)
(-0.00726668 0.00121546 0)
(-0.00828139 0.00126409 0)
(-0.00933203 0.00130755 0)
(-0.0104143 0.00134607 0)
(-0.0115237 0.00137961 0)
(-0.012656 0.00140789 0)
(-0.0138061 0.00143039 0)
(-0.0149689 0.00144644 0)
(-0.0161384 0.00145522 0)
(-0.0173083 0.00145581 0)
(-0.0184713 0.00144724 0)
(-0.0196195 0.0014285 0)
(-0.0207443 0.00139863 0)
(-0.0218365 0.0013567 0)
(-0.0228862 0.00130191 0)
(-0.0238832 0.00123355 0)
(-0.0248166 0.00115111 0)
(-0.0256756 0.00105425 0)
(-0.0264491 0.000942874 0)
(-0.0271262 0.000817116 0)
(-0.0276965 0.000677393 0)
(-0.0281497 0.000524413 0)
(-0.0284767 0.000359184 0)
(-0.028669 0.000183023 0)
(-0.0287194 -2.44203e-06 0)
(-0.0286222 -0.000195265 0)
(-0.0283732 -0.000393245 0)
(-0.02797 -0.000593908 0)
(-0.0274121 -0.000794554 0)
(-0.0267012 -0.000992305 0)
(-0.0258411 -0.00118415 0)
(-0.0248377 -0.00136703 0)
(-0.0236993 -0.00153785 0)
(-0.0224364 -0.00169363 0)
(-0.0210616 -0.00183151 0)
(-0.0195893 -0.00194886 0)
(-0.0180358 -0.00204335 0)
(-0.0164191 -0.00211301 0)
(-0.0147582 -0.00215632 0)
(-0.0130732 -0.00217222 0)
(-0.0113847 -0.00216018 0)
(-0.00971356 -0.00212023 0)
(-0.00808036 -0.00205295 0)
(-0.00650519 -0.00195946 0)
(-0.0050071 -0.00184144 0)
(-0.00360382 -0.00170104 0)
(-0.00231137 -0.00154088 0)
(-0.00114372 -0.00136395 0)
(-0.000112591 -0.00117356 0)
(0.000772867 -0.000973301 0)
(0.00150623 -0.000766957 0)
(0.00208396 -0.000558478 0)
(0.00250557 -0.000351949 0)
(0.00277374 -0.000151599 0)
(0.00289441 3.81625e-05 0)
(0.00287699 0.000212655 0)
(0.00273447 0.000366812 0)
(0.00248373 0.000495 0)
(0.00214576 0.00059082 0)
(0.001746 0.00064694 0)
(0.00131457 0.000655144 0)
(0.000885659 0.00060691 0)
(0.00049627 0.000494979 0)
(0.000192123 0.000317969 0)
(3.40119e-05 9.68956e-05 0)
(1.41482e-05 -0.000118617 0)
(2.42449e-05 -0.000143435 0)
(-2.42051e-05 -3.39265e-05 0)
(-0.000166891 0.000155669 0)
(-0.000424656 0.00038839 0)
(-0.000807569 0.000638419 0)
(-0.00131814 0.000888554 0)
(-0.00195364 0.00112814 0)
(-0.0027079 0.0013512 0)
(-0.00357274 0.00155498 0)
(-0.00453906 0.00173889 0)
(-0.00559758 0.00190366 0)
(-0.00673933 0.00205081 0)
(-0.0079559 0.00218211 0)
(-0.00923953 0.00229935 0)
(-0.0105831 0.0024041 0)
(-0.01198 0.00249756 0)
(-0.0134239 0.0025805 0)
(-0.0149087 0.00265322 0)
(-0.0164282 0.00271556 0)
(-0.0179759 0.00276693 0)
(-0.019545 0.00280638 0)
(-0.0211278 0.00283262 0)
(-0.0227162 0.00284415 0)
(-0.024301 0.00283927 0)
(-0.0258724 0.00281622 0)
(-0.0274196 0.00277319 0)
(-0.0289309 0.00270845 0)
(-0.0303939 0.0026204 0)
(-0.0317955 0.00250761 0)
(-0.0331221 0.00236894 0)
(-0.0343597 0.00220355 0)
(-0.0354942 0.00201098 0)
(-0.0365112 0.00179119 0)
(-0.037397 0.00154463 0)
(-0.0381381 0.00127222 0)
(-0.038722 0.000975466 0)
(-0.039137 0.00065638 0)
(-0.0393728 0.00031756 0)
(-0.0394209 -3.7845e-05 0)
(-0.0392742 -0.000406157 0)
(-0.0389282 -0.000783191 0)
(-0.0383802 -0.00116432 0)
(-0.0376302 -0.00154452 0)
(-0.0366809 -0.00191849 0)
(-0.0355375 -0.00228069 0)
(-0.0342081 -0.0026255 0)
(-0.0327036 -0.00294734 0)
(-0.0310375 -0.00324073 0)
(-0.029226 -0.00350052 0)
(-0.0272875 -0.00372194 0)
(-0.025243 -0.00390077 0)
(-0.023115 -0.00403346 0)
(-0.0209277 -0.00411722 0)
(-0.0187067 -0.00415013 0)
(-0.0164779 -0.00413122 0)
(-0.0142678 -0.00406048 0)
(-0.0121027 -0.00393892 0)
(-0.0100081 -0.00376855 0)
(-0.00800839 -0.00355234 0)
(-0.00612639 -0.00329419 0)
(-0.00438279 -0.00299882 0)
(-0.00279585 -0.00267167 0)
(-0.00138096 -0.00231883 0)
(-0.000150349 -0.00194691 0)
(0.000887176 -0.00156293 0)
(0.00172649 -0.00117428 0)
(0.00236635 -0.000788635 0)
(0.00280954 -0.000413953 0)
(0.00306305 -5.85394e-05 0)
(0.00313825 0.000268864 0)
(0.00305102 0.000558925 0)
(0.00282198 0.000801519 0)
(0.00247661 0.000985531 0)
(0.00204549 0.00109876 0)
(0.00156432 0.00112817 0)
(0.00107313 0.00106075 0)
(0.000615084 0.000885647 0)
(0.000246019 0.000598693 0)
(4.60569e-05 0.00021486 0)
(4.61447e-06 -0.000123592 0)
(-3.00952e-05 -9.46537e-05 0)
(-0.000167566 0.000109279 0)
(-0.000432613 0.000418582 0)
(-0.000841176 0.000785158 0)
(-0.00140113 0.00117467 0)
(-0.00211326 0.00156365 0)
(-0.00297337 0.00193709 0)
(-0.00397401 0.00228625 0)
(-0.00510578 0.00260688 0)
(-0.00635833 0.00289777 0)
(-0.00772109 0.0031597 0)
(-0.00918377 0.00339455 0)
(-0.0107366 0.00360471 0)
(-0.0123703 0.00379258 0)
(-0.0140764 0.00396029 0)
(-0.0158467 0.00410943 0)
(-0.0176732 0.00424099 0)
(-0.0195483 0.00435527 0)
(-0.0214638 0.00445188 0)
(-0.0234115 0.00452982 0)
(-0.0253822 0.00458754 0)
(-0.0273663 0.00462301 0)
(-0.0293532 0.00463387 0)
(-0.0313314 0.00461753 0)
(-0.0332882 0.00457127 0)
(-0.0352102 0.00449239 0)
(-0.037083 0.00437829 0)
(-0.0388913 0.0042266 0)
(-0.0406189 0.00403529 0)
(-0.0422496 0.00380273 0)
(-0.0437663 0.00352784 0)
(-0.0451521 0.00321011 0)
(-0.0463902 0.00284974 0)
(-0.0474643 0.00244761 0)
(-0.0483586 0.00200545 0)
(-0.0490585 0.00152578 0)
(-0.0495508 0.00101196 0)
(-0.0498237 0.000468206 0)
(-0.0498675 -0.000100419 0)
(-0.0496747 -0.00068808 0)
(-0.0492401 -0.00128819 0)
(-0.0485615 -0.00189352 0)
(-0.0476393 -0.00249627 0)
(-0.0464769 -0.00308824 0)
(-0.0450811 -0.00366091 0)
(-0.0434616 -0.00420566 0)
(-0.0416315 -0.00471394 0)
(-0.0396069 -0.00517741 0)
(-0.0374067 -0.0055882 0)
(-0.035053 -0.00593904 0)
(-0.0325699 -0.00622351 0)
(-0.029984 -0.00643617 0)
(-0.0273237 -0.00657275 0)
(-0.0246188 -0.00663028 0)
(-0.0218997 -0.0066072 0)
(-0.0191977 -0.00650343 0)
(-0.0165435 -0.00632042 0)
(-0.0139674 -0.00606113 0)
(-0.0114984 -0.00573002 0)
(-0.00916356 -0.00533296 0)
(-0.00698783 -0.00487708 0)
(-0.00499328 -0.00437073 0)
(-0.00319874 -0.00382324 0)
(-0.00161943 -0.0032448 0)
(-0.000266542 -0.00264634 0)
(0.000852986 -0.00203935 0)
(0.00173677 -0.00143586 0)
(0.0023872 -0.000848366 0)
(0.00281156 -0.00028985 0)
(0.00302227 0.000226096 0)
(0.00303699 0.000685131 0)
(0.0028787 0.00107199 0)
(0.00257586 0.00137029 0)
(0.00216247 0.00156258 0)
(0.00167812 0.00163057 0)
(0.00116714 0.00155618 0)
(0.000677875 0.00132343 0)
(0.000274631 0.000922017 0)
(5.21491e-05 0.000354735 0)
(-6.32381e-06 -9.71803e-05 0)
(-9.35442e-05 3.22561e-05 0)
(-0.000335352 0.000368364 0)
(-0.00074181 0.000829103 0)
(-0.00132143 0.00135711 0)
(-0.00207838 0.00191075 0)
(-0.00301053 0.00246105 0)
(-0.00411141 0.00298915 0)
(-0.00537181 0.00348386 0)
(-0.00678089 0.00393952 0)
(-0.00832705 0.0043544 0)
(-0.00999856 0.00472928 0)
(-0.011784 0.00506643 0)
(-0.0136724 0.00536877 0)
(-0.0156534 0.00563929 0)
(-0.0177171 0.00588056 0)
(-0.019854 0.00609452 0)
(-0.0220549 0.00628225 0)
(-0.0243102 0.00644393 0)
(-0.0266103 0.00657883 0)
(-0.0289449 0.00668541 0)
(-0.0313031 0.00676136 0)
(-0.0336731 0.00680379 0)
(-0.036042 0.00680937 0)
(-0.0383959 0.00677446 0)
(-0.0407199 0.00669532 0)
(-0.0429978 0.00656825 0)
(-0.0452127 0.00638973 0)
(-0.0473467 0.00615662 0)
(-0.0493812 0.00586627 0)
(-0.0512971 0.00551664 0)
(-0.0530751 0.00510646 0)
(-0.0546959 0.00463533 0)
(-0.0561404 0.0041038 0)
(-0.0573903 0.00351344 0)
(-0.058428 0.00286696 0)
(-0.0592373 0.00216817 0)
(-0.0598036 0.00142207 0)
(-0.060114 0.000634817 0)
(-0.0601582 -0.000186319 0)
(-0.059928 -0.00103299 0)
(-0.0594182 -0.00189587 0)
(-0.0586265 -0.00276475 0)
(-0.0575539 -0.00362871 0)
(-0.0562047 -0.00447628 0)
(-0.0545865 -0.00529562 0)
(-0.0527106 -0.00607477 0)
(-0.0505917 -0.00680185 0)
(-0.0482478 -0.00746534 0)
(-0.0457003 -0.00805433 0)
(-0.0429737 -0.00855876 0)
(-0.040095 -0.00896972 0)
(-0.0370941 -0.00927965 0)
(-0.0340025 -0.00948257 0)
(-0.0308535 -0.00957426 0)
(-0.0276817 -0.00955244 0)
(-0.0245217 -0.00941686 0)
(-0.0214087 -0.00916934 0)
(-0.0183768 -0.00881384 0)
(-0.015459 -0.00835635 0)
(-0.0126865 -0.00780486 0)
(-0.010088 -0.00716918 0)
(-0.00768926 -0.00646081 0)
(-0.00551236 -0.00569269 0)
(-0.00357551 -0.00487908 0)
(-0.00189249 -0.00403529 0)
(-0.000472279 -0.00317751 0)
(0.000681234 -0.00232272 0)
(0.00156948 -0.00148859 0)
(0.00219944 -0.000693444 0)
(0.00258377 4.36407e-05 0)
(0.00274097 0.000702727 0)
(0.0026954 0.00126287 0)
(0.00247735 0.00170199 0)
(0.00212311 0.00199689 0)
(0.00167506 0.00212356 0)
(0.00118091 0.00205797 0)
(0.000693345 0.00177756 0)
(0.000283091 0.00126353 0)
(5.40305e-05 0.000504032 0)
(-1.79158e-05 -3.60987e-05 0)
(-0.00016241 0.000246989 0)
(-0.000518993 0.000757374 0)
(-0.00108064 0.00140388 0)
(-0.00184668 0.00212191 0)
(-0.00281635 0.002864 0)
(-0.0039836 0.00359682 0)
(-0.0053389 0.00429847 0)
(-0.00687075 0.0049558 0)
(-0.00856659 0.00556215 0)
(-0.0104134 0.00611544 0)
(-0.0123984 0.00661659 0)
(-0.014509 0.00706828 0)
(-0.0167333 0.00747396 0)
(-0.0190598 0.00783713 0)
(-0.0214776 0.00816077 0)
(-0.0239759 0.00844701 0)
(-0.0265443 0.00869693 0)
(-0.0291717 0.00891046 0)
(-0.031847 0.00908638 0)
(-0.0345582 0.00922246 0)
(-0.0372924 0.00931553 0)
(-0.0400358 0.00936169 0)
(-0.0427736 0.00935652 0)
(-0.0454896 0.00929526 0)
(-0.0481665 0.00917305 0)
(-0.0507861 0.00898515 0)
(-0.0533289 0.00872713 0)
(-0.0557747 0.00839505 0)
(-0.0581027 0.00798569 0)
(-0.0602915 0.00749669 0)
(-0.0623197 0.00692671 0)
(-0.064166 0.00627555 0)
(-0.0658095 0.00554431 0)
(-0.06723 0.00473541 0)
(-0.0684086 0.00385276 0)
(-0.0693277 0.00290171 0)
(-0.0699716 0.00188911 0)
(-0.0703266 0.000823311 0)
(-0.0703816 -0.000285935 0)
(-0.0701281 -0.00142751 0)
(-0.0695607 -0.00258906 0)
(-0.068677 -0.00375716 0)
(-0.0674784 -0.00491749 0)
(-0.0659695 -0.00605503 0)
(-0.0641589 -0.00715436 0)
(-0.0620587 -0.00819988 0)
(-0.0596848 -0.00917614 0)
(-0.0570567 -0.0100682 0)
(-0.0541976 -0.0108617 0)
(-0.0511338 -0.0115438 0)
(-0.0478948 -0.0121026 0)
(-0.0445126 -0.0125282 0)
(-0.0410217 -0.0128128 0)
(-0.0374584 -0.0129507 0)
(-0.0338603 -0.0129386 0)
(-0.0302657 -0.012776 0)
(-0.0267131 -0.012465 0)
(-0.0232403 -0.0120105 0)
(-0.0198843 -0.01142 0)
(-0.0166798 -0.0107036 0)
(-0.0136592 -0.00987406 0)
(-0.010852 -0.00894613 0)
(-0.00828357 -0.00793671 0)
(-0.00597526 -0.00686441 0)
(-0.00394358 -0.00574934 0)
(-0.0021999 -0.00461287 0)
(-0.000750018 -0.00347744 0)
(0.000406073 -0.00236642 0)
(0.00127443 -0.00130402 0)
(0.00186734 -0.000315349 0)
(0.00220337 0.000573554 0)
(0.00230749 0.0013356 0)
(0.00221102 0.00194252 0)
(0.00195176 0.00236494 0)
(0.00157408 0.00257252 0)
(0.00112834 0.0025345 0)
(0.0006707 0.00222064 0)
(0.000276188 0.00160245 0)
(5.30294e-05 0.000653283 0)
(-2.98147e-05 6.16328e-05 0)
(-0.000234577 0.000555966 0)
(-0.000713024 0.00128632 0)
(-0.00143969 0.00215525 0)
(-0.00240358 0.00309299 0)
(-0.00359804 0.00404797 0)
(-0.00501228 0.00498379 0)
(-0.00663303 0.00587649 0)
(-0.00844603 0.00671175 0)
(-0.0104367 0.00748241 0)
(-0.0125904 0.0081864 0)
(-0.0148931 0.008825 0)
(-0.0173312 0.00940142 0)
(-0.0198919 0.00991967 0)
(-0.0225627 0.0103837 0)
(-0.0253319 0.0107969 0)
(-0.0281876 0.0111614 0)
(-0.031118 0.0114782 0)
(-0.034111 0.0117468 0)
(-0.0371538 0.0119654 0)
(-0.040233 0.0121309 0)
(-0.0433341 0.0122392 0)
(-0.0464413 0.0122852 0)
(-0.0495378 0.0122633 0)
(-0.0526055 0.0121676 0)
(-0.0556251 0.0119921 0)
(-0.0585761 0.0117309 0)
(-0.0614371 0.0113786 0)
(-0.0641858 0.0109307 0)
(-0.0667994 0.0103834 0)
(-0.0692545 0.00973404 0)
(-0.0715279 0.00898135 0)
(-0.0735965 0.00812549 0)
(-0.075438 0.00716823 0)
(-0.0770306 0.00611304 0)
(-0.0783542 0.00496517 0)
(-0.0793901 0.0037317 0)
(-0.0801215 0.00242154 0)
(-0.080534 0.0010454 0)
(-0.0806158 -0.000384281 0)
(-0.0803579 -0.00185342 0)
(-0.0797545 -0.00334646 0)
(-0.0788032 -0.00484654 0)
(-0.0775052 -0.00633575 0)
(-0.0758653 -0.00779535 0)
(-0.0738924 -0.0092061 0)
(-0.0715992 -0.0105486 0)
(-0.0690022 -0.0118035 0)
(-0.0661219 -0.0129523 0)
(-0.0629826 -0.0139771 0)
(-0.0596121 -0.0148615 0)
(-0.0560414 -0.0155909 0)
(-0.0523048 -0.0161527 0)
(-0.0484388 -0.0165368 0)
(-0.0444823 -0.0167358 0)
(-0.0404757 -0.0167453 0)
(-0.0364605 -0.0165642 0)
(-0.0324783 -0.0161949 0)
(-0.0285706 -0.0156428 0)
(-0.0247779 -0.0149171 0)
(-0.0211387 -0.01403 0)
(-0.0176892 -0.012997 0)
(-0.0144624 -0.0118365 0)
(-0.0114873 -0.0105694 0)
(-0.00878865 -0.00921903 0)
(-0.00638599 -0.00781057 0)
(-0.00429341 -0.00637097 0)
(-0.00251906 -0.00492856 0)
(-0.00106481 -0.00351289 0)
(7.39501e-05 -0.00215455 0)
(0.000908536 -0.000885134 0)
(0.00145705 0.000262735 0)
(0.00174443 0.00125534 0)
(0.00180244 0.0020578 0)
(0.00166977 0.00263405 0)
(0.00139221 0.00294688 0)
(0.00102208 0.00295818 0)
(0.000618157 0.00262941 0)
(0.000257867 0.00192199 0)
(5.01066e-05 0.000795558 0)
(-4.18861e-05 0.000197201 0)
(-0.000308835 0.000963426 0)
(-0.000913899 0.00196217 0)
(-0.00181247 0.00309213 0)
(-0.00298245 0.0042804 0)
(-0.00441064 0.00547303 0)
(-0.00608085 0.00663198 0)
(-0.00797552 0.00773238 0)
(-0.0100772 0.00875962 0)
(-0.012369 0.00970669 0)
(-0.0148345 0.010572 0)
(-0.0174583 0.0113575 0)
(-0.0202258 0.0120672 0)
(-0.0231232 0.0127056 0)
(-0.0261374 0.0132773 0)
(-0.0292556 0.0137857 0)
(-0.032465 0.0142332 0)
(-0.035753 0.0146205 0)
(-0.0391061 0.0149465 0)
(-0.0425104 0.0152086 0)
(-0.0459509 0.0154028 0)
(-0.0494115 0.0155239 0)
(-0.052875 0.0155656 0)
(-0.0563228 0.0155209 0)
(-0.0597348 0.0153828 0)
(-0.0630901 0.0151439 0)
(-0.0663661 0.0147975 0)
(-0.0695398 0.0143371 0)
(-0.0725869 0.0137576 0)
(-0.0754828 0.0130547 0)
(-0.0782027 0.0122256 0)
(-0.0807217 0.0112692 0)
(-0.0830152 0.0101861 0)
(-0.0850595 0.00897888 0)
(-0.0868316 0.00765218 0)
(-0.0883102 0.00621277 0)
(-0.0894755 0.00466955 0)
(-0.0903099 0.00303362 0)
(-0.0907981 0.0013182 0)
(-0.0909275 -0.000461474 0)
(-0.0906885 -0.00228824 0)
(-0.0900747 -0.00414321 0)
(-0.0890831 -0.00600597 0)
(-0.0877147 -0.00785488 0)
(-0.0859739 -0.00966732 0)
(-0.0838695 -0.0114201 0)
(-0.0814142 -0.0130898 0)
(-0.0786247 -0.0146531 0)
(-0.0755219 -0.0160875 0)
(-0.0721308 -0.0173714 0)
(-0.0684799 -0.0184848 0)
(-0.0646017 -0.0194098 0)
(-0.0605318 -0.0201309 0)
(-0.0563087 -0.0206354 0)
(-0.0519735 -0.0209138 0)
(-0.047569 -0.0209606 0)
(-0.0431397 -0.0207736 0)
(-0.0387305 -0.020355 0)
(-0.0343863 -0.019711 0)
(-0.0301511 -0.018852 0)
(-0.0260674 -0.0177924 0)
(-0.0221753 -0.0165504 0)
(-0.0185116 -0.015148 0)
(-0.0151094 -0.0136104 0)
(-0.0119968 -0.0119657 0)
(-0.00919704 -0.0102445 0)
(-0.00672726 -0.00847967 0)
(-0.00459841 -0.00670589 0)
(-0.00281474 -0.00495925 0)
(-0.00137355 -0.0032772 0)
(-0.000264979 -0.00169828 0)
(0.000528071 -0.000262174 0)
(0.00103003 0.000990326 0)
(0.00127265 0.00201725 0)
(0.00129503 0.00277538 0)
(0.00114384 0.00322014 0)
(0.000872769 0.00330564 0)
(0.000542424 0.00298474 0)
(0.000231151 0.00220904 0)
(4.59219e-05 0.000925888 0)
(-5.40498e-05 0.000371328 0)
(-0.000384399 0.00147214 0)
(-0.00111919 0.00278962 0)
(-0.00219428 0.00422071 0)
(-0.00357602 0.0056913 0)
(-0.00524418 0.00714672 0)
(-0.00717669 0.0085488 0)
(-0.00935133 0.00987299 0)
(-0.0117471 0.0111053 0)
(-0.0143444 0.0122398 0)
(-0.0171251 0.0132758 0)
(-0.0200722 0.0142164 0)
(-0.0231702 0.0150665 0)
(-0.0264042 0.0158314 0)
(-0.0297604 0.0165162 0)
(-0.0332253 0.0171246 0)
(-0.0367854 0.0176589 0)
(-0.0404269 0.0181193 0)
(-0.0441355 0.0185043 0)
(-0.0478961 0.0188103 0)
(-0.0516925 0.0190322 0)
(-0.0555072 0.0191634 0)
(-0.0593215 0.0191966 0)
(-0.0631151 0.0191233 0)
(-0.0668667 0.0189351 0)
(-0.0705535 0.0186236 0)
(-0.0741514 0.0181808 0)
(-0.0776356 0.0175996 0)
(-0.0809805 0.0168741 0)
(-0.08416 0.0159996 0)
(-0.0871476 0.0149733 0)
(-0.0899172 0.0137942 0)
(-0.092443 0.0124637 0)
(-0.0946998 0.0109851 0)
(-0.0966638 0.00936426 0)
(-0.0983124 0.00760963 0)
(-0.0996249 0.00573201 0)
(-0.100583 0.00374475 0)
(-0.101169 0.00166361 0)
(-0.101371 -0.000493292 0)
(-0.101178 -0.00270567 0)
(-0.100583 -0.00495123 0)
(-0.0995812 -0.00720596 0)
(-0.0981734 -0.00944439 0)
(-0.0963634 -0.0116399 0)
(-0.0941591 -0.0137653 0)
(-0.0915728 -0.015793 0)
(-0.0886208 -0.0176954 0)
(-0.085324 -0.0194458 0)
(-0.0817073 -0.0210188 0)
(-0.0777999 -0.0223903 0)
(-0.0736348 -0.0235389 0)
(-0.0692488 -0.0244457 0)
(-0.064682 -0.0250951 0)
(-0.0599775 -0.0254754 0)
(-0.0551804 -0.025579 0)
(-0.050338 -0.0254028 0)
(-0.0454983 -0.0249484 0)
(-0.0407098 -0.0242223 0)
(-0.0360203 -0.023236 0)
(-0.0314764 -0.0220058 0)
(-0.0271223 -0.0205528 0)
(-0.0229992 -0.0189024 0)
(-0.0191443 -0.0170841 0)
(-0.0155901 -0.0151312 0)
(-0.0123634 -0.01308 0)
(-0.00948512 -0.0109694 0)
(-0.00696953 -0.0088409 0)
(-0.0048237 -0.00673757 0)
(-0.00304736 -0.00470412 0)
(-0.00163257 -0.00278658 0)
(-0.000563653 -0.00103215 0)
(0.00018288 0.000510855 0)
(0.000638326 0.00179287 0)
(0.000841828 0.00276305 0)
(0.000840473 0.00336909 0)
(0.000688827 0.003557 0)
(0.000448682 0.00327105 0)
(0.000198253 0.00245341 0)
(4.0917e-05 0.0010407 0)
(-6.62634e-05 0.000584481 0)
(-0.000460725 0.00208385 0)
(-0.00132711 0.0037717 0)
(-0.00258154 0.00554507 0)
(-0.00417855 0.00733043 0)
(-0.00609056 0.00907409 0)
(-0.00828934 0.0107392 0)
(-0.0107477 0.0123029 0)
(-0.0134407 0.0137528 0)
(-0.0163462 0.0150848 0)
(-0.0194438 0.0162999 0)
(-0.0227151 0.0174027 0)
(-0.0261434 0.0183992 0)
(-0.0297131 0.019296 0)
(-0.0334096 0.0200985 0)
(-0.0372186 0.0208107 0)
(-0.041126 0.0214349 0)
(-0.0451173 0.0219707 0)
(-0.0491773 0.0224158 0)
(-0.0532899 0.0227657 0)
(-0.0574377 0.023014 0)
(-0.0616021 0.023153 0)
(-0.0657632 0.0231737 0)
(-0.0698994 0.0230664 0)
(-0.0739878 0.0228213 0)
(-0.0780043 0.0224288 0)
(-0.0819236 0.0218799 0)
(-0.0857194 0.0211665 0)
(-0.0893647 0.0202822 0)
(-0.0928322 0.0192221 0)
(-0.0960942 0.0179832 0)
(-0.0991234 0.0165649 0)
(-0.101893 0.0149691 0)
(-0.104376 0.0132002 0)
(-0.106549 0.0112653 0)
(-0.108387 0.00917442 0)
(-0.109868 0.00694031 0)
(-0.110973 0.00457857 0)
(-0.111685 0.00210754 0)
(-0.111988 -0.000451819 0)
(-0.111871 -0.00307609 0)
(-0.111326 -0.00573958 0)
(-0.110347 -0.00841466 0)
(-0.108933 -0.011072 0)
(-0.107087 -0.013681 0)
(-0.104815 -0.0162101 0)
(-0.102129 -0.0186276 0)
(-0.0990451 -0.0209014 0)
(-0.0955821 -0.0230006 0)
(-0.0917652 -0.0248951 0)
(-0.0876234 -0.026557 0)
(-0.0831901 -0.0279606 0)
(-0.0785028 -0.0290834 0)
(-0.073603 -0.0299065 0)
(-0.0685352 -0.0304153 0)
(-0.063347 -0.0306 0)
(-0.0580883 -0.0304557 0)
(-0.0528104 -0.0299832 0)
(-0.0475654 -0.029189 0)
(-0.0424052 -0.0280853 0)
(-0.0373807 -0.0266903 0)
(-0.0325407 -0.0250275 0)
(-0.0279312 -0.0231259 0)
(-0.023594 -0.0210195 0)
(-0.0195663 -0.0187465 0)
(-0.0158794 -0.0163492 0)
(-0.0125585 -0.0138733 0)
(-0.00962148 -0.0113671 0)
(-0.00707898 -0.00888121 0)
(-0.00493359 -0.00646813 0)
(-0.00317978 -0.0041818 0)
(-0.00180374 -0.00207748 0)
(-0.000783302 -0.000211547 0)
(-8.7982e-05 0.00135838 0)
(0.000321033 0.00257341 0)
(0.000490897 0.00337311 0)
(0.000476629 0.00369522 0)
(0.000340776 0.00347546 0)
(0.000160758 0.00264714 0)
(3.5385e-05 0.0011374 0)
(-7.84941e-05 0.000836906 0)
(-0.00053738 0.0027995 0)
(-0.0015362 0.00491007 0)
(-0.00297129 0.00706747 0)
(-0.00478521 0.00920044 0)
(-0.00694289 0.0112579 0)
(-0.0094097 0.013206 0)
(-0.0121532 0.0150244 0)
(-0.0151448 0.016704 0)
(-0.018359 0.0182429 0)
(-0.0217736 0.0196448 0)
(-0.0253684 0.0209161 0)
(-0.0291257 0.0220645 0)
(-0.0330291 0.0230976 0)
(-0.0370633 0.0240217 0)
(-0.0412134 0.0248411 0)
(-0.0454647 0.0255576 0)
(-0.049802 0.0261707 0)
(-0.0542094 0.0266769 0)
(-0.0586699 0.0270707 0)
(-0.0631653 0.0273445 0)
(-0.0676761 0.0274891 0)
(-0.0721811 0.0274939 0)
(-0.0766577 0.027348 0)
(-0.0810818 0.0270402 0)
(-0.0854282 0.0265595 0)
(-0.0896704 0.0258961 0)
(-0.093781 0.025041 0)
(-0.0977319 0.0239872 0)
(-0.101495 0.0227294 0)
(-0.105041 0.0212649 0)
(-0.108342 0.0195932 0)
(-0.111369 0.017717 0)
(-0.114097 0.0156415 0)
(-0.116497 0.0133751 0)
(-0.118547 0.0109295 0)
(-0.120222 0.00831923 0)
(-0.121502 0.00556216 0)
(-0.122368 0.00267912 0)
(-0.122804 -0.000306166 0)
(-0.122796 -0.00336719 0)
(-0.122334 -0.00647495 0)
(-0.121412 -0.00959819 0)
(-0.120027 -0.0127037 0)
(-0.11818 -0.0157569 0)
(-0.115875 -0.0187219 0)
(-0.113122 -0.0215625 0)
(-0.109936 -0.0242422 0)
(-0.106335 -0.0267252 0)
(-0.102343 -0.0289771 0)
(-0.0979888 -0.030965 0)
(-0.0933054 -0.0326591 0)
(-0.0883307 -0.0340325 0)
(-0.083107 -0.0350625 0)
(-0.0776804 -0.0357312 0)
(-0.0721007 -0.0360257 0)
(-0.0664203 -0.0359393 0)
(-0.0606938 -0.0354712 0)
(-0.0549772 -0.0346274 0)
(-0.0493267 -0.0334205 0)
(-0.0437979 -0.0318701 0)
(-0.0384447 -0.0300021 0)
(-0.0333182 -0.0278489 0)
(-0.0284656 -0.0254489 0)
(-0.0239294 -0.0228456 0)
(-0.019746 -0.0200876 0)
(-0.0159453 -0.0172271 0)
(-0.0125499 -0.0143201 0)
(-0.00957418 -0.0114252 0)
(-0.00702434 -0.00860309 0)
(-0.00489771 -0.00591623 0)
(-0.00318281 -0.00342845 0)
(-0.00185918 -0.00120477 0)
(-0.00089751 0.00068863 0)
(-0.000259623 0.00218435 0)
(0.000101396 0.0032135 0)
(0.000240732 0.00370535 0)
(0.000221421 0.00358716 0)
(0.000119753 0.00278384 0)
(2.95171e-05 0.00121408 0)
(-9.07026e-05 0.00112866 0)
(-0.000613956 0.00361935 0)
(-0.00174517 0.00620524 0)
(-0.00336089 0.0087886 0)
(-0.0053917 0.0113021 0)
(-0.00779495 0.013699 0)
(-0.0105295 0.0159496 0)
(-0.0135578 0.018038 0)
(-0.0168469 0.0199587 0)
(-0.0203687 0.0217136 0)
(-0.0240984 0.0233093 0)
(-0.0280146 0.0247549 0)
(-0.0320982 0.02606 0)
(-0.0363322 0.0272336 0)
(-0.0407005 0.0282828 0)
(-0.0451878 0.0292122 0)
(-0.0497789 0.0300234 0)
(-0.054458 0.0307154 0)
(-0.0592087 0.0312837 0)
(-0.0640133 0.0317217 0)
(-0.0688529 0.0320203 0)
(-0.073707 0.0321688 0)
(-0.0785537 0.0321553 0)
(-0.0833694 0.0319672 0)
(-0.0881293 0.031592 0)
(-0.092807 0.0310175 0)
(-0.0973751 0.0302328 0)
(-0.101805 0.0292283 0)
(-0.106069 0.0279962 0)
(-0.110136 0.0265312 0)
(-0.113978 0.0248304 0)
(-0.117565 0.0228938 0)
(-0.120867 0.0207244 0)
(-0.123858 0.0183287 0)
(-0.126509 0.0157161 0)
(-0.128794 0.0128997 0)
(-0.13069 0.0098961 0)
(-0.132174 0.00672505 0)
(-0.133226 0.00340979 0)
(-0.133827 -2.32644e-05 0)
(-0.133962 -0.00354466 0)
(-0.13362 -0.00712216 0)
(-0.132792 -0.010721 0)
(-0.131472 -0.0143041 0)
(-0.129658 -0.0178328 0)
(-0.127355 -0.021267 0)
(-0.124569 -0.0245657 0)
(-0.121313 -0.0276878 0)
(-0.117604 -0.0305927 0)
(-0.113463 -0.0332407 0)
(-0.108919 -0.0355942 0)
(-0.104004 -0.0376183 0)
(-0.0987567 -0.0392814 0)
(-0.0932188 -0.0405564 0)
(-0.0874381 -0.0414213 0)
(-0.0814662 -0.0418598 0)
(-0.0753581 -0.0418623 0)
(-0.0691719 -0.041426 0)
(-0.0629674 -0.0405559 0)
(-0.0568055 -0.0392644 0)
(-0.0507468 -0.0375721 0)
(-0.0448507 -0.035507 0)
(-0.0391743 -0.0331048 0)
(-0.0337707 -0.0304081 0)
(-0.0286881 -0.0274659 0)
(-0.0239692 -0.024333 0)
(-0.0196492 -0.0210691 0)
(-0.0157559 -0.0177379 0)
(-0.0123084 -0.0144065 0)
(-0.00931693 -0.0111443 0)
(-0.00678235 -0.0080231 0)
(-0.00469594 -0.00511581 0)
(-0.0030394 -0.00249669 0)
(-0.0017849 -0.000241058 0)
(-0.000895231 0.00157468 0)
(-0.00032394 0.00287279 0)
(-1.58713e-05 0.00357389 0)
(9.2398e-05 0.00359677 0)
(7.59403e-05 0.00285825 0)
(2.34317e-05 0.00126928 0)
(-0.000102839 0.00145959 0)
(-0.00069004 0.00454302 0)
(-0.00195275 0.00765663 0)
(-0.00374784 0.0107077 0)
(-0.00599395 0.0136346 0)
(-0.00864089 0.0163962 0)
(-0.0116411 0.0189688 0)
(-0.0149515 0.0213418 0)
(-0.0185354 0.0235149 0)
(-0.0223615 0.0254944 0)
(-0.0264029 0.0272907 0)
(-0.0306365 0.0289159 0)
(-0.0350423 0.0303821 0)
(-0.0396024 0.0316999 0)
(-0.0443002 0.0328774 0)
(-0.0491199 0.0339195 0)
(-0.054046 0.0348279 0)
(-0.0590622 0.0356005 0)
(-0.0641516 0.0362322 0)
(-0.0692961 0.0367149 0)
(-0.0744761 0.0370383 0)
(-0.0796706 0.0371899 0)
(-0.084857 0.0371564 0)
(-0.0900111 0.0369237 0)
(-0.0951071 0.0364778 0)
(-0.100118 0.0358055 0)
(-0.105016 0.0348947 0)
(-0.109772 0.0337351 0)
(-0.114356 0.0323183 0)
(-0.118738 0.0306387 0)
(-0.122888 0.0286934 0)
(-0.126776 0.0264828 0)
(-0.130371 0.0240104 0)
(-0.133645 0.0212833 0)
(-0.136569 0.0183123 0)
(-0.139117 0.0151117 0)
(-0.141261 0.0116998 0)
(-0.142979 0.00809818 0)
(-0.144248 0.00433237 0)
(-0.145049 0.00043125 0)
(-0.145363 -0.00357294 0)
(-0.145177 -0.00764484 0)
(-0.144478 -0.0117462 0)
(-0.14326 -0.0158364 0)
(-0.141519 -0.0198726 0)
(-0.139253 -0.0238102 0)
(-0.136469 -0.0276038 0)
(-0.133177 -0.0312071 0)
(-0.12939 -0.0345744 0)
(-0.125129 -0.0376608 0)
(-0.12042 -0.0404231 0)
(-0.115295 -0.042821 0)
(-0.10979 -0.0448176 0)
(-0.10395 -0.0463807 0)
(-0.0978216 -0.0474834 0)
(-0.0914585 -0.0481053 0)
(-0.0849182 -0.0482332 0)
(-0.078262 -0.0478616 0)
(-0.0715539 -0.0469936 0)
(-0.0648595 -0.0456409 0)
(-0.0582449 -0.0438246 0)
(-0.0517757 -0.0415743 0)
(-0.0455152 -0.0389288 0)
(-0.0395232 -0.0359348 0)
(-0.0338549 -0.0326468 0)
(-0.0285593 -0.0291262 0)
(-0.0236782 -0.0254401 0)
(-0.0192454 -0.0216606 0)
(-0.0152854 -0.0178638 0)
(-0.0118133 -0.0141288 0)