/*--------------------------------*- C++ -*----------------------------------*\
  =========                 |
  \\      /  F ield         | OpenFOAM: The Open Source CFD Toolbox
   \\    /   O peration     | Website:  https://openfoam.org
    \\  /    A nd           | Version:  7
     \\/     M anipulation  |
\*---------------------------------------------------------------------------*/
FoamFile
{
    version     2.0;
    format      ascii;
    class       surfaceScalarField;
    location    "0.275";
    object      phi;
}
// * * * * * * * * * * * * * * * * * * * * * * * * * * * * * * * * * * * * * //

dimensions      [0 3 -1 0 0 0 0];

internalField   nonuniform List<scalar> 
12640
(
1.77609e-10
-1.87243e-10
5.02118e-10
-3.24488e-10
7.65258e-10
-2.63178e-10
8.57523e-10
-9.22168e-11
7.28594e-10
1.28964e-10
3.60081e-10
3.68521e-10
-2.48407e-10
6.08459e-10
-1.08721e-09
8.38763e-10
-2.14106e-09
1.05385e-09
-3.39174e-09
1.25069e-09
-4.81955e-09
1.42782e-09
-6.40425e-09
1.58472e-09
-8.12571e-09
1.72147e-09
-9.96423e-09
1.83851e-09
-1.19007e-08
1.93648e-09
-1.39168e-08
2.01614e-09
-1.59952e-08
2.07833e-09
-1.81191e-08
2.1239e-09
-2.02728e-08
2.15368e-09
-2.24413e-08
2.16847e-09
-2.46103e-08
2.16901e-09
-2.67663e-08
2.156e-09
-2.88963e-08
2.13006e-09
-3.09881e-08
2.0918e-09
-3.30299e-08
2.04177e-09
-3.50103e-08
1.98041e-09
-3.69184e-08
1.90818e-09
-3.8744e-08
1.82551e-09
-4.04767e-08
1.73278e-09
-4.21071e-08
1.63033e-09
-4.36256e-08
1.51856e-09
-4.50235e-08
1.39786e-09
-4.62921e-08
1.26863e-09
-4.74234e-08
1.13129e-09
-4.84097e-08
9.86325e-10
-4.9244e-08
8.34266e-10
-4.99197e-08
6.75704e-10
-5.0431e-08
5.11285e-10
-5.07727e-08
3.41732e-10
-5.09406e-08
1.67854e-10
-5.09311e-08
-9.46191e-12
-5.07419e-08
-1.89253e-10
-5.03714e-08
-3.70475e-10
-4.98194e-08
-5.51996e-10
-4.90868e-08
-7.32608e-10
-4.81757e-08
-9.11035e-10
-4.70898e-08
-1.08594e-09
-4.58339e-08
-1.25592e-09
-4.44143e-08
-1.41956e-09
-4.2839e-08
-1.57538e-09
-4.1117e-08
-1.72192e-09
-3.92593e-08
-1.85772e-09
-3.7278e-08
-1.98131e-09
-3.51868e-08
-2.09127e-09
-3.30005e-08
-2.18625e-09
-3.07355e-08
-2.26497e-09
-2.84093e-08
-2.32626e-09
-2.60402e-08
-2.36905e-09
-2.36479e-08
-2.39238e-09
-2.12524e-08
-2.39548e-09
-1.88747e-08
-2.3777e-09
-1.65361e-08
-2.33859e-09
-1.42582e-08
-2.2779e-09
-1.20626e-08
-2.19558e-09
-9.97078e-09
-2.09179e-09
-8.00387e-09
-1.96692e-09
-6.18226e-09
-1.82161e-09
-4.52546e-09
-1.65679e-09
-3.05176e-09
-1.4737e-09
-1.7778e-09
-1.27396e-09
-7.18102e-10
-1.05971e-09
1.15656e-10
-8.33764e-10
7.1563e-10
-5.99976e-10
1.07933e-09
-3.63697e-10
1.21222e-09
-1.32882e-10
1.1319e-09
8.03357e-11
8.75077e-10
2.56838e-10
5.0973e-10
3.65358e-10
1.57055e-10
3.52681e-10
1.5706e-10
3.21827e-10
-5.09042e-10
7.40771e-10
-7.43444e-10
9.36404e-10
-4.5882e-10
7.12225e-10
1.31881e-10
-4.55063e-11
8.86698e-10
-1.39087e-09
1.71392e-09
-3.33777e-09
2.55539e-09
-5.87356e-09
3.37457e-09
-8.96875e-09
4.14902e-09
-1.25833e-08
4.86526e-09
-1.66711e-08
5.51556e-09
-2.11824e-08
6.09604e-09
-2.60663e-08
6.60529e-09
-3.12714e-08
7.04363e-09
-3.67473e-08
7.4124e-09
-4.24448e-08
7.71362e-09
-4.83162e-08
7.94972e-09
-5.43156e-08
8.12336e-09
-6.03991e-08
8.23726e-09
-6.65248e-08
8.29411e-09
-7.26523e-08
8.29649e-09
-7.87431e-08
8.24688e-09
-8.47607e-08
8.14758e-09
-9.06696e-08
8.00074e-09
-9.64361e-08
7.80832e-09
-1.02028e-07
7.57218e-09
-1.07414e-07
7.29406e-09
-1.12564e-07
6.97556e-09
-1.17449e-07
6.61822e-09
-1.22043e-07
6.22359e-09
-1.26317e-07
5.79319e-09
-1.30248e-07
5.32859e-09
-1.33811e-07
4.83146e-09
-1.36983e-07
4.30358e-09
-1.39744e-07
3.74687e-09
-1.42073e-07
3.16347e-09
-1.43953e-07
2.5557e-09
-1.45368e-07
1.92617e-09
-1.46304e-07
1.27771e-09
-1.46749e-07
6.13461e-10
-1.46696e-07
-6.31741e-11
-1.46136e-07
-7.48468e-10
-1.45068e-07
-1.43841e-09
-1.43492e-07
-2.1287e-09
-1.41409e-07
-2.81479e-09
-1.38829e-07
-3.49185e-09
-1.3576e-07
-4.15483e-09
-1.32217e-07
-4.79854e-09
-1.28219e-07
-5.4176e-09
-1.23788e-07
-6.00659e-09
-1.1895e-07
-6.56004e-09
-1.13735e-07
-7.07248e-09
-1.08178e-07
-7.53854e-09
-1.02316e-07
-7.95301e-09
-9.61914e-08
-8.3109e-09
-8.98489e-08
-8.60753e-09
-8.33365e-08
-8.83859e-09
-7.67054e-08
-9.00018e-09
-7.00089e-08
-9.0889e-09
-6.33024e-08
-9.10193e-09
-5.6643e-08
-9.03707e-09
-5.00888e-08
-8.89281e-09
-4.36983e-08
-8.66837e-09
-3.75301e-08
-8.36379e-09
-3.1642e-08
-7.97994e-09
-2.60903e-08
-7.51864e-09
-2.09291e-08
-6.98274e-09
-1.62097e-08
-6.37623e-09
-1.19789e-08
-5.70444e-09
-8.27856e-09
-4.9743e-09
-5.14344e-09
-4.19483e-09
-2.59946e-09
-3.37775e-09
-6.60849e-10
-2.53859e-09
6.73802e-10
-1.69835e-09
1.42708e-09
-8.86153e-10
1.65075e-09
-1.43324e-10
1.43696e-09
4.70625e-10
9.32421e-10
8.69906e-10
3.52023e-10
9.33087e-10
5.09085e-10
2.65681e-10
-7.74757e-10
4.65608e-10
-9.43314e-10
2.43045e-10
-2.36227e-10
-6.28838e-10
1.00377e-09
-2.29022e-09
2.54802e-09
-4.8141e-09
4.23775e-09
-8.22354e-09
5.96483e-09
-1.25062e-08
7.65725e-09
-1.76251e-08
9.26787e-09
-2.35264e-08
1.07665e-08
-3.01455e-08
1.21347e-08
-3.74113e-08
1.33618e-08
-4.5249e-08
1.4443e-08
-5.35822e-08
1.53769e-08
-6.23349e-08
1.6165e-08
-7.14318e-08
1.68105e-08
-8.07995e-08
1.73174e-08
-9.03669e-08
1.76907e-08
-1.00065e-07
1.79355e-08
-1.09828e-07
1.80571e-08
-1.19592e-07
1.80606e-08
-1.29296e-07
1.7951e-08
-1.38882e-07
1.77331e-08
-1.48293e-07
1.74115e-08
-1.57475e-07
1.69903e-08
-1.66376e-07
1.64734e-08
-1.74946e-07
1.58647e-08
-1.83139e-07
1.51677e-08
-1.90906e-07
1.43859e-08
-1.98205e-07
1.35228e-08
-2.04994e-07
1.25817e-08
-2.11232e-07
1.15663e-08
-2.16881e-07
1.04804e-08
-2.21905e-07
9.32802e-09
-2.26272e-07
8.11346e-09
-2.2995e-07
6.84154e-09
-2.32912e-07
5.51749e-09
-2.35132e-07
4.14704e-09
-2.36591e-07
2.73647e-09
-2.3727e-07
1.29269e-09
-2.37157e-07
-1.7683e-10
-2.36241e-07
-1.66397e-09
-2.3452e-07
-3.16004e-09
-2.31993e-07
-4.65572e-09
-2.28666e-07
-6.14118e-09
-2.24552e-07
-7.60603e-09
-2.19667e-07
-9.03947e-09
-2.14035e-07
-1.04303e-08
-2.07686e-07
-1.17672e-08
-2.00654e-07
-1.30384e-08
-1.92982e-07
-1.42324e-08
-1.84717e-07
-1.53374e-08
-1.75913e-07
-1.63422e-08
-1.6663e-07
-1.72358e-08
-1.56934e-07
-1.80075e-08
-1.46894e-07
-1.86476e-08
-1.36585e-07
-1.91469e-08
-1.26088e-07
-1.94972e-08
-1.15486e-07
-1.96916e-08
-1.04863e-07
-1.97242e-08
-9.43097e-08
-1.95906e-08
-8.39148e-08
-1.92877e-08
-7.37689e-08
-1.88143e-08
-6.3962e-08
-1.81707e-08
-5.45827e-08
-1.73593e-08
-4.57169e-08
-1.63844e-08
-3.74468e-08
-1.52529e-08
-2.98492e-08
-1.39738e-08
-2.2994e-08
-1.25597e-08
-1.69421e-08
-1.10262e-08
-1.17432e-08
-9.3937e-09
-7.43265e-09
-7.68832e-09
-4.02741e-09
-5.94382e-09
-1.52124e-09
-4.2045e-09
1.22033e-10
-2.52941e-09
9.77057e-10
-9.98337e-10
1.16755e-09
2.80135e-10
8.78216e-10
1.15925e-09
3.66988e-10
1.44432e-09
8.7607e-10
9.97958e-11
-8.74541e-10
-1.15886e-10
-7.27686e-10
-9.85443e-10
6.33408e-10
-2.73273e-09
2.75109e-09
-5.49936e-09
5.31464e-09
-9.36127e-09
8.09966e-09
-1.43429e-08
1.09464e-08
-2.04295e-08
1.37439e-08
-2.75778e-08
1.64162e-08
-3.57237e-08
1.89124e-08
-4.47888e-08
2.11998e-08
-5.46855e-08
2.32585e-08
-6.53204e-08
2.50778e-08
-7.6597e-08
2.66535e-08
-8.84181e-08
2.79861e-08
-1.00687e-07
2.90792e-08
-1.13308e-07
2.99385e-08
-1.26188e-07
3.0571e-08
-1.39237e-07
3.09846e-08
-1.52368e-07
3.11875e-08
-1.65495e-07
3.11878e-08
-1.78538e-07
3.09936e-08
-1.91417e-07
3.06128e-08
-2.04059e-07
3.00528e-08
-2.16389e-07
2.93207e-08
-2.28339e-07
2.84232e-08
-2.39841e-07
2.73669e-08
-2.50831e-07
2.61578e-08
-2.61247e-07
2.48022e-08
-2.71031e-07
2.33061e-08
-2.80125e-07
2.16756e-08
-2.88475e-07
1.99172e-08
-2.96033e-07
1.80376e-08
-3.02749e-07
1.60439e-08
-3.08579e-07
1.3944e-08
-3.13484e-07
1.17461e-08
-3.17426e-07
9.45958e-09
-3.20373e-07
7.09443e-09
-3.22298e-07
4.66164e-09
-3.23179e-07
2.17319e-09
-3.22998e-07
-3.57968e-10
-3.21744e-07
-2.91785e-09
-3.19412e-07
-5.49147e-09
-3.16005e-07
-8.06286e-09
-3.11531e-07
-1.06152e-08
-3.06007e-07
-1.31307e-08
-2.99455e-07
-1.5591e-08
-2.91908e-07
-1.79771e-08
-2.83406e-07
-2.02696e-08
-2.73995e-07
-2.24489e-08
-2.63733e-07
-2.44951e-08
-2.52681e-07
-2.63888e-08
-2.40913e-07
-2.81107e-08
-2.28506e-07
-2.96423e-08
-2.15548e-07
-3.09659e-08
-2.0213e-07
-3.20649e-08
-1.88353e-07
-3.29241e-08
-1.7432e-07
-3.35299e-08
-1.60141e-07
-3.38706e-08
-1.45929e-07
-3.39367e-08
-1.31799e-07
-3.37209e-08
-1.17868e-07
-3.32185e-08
-1.04254e-07
-3.24277e-08
-9.10754e-08
-3.13498e-08
-7.84454e-08
-2.99892e-08
-6.64757e-08
-2.83541e-08
-5.52717e-08
-2.64568e-08
-4.49317e-08
-2.43139e-08
-3.55442e-08
-2.19472e-08
-2.71858e-08
-1.93846e-08
-1.99178e-08
-1.66617e-08
-1.3783e-08
-1.38231e-08
-8.80118e-09
-1.09257e-08
-4.96362e-09
-8.04206e-09
-2.22688e-09
-5.26615e-09
-5.05e-10
-2.72021e-09
3.39576e-10
-5.6444e-10
5.05863e-10
9.92956e-10
2.66374e-10
1.6838e-09
1.14244e-09
-1.18471e-10
-7.56049e-10
-8.69318e-10
2.31097e-11
-2.53662e-09
2.30069e-09
-5.31626e-09
5.53075e-09
-9.33356e-09
9.33195e-09
-1.46547e-08
1.34208e-08
-2.12972e-08
1.75889e-08
-2.92398e-08
2.16865e-08
-3.84314e-08
2.56078e-08
-4.87985e-08
2.92794e-08
-6.0251e-08
3.26523e-08
-7.26877e-08
3.56952e-08
-8.60001e-08
3.83902e-08
-1.00075e-07
4.07286e-08
-1.14798e-07
4.27091e-08
-1.30054e-07
4.43349e-08
-1.45728e-07
4.5613e-08
-1.61709e-07
4.65523e-08
-1.77888e-07
4.71633e-08
-1.94158e-07
4.74573e-08
-2.10416e-07
4.74458e-08
-2.26562e-07
4.71402e-08
-2.42501e-07
4.65518e-08
-2.5814e-07
4.56915e-08
-2.73389e-07
4.45697e-08
-2.88162e-07
4.31967e-08
-3.02378e-07
4.1582e-08
-3.15955e-07
3.97352e-08
-3.28819e-07
3.76657e-08
-3.40895e-07
3.53828e-08
-3.52116e-07
3.28961e-08
-3.62414e-07
3.02155e-08
-3.71728e-07
2.73516e-08
-3.8e-07
2.43155e-08
-3.87175e-07
2.11191e-08
-3.93204e-07
1.77755e-08
-3.98044e-07
1.4299e-08
-4.01654e-07
1.07049e-08
-4.04003e-07
7.01016e-09
-4.05062e-07
3.23297e-09
-4.04813e-07
-6.06924e-10
-4.03243e-07
-4.48829e-09
-4.00346e-07
-8.38844e-09
-3.96126e-07
-1.22833e-08
-3.90593e-07
-1.61474e-08
-3.8377e-07
-1.99541e-08
-3.75685e-07
-2.36759e-08
-3.66378e-07
-2.72843e-08
-3.55897e-07
-3.07502e-08
-3.44302e-07
-3.40443e-08
-3.3166e-07
-3.7137e-08
-3.18049e-07
-3.99993e-08
-3.03558e-07
-4.26026e-08
-2.88281e-07
-4.49193e-08
-2.72323e-07
-4.69231e-08
-2.55799e-07
-4.85895e-08
-2.38827e-07
-4.98961e-08
-2.21534e-07
-5.08228e-08
-2.04052e-07
-5.13525e-08
-1.86518e-07
-5.14711e-08
-1.6907e-07
-5.11684e-08
-1.51851e-07
-5.04379e-08
-1.35001e-07
-4.92772e-08
-1.18662e-07
-4.7689e-08
-1.0297e-07
-4.56807e-08
-8.80592e-08
-4.32653e-08
-7.4054e-08
-4.0462e-08
-6.10711e-08
-3.72967e-08
-4.92152e-08
-3.38031e-08
-3.8576e-08
-3.00238e-08
-2.92255e-08
-2.60122e-08
-2.12138e-08
-2.18349e-08
-1.45645e-08
-1.75749e-08
-9.27037e-09
-1.33362e-08
-5.2869e-09
-9.24963e-09
-2.52622e-09
-5.48089e-09
-8.49886e-10
-2.24078e-09
-6.11958e-11
2.04259e-10
1.04235e-10
1.51836e-09
1.24667e-09
-3.5918e-10
-3.96813e-10
-1.71059e-09
1.37447e-09
-4.2676e-09
4.85767e-09
-8.18174e-09
9.44488e-09
-1.35492e-08
1.46994e-08
-2.04164e-08
2.0288e-08
-2.87865e-08
2.59591e-08
-3.86272e-08
3.15271e-08
-4.98768e-08
3.68574e-08
-6.24514e-08
4.1854e-08
-7.62499e-08
4.64509e-08
-9.11591e-08
5.06044e-08
-1.07057e-07
5.42881e-08
-1.23817e-07
5.74883e-08
-1.41308e-07
6.02007e-08
-1.59401e-07
6.24278e-08
-1.77965e-07
6.41769e-08
-1.96872e-07
6.54591e-08
-2.15996e-07
6.62871e-08
-2.35214e-07
6.66752e-08
-2.54406e-07
6.66384e-08
-2.73458e-07
6.61918e-08
-2.92256e-07
6.53503e-08
-3.10694e-07
6.41286e-08
-3.28665e-07
6.25411e-08
-3.4607e-07
6.06015e-08
-3.62811e-07
5.83234e-08
-3.78796e-07
5.57201e-08
-3.93935e-07
5.28048e-08
-4.08143e-07
4.95907e-08
-4.21339e-07
4.60916e-08
-4.33445e-07
4.23216e-08
-4.44389e-07
3.82956e-08
-4.54103e-07
3.40295e-08
-4.62524e-07
2.95406e-08
-4.69596e-07
2.48473e-08
-4.75267e-07
1.99698e-08
-4.79492e-07
1.49298e-08
-4.82233e-07
9.75123e-09
-4.8346e-07
4.45966e-09
-4.83149e-07
-9.17228e-10
-4.81288e-07
-6.34972e-09
-4.7787e-07
-1.18062e-08
-4.729e-07
-1.72529e-08
-4.66393e-07
-2.26548e-08
-4.58372e-07
-2.79747e-08
-4.48874e-07
-3.31745e-08
-4.37943e-07
-3.82148e-08
-4.25638e-07
-4.30553e-08
-4.12027e-07
-4.76556e-08
-3.97189e-07
-5.19751e-08
-3.81214e-07
-5.59736e-08
-3.64205e-07
-5.96118e-08
-3.46272e-07
-6.28518e-08
-3.27538e-07
-6.56577e-08
-3.08132e-07
-6.79957e-08
-2.88193e-07
-6.98351e-08
-2.67867e-07
-7.11487e-08
-2.47306e-07
-7.19131e-08
-2.26668e-07
-7.21095e-08
-2.06112e-07
-7.17241e-08
-1.85802e-07
-7.07483e-08
-1.65899e-07
-6.91798e-08
-1.46565e-07
-6.70227e-08
-1.27958e-07
-6.42881e-08
-1.10228e-07
-6.0995e-08
-9.35197e-08
-5.71706e-08
-7.79648e-08
-5.28517e-08
-6.36826e-08
-4.80854e-08
-5.07752e-08
-4.29311e-08
-3.93249e-08
-3.74625e-08
-2.93899e-08
-3.17699e-08
-2.10004e-08
-2.59644e-08
-1.4154e-08
-2.01826e-08
-8.811e-09
-1.45926e-08
-4.88936e-09
-9.40254e-09
-2.25947e-09
-4.87067e-09
-7.39238e-10
-1.31598e-09
-8.86281e-11
8.67751e-10
1.15804e-09
-6.06332e-10
2.09547e-10
-2.58892e-09
3.35707e-09
-6.08522e-09
8.35397e-09
-1.11943e-08
1.4554e-08
-1.79747e-08
2.14798e-08
-2.64454e-08
2.87586e-08
-3.65893e-08
3.6103e-08
-4.8358e-08
4.32959e-08
-6.16768e-08
5.01762e-08
-7.64495e-08
5.66267e-08
-9.25633e-08
6.25648e-08
-1.09893e-07
6.79344e-08
-1.28305e-07
7.27003e-08
-1.4766e-07
7.68429e-08
-1.67814e-07
8.03546e-08
-1.88623e-07
8.32367e-08
-2.09943e-07
8.54968e-08
-2.31631e-07
8.71471e-08
-2.53547e-07
8.8203e-08
-2.75553e-07
8.86817e-08
-2.97516e-07
8.86015e-08
-3.19306e-07
8.79813e-08
-3.40796e-07
8.684e-08
-3.61863e-07
8.51964e-08
-3.82391e-07
8.30687e-08
-4.02265e-07
8.04751e-08
-4.21374e-07
7.74332e-08
-4.39615e-07
7.39607e-08
-4.56885e-07
7.00749e-08
-4.73088e-07
6.57938e-08
-4.88132e-07
6.11355e-08
-5.0193e-07
5.61192e-08
-5.14399e-07
5.0765e-08
-5.25464e-07
4.50941e-08
-5.35053e-07
3.91297e-08
-5.43102e-07
3.28966e-08
-5.49554e-07
2.64217e-08
-5.54358e-07
1.97341e-08
-5.57473e-07
1.28655e-08
-5.58863e-07
5.84991e-09
-5.58504e-07
-1.27596e-09
-5.56381e-07
-8.47284e-09
-5.52488e-07
-1.56989e-08
-5.46831e-07
-2.291e-08
-5.39426e-07
-3.00597e-08
-5.30302e-07
-3.70993e-08
-5.19497e-07
-4.39788e-08
-5.07066e-07
-5.06465e-08
-4.93071e-07
-5.70499e-08
-4.77591e-07
-6.3136e-08
-4.60714e-07
-6.88517e-08
-4.42543e-07
-7.41447e-08
-4.23191e-07
-7.89637e-08
-4.02784e-07
-8.32593e-08
-3.81457e-07
-8.69847e-08
-3.59356e-07
-9.00962e-08
-3.36637e-07
-9.25539e-08
-3.13464e-07
-9.43224e-08
-2.90005e-07
-9.53716e-08
-2.66437e-07
-9.56773e-08
-2.42939e-07
-9.52219e-08
-2.19693e-07
-9.39949e-08
-1.96879e-07
-9.19937e-08
-1.74677e-07
-8.92245e-08
-1.53263e-07
-8.57025e-08
-1.32805e-07
-8.14532e-08
-1.13462e-07
-7.65131e-08
-9.5383e-08
-7.09309e-08
-7.86997e-08
-6.47686e-08
-6.35269e-08
-5.81039e-08
-4.99577e-08
-5.10316e-08
-3.80601e-08
-4.36675e-08
-2.78731e-08
-3.61514e-08
-1.94032e-08
-2.86525e-08
-1.26204e-08
-2.13755e-08
-7.45442e-09
-1.45685e-08
-3.79196e-09
-8.53313e-09
-1.47401e-09
-3.63394e-09
-2.94555e-10
-3.11698e-10
8.63497e-10
-8.51725e-10
1.06125e-09
-3.47421e-09
5.97958e-09
-7.931e-09
1.28108e-08
-1.42654e-08
2.08883e-08
-2.24932e-08
2.97076e-08
-3.26008e-08
3.88663e-08
-4.45463e-08
4.80485e-08
-5.82613e-08
5.70108e-08
-7.36546e-08
6.55695e-08
-9.06163e-08
7.35884e-08
-1.09021e-07
8.09692e-08
-1.28731e-07
8.76444e-08
-1.496e-07
9.357e-08
-1.71478e-07
9.87207e-08
-1.94209e-07
1.03085e-07
-2.17636e-07
1.06664e-07
-2.41602e-07
1.09463e-07
-2.65953e-07
1.11498e-07
-2.90535e-07
1.12785e-07
-3.15198e-07
1.13345e-07
-3.39795e-07
1.13198e-07
-3.64183e-07
1.12369e-07
-3.88223e-07
1.1088e-07
-4.11781e-07
1.08754e-07
-4.34726e-07
1.06014e-07
-4.56932e-07
1.02681e-07
-4.78278e-07
9.87795e-08
-4.98648e-07
9.43303e-08
-5.17929e-07
8.9356e-08
-5.36015e-07
8.38795e-08
-5.52803e-07
7.7924e-08
-5.68198e-07
7.15142e-08
-5.82109e-07
6.46757e-08
-5.94451e-07
5.74362e-08
-6.05147e-07
4.98253e-08
-6.14125e-07
4.18747e-08
-6.21322e-07
3.36189e-08
-6.26683e-07
2.50953e-08
-6.30162e-07
1.63441e-08
-6.31721e-07
7.40881e-09
-6.31333e-07
-1.66406e-09
-6.28981e-07
-1.08246e-08
-6.2466e-07
-2.002e-08
-6.18376e-07
-2.91942e-08
-6.10147e-07
-3.82886e-08
-6.00004e-07
-4.72419e-08
-5.87992e-07
-5.59908e-08
-5.74168e-07
-6.44705e-08
-5.58603e-07
-7.26148e-08
-5.41382e-07
-8.0357e-08
-5.22603e-07
-8.76306e-08
-5.02378e-07
-9.43698e-08
-4.80832e-07
-1.0051e-07
-4.58101e-07
-1.0599e-07
-4.34334e-07
-1.10751e-07
-4.09693e-07
-1.14738e-07
-3.84347e-07
-1.179e-07
-3.58474e-07
-1.20195e-07
-3.32262e-07
-1.21584e-07
-3.05902e-07
-1.22037e-07
-2.79591e-07
-1.21533e-07
-2.53526e-07
-1.20059e-07
-2.27908e-07
-1.17612e-07
-2.02931e-07
-1.14201e-07
-1.78788e-07
-1.09845e-07
-1.55664e-07
-1.04577e-07
-1.33734e-07
-9.84434e-08
-1.1316e-07
-9.15053e-08
-9.40873e-08
-8.38409e-08
-7.66446e-08
-7.55465e-08
-6.09367e-08
-6.67396e-08
-4.7043e-08
-5.75612e-08
-3.50141e-08
-4.81802e-08
-2.48688e-08
-3.87978e-08
-1.65906e-08
-2.96537e-08
-1.01261e-08
-2.1033e-08
-5.38335e-09
-1.32759e-08
-2.23162e-09
-6.78566e-09
-5.03501e-10
-2.03981e-09
3.60005e-10
-1.09125e-09
2.15249e-09
-4.34954e-09
9.23786e-09
-9.76934e-09
1.82306e-08
-1.73381e-08
2.84571e-08
-2.70267e-08
3.93963e-08
-3.87861e-08
5.06257e-08
-5.25457e-08
6.1808e-08
-6.82141e-08
7.26792e-08
-8.56813e-08
8.30368e-08
-1.04821e-07
9.27283e-08
-1.25494e-07
1.01642e-07
-1.4755e-07
1.097e-07
-1.70831e-07
1.16851e-07
-1.95174e-07
1.23064e-07
-2.20413e-07
1.28324e-07
-2.46378e-07
1.32629e-07
-2.72902e-07
1.35988e-07
-2.99819e-07
1.38415e-07
-3.26963e-07
1.39929e-07
-3.54174e-07
1.40555e-07
-3.81292e-07
1.40316e-07
-4.08162e-07
1.3924e-07
-4.34636e-07
1.37354e-07
-4.60568e-07
1.34685e-07
-4.85815e-07
1.31261e-07
-5.10241e-07
1.27108e-07
-5.33715e-07
1.22253e-07
-5.5611e-07
1.16725e-07
-5.77304e-07
1.1055e-07
-5.97181e-07
1.03757e-07
-6.15631e-07
9.63737e-08
-6.32548e-07
8.84316e-08
-6.47835e-07
7.99624e-08
-6.61399e-07
7.10004e-08
-6.73156e-07
6.15823e-08
-6.83029e-07
5.17476e-08
-6.90949e-07
4.1539e-08
-6.96856e-07
3.10026e-08
-7.00701e-07
2.01882e-08
-7.02441e-07
9.14939e-09
-7.02049e-07
-2.05656e-09
-6.99505e-07
-1.33684e-08
-6.94804e-07
-2.4721e-08
-6.87952e-07
-3.6046e-08
-6.78969e-07
-4.72713e-08
-6.67889e-07
-5.83221e-08
-6.54759e-07
-6.91209e-08
-6.39641e-07
-7.95886e-08
-6.22612e-07
-8.96442e-08
-6.03762e-07
-9.92065e-08
-5.83199e-07
-1.08194e-07
-5.61041e-07
-1.16527e-07
-5.37424e-07
-1.24127e-07
-5.12496e-07
-1.30919e-07
-4.86417e-07
-1.3683e-07
-4.5936e-07
-1.41795e-07
-4.31508e-07
-1.45752e-07
-4.03055e-07
-1.48648e-07
-3.74201e-07
-1.50438e-07
-3.45154e-07
-1.51084e-07
-3.16126e-07
-1.50561e-07
-2.87332e-07
-1.48854e-07
-2.58985e-07
-1.45959e-07
-2.31298e-07
-1.41888e-07
-2.0448e-07
-1.36664e-07
-1.7873e-07
-1.30327e-07
-1.54238e-07
-1.22935e-07
-1.31182e-07
-1.14561e-07
-1.09722e-07
-1.05301e-07
-8.9999e-08
-9.52696e-08
-7.21316e-08
-8.4607e-08
-5.62129e-08
-7.34799e-08
-4.23075e-08
-6.20856e-08
-3.04491e-08
-5.06562e-08
-2.06385e-08
-3.94643e-08
-1.28423e-08
-2.88291e-08
-6.99339e-09
-1.91248e-08
-2.99193e-09
-1.07871e-08
-7.10043e-10
-4.32168e-09
-3.50032e-10
-1.32314e-09
3.47562e-09
-5.20589e-09
1.31206e-08
-1.15795e-08
2.46042e-08
-2.03774e-08
3.72549e-08
-3.15254e-08
5.05443e-08
-4.49371e-08
6.40374e-08
-6.05111e-08
7.73819e-08
-7.81308e-08
9.02989e-08
-9.76651e-08
1.02571e-07
-1.1897e-07
1.14033e-07
-1.41891e-07
1.24563e-07
-1.66263e-07
1.34073e-07
-1.91917e-07
1.42505e-07
-2.18677e-07
1.49824e-07
-2.46366e-07
1.56013e-07
-2.74805e-07
1.61068e-07
-3.03815e-07
1.64998e-07
-3.33218e-07
1.67818e-07
-3.6284e-07
1.69551e-07
-3.92508e-07
1.70223e-07
-4.22055e-07
1.69862e-07
-4.51314e-07
1.685e-07
-4.80126e-07
1.66166e-07
-5.08335e-07
1.62894e-07
-5.3579e-07
1.58716e-07
-5.62345e-07
1.53663e-07
-5.87858e-07
1.47767e-07
-6.12195e-07
1.41062e-07
-6.35224e-07
1.33579e-07
-6.56821e-07
1.25354e-07
-6.76867e-07
1.1642e-07
-6.9525e-07
1.06814e-07
-7.11864e-07
9.65764e-08
-7.2661e-07
8.5747e-08
-7.39398e-07
7.43705e-08
-7.50146e-07
6.24949e-08
-7.58778e-07
5.01715e-08
-7.65231e-07
3.74559e-08
-7.69451e-07
2.4408e-08
-7.71394e-07
1.10922e-08
-7.71028e-07
-2.42273e-09
-7.68333e-07
-1.60633e-08
-7.63302e-07
-2.97518e-08
-7.55942e-07
-4.34059e-08
-7.46274e-07
-5.69399e-08
-7.34332e-07
-7.02641e-08
-7.20166e-07
-8.32863e-08
-7.03843e-07
-9.59116e-08
-6.85444e-07
-1.08044e-07
-6.65065e-07
-1.19586e-07
-6.42818e-07
-1.30441e-07
-6.18833e-07
-1.40513e-07
-5.93251e-07
-1.49709e-07
-5.6623e-07
-1.5794e-07
-5.37941e-07
-1.65119e-07
-5.08569e-07
-1.71167e-07
-4.78308e-07
-1.76012e-07
-4.47366e-07
-1.7959e-07
-4.15956e-07
-1.81847e-07
-3.843e-07
-1.8274e-07
-3.52626e-07
-1.82236e-07
-3.21161e-07
-1.80318e-07
-2.90138e-07
-1.76983e-07
-2.59782e-07
-1.72243e-07
-2.30319e-07
-1.66127e-07
-2.01963e-07
-1.58683e-07
-1.74921e-07
-1.49977e-07
-1.49384e-07
-1.40099e-07
-1.25527e-07
-1.29157e-07
-1.03508e-07
-1.17289e-07
-8.34585e-08
-1.04656e-07
-6.54885e-08
-9.14499e-08
-4.96783e-08
-7.78958e-08
-3.60793e-08
-6.42553e-08
-2.47118e-08
-5.08318e-08
-1.55651e-08
-3.79758e-08
-8.59842e-09
-2.60915e-08
-3.7438e-09
-1.56417e-08
-9.11562e-10
-7.15391e-09
-1.26159e-09
-1.54687e-09
5.0225e-09
-6.039e-09
1.76127e-08
-1.33503e-08
3.19154e-08
-2.33629e-08
4.72676e-08
-3.59585e-08
6.31399e-08
-5.10127e-08
7.90916e-08
-6.83923e-08
9.47615e-08
-8.79537e-08
1.0986e-07
-1.09543e-07
1.24161e-07
-1.32997e-07
1.37487e-07
-1.58145e-07
1.4971e-07
-1.84807e-07
1.60735e-07
-2.128e-07
1.70498e-07
-2.41937e-07
1.78961e-07
-2.7203e-07
1.86105e-07
-3.02889e-07
1.91926e-07
-3.34324e-07
1.96433e-07
-3.66149e-07
1.99643e-07
-3.9818e-07
2.01581e-07
-4.30233e-07
2.02277e-07
-4.62132e-07
2.01761e-07
-4.93703e-07
2.0007e-07
-5.24775e-07
1.97239e-07
-5.55185e-07
1.93304e-07
-5.84772e-07
1.88303e-07
-6.13382e-07
1.82273e-07
-6.40866e-07
1.7525e-07
-6.67078e-07
1.67274e-07
-6.91881e-07
1.58383e-07
-7.15143e-07
1.48615e-07
-7.36737e-07
1.38014e-07
-7.56544e-07
1.26622e-07
-7.74452e-07
1.14484e-07
-7.90356e-07
1.01651e-07
-8.04158e-07
8.81732e-08
-8.15772e-07
7.41085e-08
-8.25118e-07
5.95173e-08
-8.32127e-07
4.44651e-08
-8.36741e-07
2.90224e-08
-8.38914e-07
1.3265e-08
-8.38611e-07
-2.72618e-09
-8.35809e-07
-1.88649e-08
-8.30501e-07
-3.50597e-08
-8.22693e-07
-5.12142e-08
-8.12405e-07
-6.72278e-08
-7.99674e-07
-8.29955e-08
-7.84551e-07
-9.8409e-08
-7.67105e-07
-1.13357e-07
-7.47421e-07
-1.27728e-07
-7.256e-07
-1.41407e-07
-7.0176e-07
-1.54281e-07
-6.76036e-07
-1.66237e-07
-6.48577e-07
-1.77168e-07
-6.1955e-07
-1.86966e-07
-5.89136e-07
-1.95533e-07
-5.57528e-07
-2.02775e-07
-5.24934e-07
-2.08606e-07
-4.91571e-07
-2.12953e-07
-4.57668e-07
-2.15751e-07
-4.23458e-07
-2.16949e-07
-3.89184e-07
-2.1651e-07
-3.55089e-07
-2.14414e-07
-3.21418e-07
-2.10654e-07
-2.88415e-07
-2.05246e-07
-2.56318e-07
-1.98223e-07
-2.25361e-07
-1.8964e-07
-1.95763e-07
-1.79575e-07
-1.67733e-07
-1.68128e-07
-1.41463e-07
-1.55427e-07
-1.17126e-07
-1.41627e-07
-9.48703e-08
-1.26911e-07
-7.48234e-08
-1.11497e-07
-5.70839e-08
-9.56353e-08
-4.17226e-08
-7.96165e-08
-2.87815e-08
-6.37729e-08
-1.82739e-08
-4.84834e-08
-1.01864e-08
-3.41791e-08
-4.48209e-09
-2.1346e-08
-1.10711e-09
-1.05289e-08
-2.3687e-09
-1.76254e-09
6.78504e-09
-6.8475e-09
2.26977e-08
-1.50766e-08
4.01445e-08
-2.62841e-08
5.84751e-08
-4.03088e-08
7.71646e-08
-5.69887e-08
9.57715e-08
-7.61582e-08
1.13931e-07
-9.76459e-08
1.31348e-07
-1.21274e-07
1.47789e-07
-1.46859e-07
1.63073e-07
-1.74212e-07
1.77063e-07
-2.03138e-07
1.89661e-07
-2.33441e-07
2.00801e-07
-2.6492e-07
2.10441e-07
-2.97377e-07
2.18562e-07
-3.30611e-07
2.2516e-07
-3.64424e-07
2.30246e-07
-3.98618e-07
2.33838e-07
-4.33e-07
2.35964e-07
-4.6738e-07
2.36656e-07
-5.01571e-07
2.35952e-07
-5.35391e-07
2.3389e-07
-5.68661e-07
2.3051e-07
-6.01211e-07
2.25853e-07
-6.32871e-07
2.19963e-07
-6.63479e-07
2.12881e-07
-6.92878e-07
2.04649e-07
-7.20916e-07
1.95312e-07
-7.47448e-07
1.84915e-07
-7.72335e-07
1.73502e-07
-7.95444e-07
1.61123e-07
-8.16649e-07
1.47826e-07
-8.3583e-07
1.33666e-07
-8.52879e-07
1.18699e-07
-8.67691e-07
1.02986e-07
-8.80174e-07
8.65917e-08
-8.90244e-07
6.95877e-08
-8.97829e-07
5.20494e-08
-9.02865e-07
3.40584e-08
-9.05302e-07
1.57024e-08
-9.05103e-07
-2.92496e-09
-9.02244e-07
-2.17241e-08
-8.96714e-07
-4.05894e-08
-8.88519e-07
-5.94098e-08
-8.77678e-07
-7.80688e-08
-8.64228e-07
-9.64456e-08
-8.48222e-07
-1.14415e-07
-8.2973e-07
-1.31849e-07
-8.08839e-07
-1.48618e-07
-7.85655e-07
-1.6459e-07
-7.60301e-07
-1.79635e-07
-7.32915e-07
-1.93623e-07
-7.03656e-07
-2.06427e-07
-6.72695e-07
-2.17927e-07
-6.40223e-07
-2.28005e-07
-6.06442e-07
-2.36555e-07
-5.71571e-07
-2.43477e-07
-5.35839e-07
-2.48686e-07
-4.99484e-07
-2.52105e-07
-4.62756e-07
-2.53677e-07
-4.2591e-07
-2.53357e-07
-3.89203e-07
-2.5112e-07
-3.52896e-07
-2.46961e-07
-3.17249e-07
-2.40893e-07
-2.82516e-07
-2.32956e-07
-2.48945e-07
-2.23211e-07
-2.16775e-07
-2.11745e-07
-1.86231e-07
-1.98672e-07
-1.57522e-07
-1.84136e-07
-1.30839e-07
-1.68311e-07
-1.06349e-07
-1.51401e-07
-8.41986e-08
-1.33648e-07
-6.45059e-08
-1.15328e-07
-4.73632e-08
-9.67592e-08
-3.28354e-08
-7.83006e-08
-2.09608e-08
-6.0358e-08
-1.17531e-08
-4.33868e-08
-5.20555e-09
-2.78935e-08
-1.29675e-09
-1.44377e-08
-3.66546e-09
-1.97061e-09
8.75563e-09
-7.63159e-09
2.83586e-08
-1.67571e-08
4.927e-08
-2.91366e-08
7.08547e-08
-4.45679e-08
9.25958e-08
-6.28522e-08
1.14056e-07
-8.37914e-08
1.3487e-07
-1.07186e-07
1.54743e-07
-1.32834e-07
1.73437e-07
-1.60529e-07
1.90768e-07
-1.90065e-07
2.06598e-07
-2.21231e-07
2.20827e-07
-2.53816e-07
2.33386e-07
-2.87607e-07
2.44233e-07
-3.22394e-07
2.53349e-07
-3.57966e-07
2.60732e-07
-3.94115e-07
2.66394e-07
-4.30634e-07
2.70357e-07
-4.67323e-07
2.72652e-07
-5.03981e-07
2.73315e-07
-5.40415e-07
2.72386e-07
-5.76435e-07
2.6991e-07
-6.11855e-07
2.6593e-07
-6.46496e-07
2.60494e-07
-6.80183e-07
2.53649e-07
-7.12745e-07
2.45443e-07
-7.44019e-07
2.35924e-07
-7.73848e-07
2.25141e-07
-8.02078e-07
2.13145e-07
-8.28564e-07
1.99988e-07
-8.53166e-07
1.85725e-07
-8.75754e-07
1.70414e-07
-8.96202e-07
1.54114e-07
-9.14394e-07
1.36891e-07
-9.30222e-07
1.18814e-07
-9.43589e-07
9.99579e-08
-9.54404e-07
8.04032e-08
-9.62591e-07
6.02364e-08
-9.68083e-07
3.95506e-08
-9.70827e-07
1.84457e-08
-9.7078e-07
-2.97156e-09
-9.67916e-07
-2.45878e-08
-9.62223e-07
-4.62826e-08
-9.53703e-07
-6.79296e-08
-9.42376e-07
-8.93962e-08
-9.28277e-07
-1.10545e-07
-9.11459e-07
-1.31233e-07
-8.91994e-07
-1.51314e-07
-8.69971e-07
-1.70641e-07
-8.45497e-07
-1.89064e-07
-8.18698e-07
-2.06434e-07
-7.8972e-07
-2.22602e-07
-7.58724e-07
-2.37424e-07
-7.25889e-07
-2.50761e-07
-6.91414e-07
-2.62481e-07
-6.5551e-07
-2.72459e-07
-6.18404e-07
-2.80584e-07
-5.80336e-07
-2.86753e-07
-5.41558e-07
-2.90883e-07
-5.02331e-07
-2.92904e-07
-4.62924e-07
-2.92765e-07
-4.23609e-07
-2.90435e-07
-3.84662e-07
-2.85908e-07
-3.46358e-07
-2.79197e-07
-3.0897e-07
-2.70344e-07
-2.72763e-07
-2.59418e-07
-2.37993e-07
-2.46515e-07
-2.04903e-07
-2.31762e-07
-1.73721e-07
-2.15318e-07
-1.44658e-07
-1.97374e-07
-1.17901e-07
-1.78158e-07
-9.36164e-08
-1.57932e-07
-7.19449e-08
-1.36999e-07
-5.30012e-08
-1.15703e-07
-3.68739e-08
-9.44279e-08
-2.36266e-08
-7.36053e-08
-1.33e-08
-5.37134e-08
-5.91551e-09
-3.5278e-08
-1.4812e-09
-1.8872e-08
-5.14666e-09
-2.17168e-09
1.09273e-08
-8.39245e-09
3.45794e-08
-1.83928e-08
5.92704e-08
-3.19203e-08
8.43822e-08
-4.87336e-08
1.09409e-07
-6.85981e-08
1.3392e-07
-9.12839e-08
1.57556e-07
-1.16563e-07
1.80022e-07
-1.44208e-07
2.01082e-07
-1.73992e-07
2.20552e-07
-2.05688e-07
2.38295e-07
-2.3907e-07
2.54209e-07
-2.73911e-07
2.68227e-07
-3.09987e-07
2.80309e-07
-3.47075e-07
2.90436e-07
-3.84953e-07
2.9861e-07
-4.23403e-07
3.04845e-07
-4.62213e-07
3.09166e-07
-5.0117e-07
3.11609e-07
-5.40068e-07
3.12213e-07
-5.78706e-07
3.11024e-07
-6.16888e-07
3.08091e-07
-6.54419e-07
3.03462e-07
-6.91115e-07
2.9719e-07
-7.26794e-07
2.89328e-07
-7.61279e-07
2.79928e-07
-7.944e-07
2.69045e-07
-8.25994e-07
2.56735e-07
-8.55902e-07
2.43053e-07
-8.83972e-07
2.28058e-07
-9.1006e-07
2.11813e-07
-9.34028e-07
1.94381e-07
-9.55745e-07
1.75831e-07
-9.7509e-07
1.56236e-07
-9.91951e-07
1.35674e-07
-1.00622e-06
1.1423e-07
-1.01781e-06
9.19931e-08
-1.02664e-06
6.90619e-08
-1.03263e-06
4.55409e-08
-1.03573e-06
2.15426e-08
-1.03588e-06
-2.81302e-09
-1.03307e-06
-2.73981e-08
-1.02728e-06
-5.20774e-08
-1.0185e-06
-7.67084e-08
-1.00675e-06
-1.01142e-07
-9.92076e-07
-1.25223e-07
-9.74518e-07
-1.48791e-07
-9.54151e-07
-1.71682e-07
-9.31064e-07
-1.93728e-07
-9.05368e-07
-2.1476e-07
-8.77191e-07
-2.34611e-07
-8.46681e-07
-2.53112e-07
-8.14005e-07
-2.701e-07
-7.79348e-07
-2.85418e-07
-7.42914e-07
-2.98914e-07
-7.04924e-07
-3.1045e-07
-6.65613e-07
-3.19894e-07
-6.25233e-07
-3.27134e-07
-5.84045e-07
-3.32071e-07
-5.42325e-07
-3.34624e-07
-5.00354e-07
-3.34736e-07
-4.5842e-07
-3.32369e-07
-4.16816e-07
-3.27512e-07
-3.75832e-07
-3.20181e-07
-3.35758e-07
-3.10418e-07
-2.96879e-07
-2.98298e-07
-2.59469e-07
-2.83925e-07
-2.23792e-07
-2.6744e-07
-1.90095e-07
-2.49014e-07
-1.58611e-07
-2.28859e-07
-1.29548e-07
-2.0722e-07
-1.03095e-07
-1.84385e-07
-7.94158e-08
-1.60679e-07
-5.86485e-08
-1.3647e-07
-4.09065e-08
-1.1217e-07
-2.62788e-08
-8.8233e-08
-1.48323e-08
-6.51599e-08
-6.61503e-09
-4.34952e-08
-1.66157e-09
-2.38255e-08
-6.80823e-09
-2.36644e-09
1.32938e-08
-9.13175e-09
4.13447e-08
-1.99861e-08
7.01247e-08
-3.46375e-08
9.90336e-08
-5.28074e-08
1.27579e-07
-7.42268e-08
1.5534e-07
-9.86342e-08
1.81963e-07
-1.25774e-07
2.07161e-07
-1.55392e-07
2.307e-07
-1.87242e-07
2.52402e-07
-2.21076e-07
2.72128e-07
-2.5665e-07
2.89783e-07
-2.93723e-07
3.053e-07
-3.32058e-07
3.18643e-07
-3.71419e-07
3.29797e-07
-4.11575e-07
3.38766e-07
-4.52299e-07
3.45569e-07
-4.93368e-07
3.50235e-07
-5.34563e-07
3.52804e-07
-5.75671e-07
3.53321e-07
-6.16482e-07
3.51836e-07
-6.56794e-07
3.48403e-07
-6.96409e-07
3.43076e-07
-7.35132e-07
3.35914e-07
-7.72778e-07
3.26973e-07
-8.09164e-07
3.16314e-07
-8.44114e-07
3.03996e-07
-8.77459e-07
2.9008e-07
-9.09035e-07
2.74629e-07
-9.38685e-07
2.57708e-07
-9.66259e-07
2.39387e-07
-9.91613e-07
2.19735e-07
-1.01461e-06
1.98831e-07
-1.03513e-06
1.76754e-07
-1.05305e-06
1.53592e-07
-1.06826e-06
1.29438e-07
-1.08066e-06
1.04395e-07
-1.09016e-06
7.85688e-08
-1.0967e-06
5.20778e-08
-1.1002e-06
2.50466e-08
-1.10063e-06
-2.39091e-09
-1.09793e-06
-3.00926e-08
-1.0921e-06
-5.79077e-08
-1.08313e-06
-8.56774e-08
-1.07104e-06
-1.13235e-07
-1.05585e-06
-1.40409e-07
-1.03763e-06
-1.67018e-07
-1.01643e-06
-1.92881e-07