/*--------------------------------*- C++ -*----------------------------------*\
  =========                 |
  \\      /  F ield         | OpenFOAM: The Open Source CFD Toolbox
   \\    /   O peration     | Website:  https://openfoam.org
    \\  /    A nd           | Version:  7
     \\/     M anipulation  |
\*---------------------------------------------------------------------------*/
FoamFile
{
    version     2.0;
    format      ascii;
    class       surfaceScalarField;
    location    "2.125";
    object      phi;
}
// * * * * * * * * * * * * * * * * * * * * * * * * * * * * * * * * * * * * * //

dimensions      [0 3 -1 0 0 0 0];

internalField   nonuniform List<scalar> 
12640
(
3.90829e-10
-3.89198e-10
1.46981e-09
-1.07903e-09
2.77995e-09
-1.31017e-09
3.97698e-09
-1.19702e-09
4.86837e-09
-8.91363e-10
5.35873e-09
-4.9039e-10
5.41128e-09
-5.25265e-11
5.02217e-09
3.89127e-10
4.20384e-09
8.18301e-10
2.97441e-09
1.2294e-09
1.35139e-09
1.62304e-09
-6.51637e-10
2.00307e-09
-3.0263e-09
2.37466e-09
-5.76936e-09
2.74305e-09
-8.88203e-09
3.11267e-09
-1.23687e-08
3.48665e-09
-1.62353e-08
3.86662e-09
-2.04879e-08
4.25259e-09
-2.51309e-08
4.643e-09
-3.01656e-08
5.03476e-09
-3.55889e-08
5.42334e-09
-4.13918e-08
5.80291e-09
-4.75582e-08
6.16641e-09
-5.4064e-08
6.50574e-09
-6.08759e-08
6.81188e-09
-6.79509e-08
7.07508e-09
-7.52359e-08
7.28501e-09
-8.26669e-08
7.431e-09
-9.01692e-08
7.50232e-09
-9.76577e-08
7.48845e-09
-1.05037e-07
7.37947e-09
-1.12204e-07
7.16637e-09
-1.19045e-07
6.84143e-09
-1.25444e-07
6.39867e-09
-1.31278e-07
5.83422e-09
-1.36425e-07
5.14671e-09
-1.40762e-07
4.33759e-09
-1.44174e-07
3.41149e-09
-1.4655e-07
2.37631e-09
-1.47793e-07
1.24309e-09
-1.47827e-07
3.40715e-11
-1.46577e-07
-1.25039e-09
-1.44007e-07
-2.56926e-09
-1.40101e-07
-3.90627e-09
-1.34868e-07
-5.23338e-09
-1.28346e-07
-6.52154e-09
-1.20605e-07
-7.74093e-09
-1.11744e-07
-8.86175e-09
-1.01888e-07
-9.85527e-09
-9.11934e-08
-1.06949e-08
-7.98361e-08
-1.13573e-08
-6.80127e-08
-1.18234e-08
-5.59334e-08
-1.20793e-08
-4.38162e-08
-1.21173e-08
-3.18803e-08
-1.19359e-08
-2.03397e-08
-1.15406e-08
-9.39635e-09
-1.09434e-08
7.6641e-10
-1.01628e-08
9.98992e-09
-9.22351e-09
1.81416e-08
-8.15173e-09
2.51223e-08
-6.98067e-09
3.08654e-08
-5.74308e-09
3.5338e-08
-4.47258e-09
3.85394e-08
-3.20142e-09
4.04988e-08
-1.95943e-09
4.12718e-08
-7.72961e-10
4.0936e-08
3.35812e-10
3.95869e-08
1.34905e-09
3.73339e-08
2.25303e-09
3.42968e-08
3.03708e-09
3.06047e-08
3.69205e-09
2.63968e-08
4.20791e-09
2.18262e-08
4.57061e-09
1.70683e-08
4.75792e-09
1.23336e-08
4.7347e-09
7.88457e-09
4.44903e-09
4.0516e-09
3.83297e-09
1.24142e-09
2.81018e-09
-1.09973e-10
1.35139e-09
-1.09983e-10
1.09367e-09
-1.4829e-09
3.19786e-09
-3.1833e-09
5.50165e-09
-3.61396e-09
7.4237e-09
-3.119e-09
8.57737e-09
-2.04507e-09
8.73544e-09
-6.48465e-10
7.78426e-09
8.98695e-10
5.68248e-09
2.49091e-09
2.43054e-09
4.07024e-09
-1.95152e-09
5.61147e-09
-7.43854e-09
7.11004e-09
-1.40085e-08
8.57304e-09
-2.16467e-08
1.00128e-08
-3.03464e-08
1.14428e-08
-4.01077e-08
1.2874e-08
-5.0935e-08
1.43139e-08
-6.28332e-08
1.57648e-08
-7.58043e-08
1.72237e-08
-8.98434e-08
1.86821e-08
-1.04935e-07
2.01262e-08
-1.21049e-07
2.15374e-08
-1.38138e-07
2.28922e-08
-1.56135e-07
2.41636e-08
-1.7495e-07
2.53206e-08
-1.94468e-07
2.63299e-08
-2.14549e-07
2.71558e-08
-2.35026e-07
2.77615e-08
-2.55705e-07
2.811e-08
-2.76367e-07
2.81647e-08
-2.9677e-07
2.78911e-08
-3.16648e-07
2.72579e-08
-3.35719e-07
2.62377e-08
-3.53687e-07
2.48092e-08
-3.70246e-07
2.29576e-08
-3.85088e-07
2.06763e-08
-3.97909e-07
1.7968e-08
-4.08417e-07
1.48452e-08
-4.16337e-07
1.13313e-08
-4.21422e-07
7.46098e-09
-4.23459e-07
3.28033e-09
-4.22274e-07
-1.15089e-09
-4.1775e-07
-5.77452e-09
-4.09816e-07
-1.05033e-08
-3.98467e-07
-1.52552e-08
-3.83762e-07
-1.99384e-08
-3.65826e-07
-2.44569e-08
-3.44855e-07
-2.87127e-08
-3.21107e-07
-3.26093e-08
-2.94908e-07
-3.60542e-08
-2.6664e-07
-3.89626e-08
-2.36738e-07
-4.12602e-08
-2.05674e-07
-4.28866e-08
-1.73956e-07
-4.37977e-08
-1.42105e-07
-4.39684e-08
-1.10647e-07
-4.33935e-08
-8.00984e-08
-4.20894e-08
-5.09486e-08
-4.00932e-08
-2.36495e-08
-3.74619e-08
1.39795e-09
-3.42709e-08
2.38568e-08
-3.06105e-08
4.34565e-08
-2.65804e-08
6.00037e-08
-2.22903e-08
7.33823e-08
-1.78511e-08
8.35529e-08
-1.3372e-08
9.05495e-08
-8.95609e-09
9.4474e-08
-4.69746e-09
9.54884e-08
-6.78578e-10
9.38069e-08
3.03055e-09
8.96879e-08
6.372e-09
8.34282e-08
9.29687e-09
7.5359e-08
1.17612e-08
6.58477e-08
1.37192e-08
5.53032e-08
1.51151e-08
4.41877e-08
1.58734e-08
3.30326e-08
1.58898e-08
2.24532e-08
1.50285e-08
1.31513e-08
1.31348e-08
5.88526e-09
1.00763e-08
1.36238e-09
5.87426e-09
1.25239e-09
1.33828e-09
-2.82121e-09
3.63277e-09
-5.47778e-09
5.85745e-09
-5.8386e-09
7.32118e-09
-4.58276e-09
7.55607e-09
-2.27995e-09
6.27142e-09
6.36213e-10
3.30721e-09
3.86287e-09
-1.40862e-09
7.20673e-09
-7.8947e-09
1.05564e-08
-1.61418e-08
1.38587e-08
-2.61304e-08
1.70987e-08
-3.78412e-08
2.02837e-08
-5.12602e-08
2.34318e-08
-6.63801e-08
2.65627e-08
-8.31986e-08
2.96925e-08
-1.01714e-07
3.28298e-08
-1.21923e-07
3.59732e-08
-1.4381e-07
3.91109e-08
-1.67348e-07
4.222e-08
-1.92489e-07
4.52669e-08
-2.19159e-07
4.82082e-08
-2.47259e-07
5.09916e-08
-2.76652e-07
5.35572e-08
-3.0717e-07
5.58386e-08
-3.38605e-07
5.77647e-08
-3.70711e-07
5.92614e-08
-4.03203e-07
6.02535e-08
-4.35759e-07
6.06666e-08
-4.68024e-07
6.04298e-08
-4.99611e-07
5.94776e-08
-5.30106e-07
5.77528e-08
-5.59077e-07
5.52085e-08
-5.86079e-07
5.18111e-08
-6.10663e-07
4.75417e-08
-6.32385e-07
4.23991e-08
-6.50818e-07
3.64005e-08
-6.65556e-07
2.95837e-08
-6.76232e-07
2.20073e-08
-6.82523e-07
1.37513e-08
-6.8416e-07
4.91751e-09
-6.80936e-07
-4.37474e-09
-6.72723e-07
-1.39873e-08
-6.59467e-07
-2.37599e-08
-6.41198e-07
-3.35239e-08
-6.18037e-07
-4.30993e-08
-5.90194e-07
-5.23e-08
-5.57969e-07
-6.09381e-08
-5.21748e-07
-6.88296e-08
-4.82003e-07
-7.57995e-08
-4.39278e-07
-8.16875e-08
-3.94185e-07
-8.63536e-08
-3.47388e-07
-8.96835e-08
-2.99592e-07
-9.15935e-08
-2.51526e-07
-9.20341e-08
-2.03926e-07
-9.09937e-08
-1.57516e-07
-8.84996e-08
-1.12991e-07
-8.46183e-08
-7.09983e-08
-7.94544e-08
-3.21225e-08
-7.31468e-08
3.13086e-09
-6.58639e-08
3.43484e-08
-5.77979e-08
6.12131e-08
-4.9155e-08
8.35155e-08
-4.01536e-08
1.01152e-07
-3.10082e-08
1.14123e-07
-2.1927e-08
1.22529e-07
-1.31037e-08
1.26563e-07
-4.71313e-09
1.26503e-07
3.09135e-09
1.22697e-07
1.01781e-08
1.15562e-07
1.64312e-08
1.05578e-07
2.17455e-08
9.32821e-08
2.60152e-08
7.92769e-08
2.91203e-08
6.42368e-08
3.09134e-08
4.89185e-08
3.12082e-08
3.41674e-08
2.97795e-08
2.0914e-08
2.63882e-08
1.01445e-08
2.08457e-08
2.84556e-09
1.31732e-08
4.09795e-09
1.20518e-09
-4.02639e-09
3.01112e-09
-7.28365e-09
4.30799e-09
-7.13552e-09
4.36947e-09
-4.64423e-09
2.71123e-09
-6.21643e-10
-9.70782e-10
4.31823e-09
-6.85086e-09
9.74291e-09
-1.50153e-08
1.53711e-08
-2.54964e-08
2.10374e-08
-3.8297e-08
2.66593e-08
-5.34079e-08
3.22095e-08
-7.08173e-08
3.76932e-08
-9.05161e-08
4.31306e-08
-1.12498e-07
4.85444e-08
-1.36756e-07
5.39507e-08
-1.63279e-07
5.93532e-08
-1.92046e-07
6.47402e-08
-2.23018e-07
7.00825e-08
-2.56131e-07
7.53334e-08
-2.91294e-07
8.04294e-08
-3.28377e-07
8.52914e-08
-3.67212e-07
8.98267e-08
-4.07586e-07
9.39311e-08
-4.49239e-07
9.74915e-08
-4.91863e-07
1.00389e-07
-5.35103e-07
1.02501e-07
-5.78558e-07
1.03708e-07
-6.21783e-07
1.03891e-07
-6.64296e-07
1.02943e-07
-7.05584e-07
1.00766e-07
-7.4511e-07
9.72788e-08
-7.82322e-07
9.24204e-08
-8.16663e-07
8.61519e-08
-8.47582e-07
7.84606e-08
-8.74545e-07
6.93622e-08
-8.97047e-07
5.89027e-08
-9.14623e-07
4.71598e-08
-9.26859e-07
3.42433e-08
-9.33403e-07
2.02952e-08
-9.33975e-07
5.48918e-09
-9.2837e-07
-9.98012e-09
-9.16476e-07
-2.58808e-08
-8.98274e-07
-4.19622e-08
-8.7384e-07
-5.79575e-08
-8.43354e-07
-7.35859e-08
-8.07094e-07
-8.85598e-08
-7.65441e-07
-1.02591e-07
-7.18872e-07
-1.15399e-07
-6.67956e-07
-1.26716e-07
-6.13345e-07
-1.36298e-07
-5.55767e-07
-1.43932e-07
-4.96009e-07
-1.49441e-07
-4.34906e-07
-1.52696e-07
-3.73323e-07
-1.53617e-07
-3.12137e-07
-1.5218e-07
-2.52218e-07
-1.48419e-07
-1.94408e-07
-1.42429e-07
-1.39502e-07
-1.3436e-07
-8.82285e-08
-1.2442e-07
-4.12325e-08
-1.1286e-07
9.41216e-10
-9.99716e-08
3.78623e-08
-8.60761e-08
6.92169e-08
-7.15081e-08
9.48194e-08
-5.66107e-08
1.14611e-07
-4.17186e-08
1.28657e-07
-2.71498e-08
1.37141e-07
-1.31973e-08
1.40359e-07
-1.25915e-10
1.38704e-07
1.18328e-08
1.32667e-07
2.24683e-08
1.22822e-07
3.15901e-08
1.09827e-07
3.901e-08
9.44214e-08
4.45262e-08
7.74285e-08
4.79063e-08
5.97619e-08
4.88748e-08
4.24279e-08
4.71135e-08
2.65264e-08
4.22897e-08
1.32481e-08
3.4124e-08
3.88858e-09
2.25328e-08
7.98653e-09
8.15412e-10
-4.84177e-09
1.58513e-09
-8.05339e-09
1.24543e-09
-6.79581e-09
-8.92091e-10
-2.50669e-09
-5.27664e-09
3.7629e-09
-1.21873e-08
1.12289e-08
-2.17848e-08
1.93404e-08
-3.41524e-08
2.77388e-08
-4.93267e-08
3.62118e-08
-6.73194e-08
4.4652e-08
-8.8131e-08
5.30211e-08
-1.11759e-07
6.13209e-08
-1.38199e-07
6.95707e-08
-1.67445e-07
7.77907e-08
-1.99485e-07
8.59904e-08
-2.34292e-07
9.41608e-08
-2.71822e-07
1.0227e-07
-3.12002e-07
1.10262e-07
-3.54725e-07
1.18056e-07
-3.99842e-07
1.25547e-07
-4.4716e-07
1.32609e-07
-4.96433e-07
1.39099e-07
-5.4736e-07
1.44858e-07
-5.99586e-07
1.49718e-07
-6.52701e-07
1.53504e-07
-7.06242e-07
1.56043e-07
-7.59697e-07
1.57163e-07
-8.1251e-07
1.56704e-07
-8.64089e-07
1.54523e-07
-9.13818e-07
1.50495e-07
-9.61063e-07
1.44523e-07
-1.00518e-06
1.3654e-07
-1.04555e-06
1.26514e-07
-1.08154e-06
1.14451e-07
-1.11257e-06
1.00396e-07
-1.13811e-06
8.4439e-08
-1.15766e-06
6.67099e-08
-1.1708e-06
4.73829e-08
-1.17717e-06
2.66738e-08
-1.17652e-06
4.83899e-09
-1.16866e-06
-1.78444e-08
-1.1535e-06
-4.1042e-08
-1.13105e-06
-6.44065e-08
-1.10144e-06
-8.7568e-08
-1.06489e-06
-1.10141e-07
-1.02171e-06
-1.31734e-07
-9.72352e-07
-1.51954e-07
-9.17331e-07
-1.7042e-07
-8.57278e-07
-1.86769e-07
-7.92907e-07
-2.00668e-07
-7.25013e-07
-2.11826e-07
-6.54458e-07
-2.19997e-07
-5.82156e-07
-2.24998e-07
-5.09061e-07
-2.26712e-07
-4.36148e-07
-2.25093e-07
-3.64391e-07
-2.20176e-07
-2.94744e-07
-2.12076e-07
-2.28119e-07
-2.00985e-07
-1.65367e-07
-1.87172e-07
-1.07255e-07
-1.70972e-07
-5.44474e-08
-1.52779e-07
-7.49457e-09
-1.33029e-07
3.31855e-08
-1.12188e-07
6.73113e-08
-9.07365e-08
9.47445e-08
-6.91519e-08
1.1549e-07
-4.78954e-08
1.29694e-07
-2.74007e-08
1.37633e-07
-8.06548e-09
1.39715e-07
9.75068e-09
1.36461e-07
2.57221e-08
1.28503e-07
3.95486e-08
1.16573e-07
5.09395e-08
1.01504e-07
5.95952e-08
8.42242e-08
6.51864e-08
6.57594e-08
6.73396e-08
4.72386e-08
6.56343e-08
2.99035e-08
5.96248e-08
1.51327e-08
4.88948e-08
4.50286e-09
3.31626e-08
1.24894e-08
2.43874e-10
-5.08569e-09
-4.58186e-10
-7.35129e-09
-3.02318e-09
-4.23076e-09
-8.03504e-09
2.50516e-09
-1.58612e-08
1.1589e-08
-2.67217e-08
2.20894e-08
-4.07395e-08
3.33582e-08
-5.79784e-08
4.49777e-08
-7.84692e-08
5.67026e-08
-1.02226e-07
6.84092e-08
-1.29258e-07
8.00525e-08
-1.59568e-07
9.1631e-08
-1.93157e-07
1.0316e-07
-2.30017e-07
1.14651e-07
-2.70126e-07
1.26099e-07
-3.13438e-07
1.37473e-07
-3.59877e-07
1.4871e-07
-4.09331e-07
1.59716e-07
-4.6164e-07
1.70365e-07
-5.16592e-07
1.80499e-07
-5.73919e-07
1.89936e-07
-6.33293e-07
1.98473e-07
-6.94323e-07
2.05888e-07
-7.56558e-07
2.11953e-07
-8.19487e-07
2.16434e-07
-8.82547e-07
2.19103e-07
-9.45127e-07
2.19742e-07
-1.00658e-06
2.18153e-07
-1.06622e-06
2.14163e-07
-1.12335e-06
2.07629e-07
-1.17728e-06
1.9845e-07
-1.2273e-06
1.86564e-07
-1.27274e-06
1.71959e-07
-1.31297e-06
1.54672e-07
-1.34736e-06
1.34791e-07
-1.37538e-06
1.12459e-07
-1.39654e-06
8.78692e-08
-1.41042e-06
6.12683e-08
-1.4167e-06
3.29512e-08
-1.41513e-06
3.26406e-09
-1.40553e-06
-2.74395e-08
-1.38786e-06
-5.87147e-08
-1.36214e-06
-9.01202e-08
-1.32853e-06
-1.21185e-07
-1.28725e-06
-1.5142e-07
-1.23865e-06
-1.80329e-07
-1.18319e-06
-2.07418e-07
-1.12141e-06
-2.32203e-07
-1.05395e-06
-2.54225e-07
-9.81561e-07
-2.73057e-07
-9.05064e-07
-2.88322e-07
-8.25361e-07
-2.99701e-07
-7.43414e-07
-3.06945e-07
-6.60236e-07
-3.0989e-07
-5.76871e-07
-3.08458e-07
-4.94373e-07
-3.02674e-07
-4.1379e-07
-2.92659e-07
-3.36137e-07
-2.78638e-07
-2.62375e-07
-2.60934e-07
-1.93387e-07
-2.3996e-07
-1.29959e-07
-2.16207e-07
-7.27589e-08
-1.90229e-07
-2.23198e-08
-1.62627e-07
2.09708e-08
-1.34027e-07
5.68802e-08
-1.05061e-07
8.53344e-08
-7.63496e-08
1.06418e-07
-4.84843e-08
1.2037e-07
-2.20177e-08
1.27578e-07
2.54244e-09
1.28569e-07
2.47318e-08
1.23998e-07
4.41198e-08
1.14642e-07
6.02947e-08
1.01395e-07
7.28423e-08
8.5258e-08
8.13237e-08
6.73422e-08
8.52554e-08
4.88757e-08
8.41008e-08
3.12213e-08
7.72792e-08
1.59169e-08
6.41992e-08
4.75722e-09
4.43222e-08
1.72466e-08
-4.66717e-10
-4.61897e-09
-2.9893e-09
-4.8287e-09
-8.26866e-09
1.0486e-09
-1.67251e-08
1.09617e-08
-2.86027e-08
2.34666e-08
-4.40316e-08
3.75183e-08
-6.30755e-08
5.24022e-08
-8.57638e-08
6.76659e-08
-1.12111e-07
8.30499e-08
-1.42129e-07
9.84267e-08
-1.75827e-07
1.13751e-07
-2.13215e-07
1.29019e-07
-2.54294e-07
1.44239e-07
-2.9905e-07
1.59408e-07
-3.47448e-07
1.74496e-07
-3.99416e-07
1.89441e-07
-4.54843e-07
2.04137e-07
-5.13568e-07
2.18441e-07
-5.75373e-07
2.3217e-07
-6.39978e-07
2.45104e-07
-7.07035e-07
2.56994e-07
-7.76133e-07
2.6757e-07
-8.46791e-07
2.76546e-07
-9.18465e-07
2.83627e-07
-9.90555e-07
2.88524e-07
-1.06241e-06
2.90956e-07
-1.13333e-06
2.90666e-07
-1.2026e-06
2.87424e-07
-1.26948e-06
2.81039e-07
-1.33321e-06
2.71362e-07
-1.39306e-06
2.58299e-07
-1.44831e-06
2.41807e-07
-1.49825e-06
2.21906e-07
-1.54225e-06
1.98673e-07
-1.57971e-06
1.7225e-07
-1.61009e-06
1.4284e-07
-1.63293e-06
1.10703e-07
-1.64782e-06
7.61597e-08
-1.65445e-06
3.9584e-08
-1.65261e-06
1.42092e-09
-1.64212e-06
-3.79312e-08
-1.62294e-06
-7.78951e-08
-1.59511e-06
-1.1795e-07
-1.55877e-06
-1.57528e-07
-1.51414e-06
-1.96043e-07
-1.46157e-06
-2.32897e-07
-1.4015e-06
-2.67496e-07
-1.33445e-06
-2.99252e-07
-1.26107e-06
-3.27607e-07
-1.18209e-06
-3.52037e-07
-1.09834e-06
-3.72071e-07
-1.01073e-06
-3.87305e-07
-9.20263e-07
-3.97415e-07
-8.2798e-07
-4.02173e-07
-7.34981e-07
-4.01457e-07
-6.42393e-07
-3.95263e-07
-5.51345e-07
-3.83706e-07
-4.62952e-07
-3.67031e-07
-3.78283e-07
-3.45602e-07
-2.98343e-07
-3.19901e-07
-2.24039e-07
-2.90511e-07
-1.56166e-07
-2.58102e-07
-9.53812e-08
-2.23412e-07
-4.21906e-08
-1.87218e-07
3.06556e-09
-1.50317e-07
4.02195e-08
-1.13503e-07
6.92779e-08
-7.75427e-08
9.04216e-08
-4.31614e-08
1.03999e-07
-1.10354e-08
1.10521e-07
1.82107e-08
1.10644e-07
4.39965e-08
1.05168e-07
6.57702e-08
9.5024e-08
8.29866e-08
8.12655e-08
9.50822e-08
6.5071e-08
1.0145e-07
4.77498e-08
1.01422e-07
3.07645e-08
9.42644e-08
1.57764e-08
7.91874e-08
4.72508e-09
5.53735e-08
2.19717e-08
-1.2865e-09
-3.33244e-09
-5.91799e-09
-1.97258e-10
-1.43181e-08
9.44873e-09
-2.66986e-08
2.33421e-08
-4.31415e-08
3.99095e-08
-6.36606e-08
5.80374e-08
-8.82409e-08
7.69825e-08
-1.16864e-07
9.62886e-08
-1.49518e-07
1.15705e-07
-1.86207e-07
1.35115e-07
-2.26938e-07
1.54482e-07
-2.7172e-07
1.73801e-07
-3.20551e-07
1.93071e-07
-3.7341e-07
2.12266e-07
-4.30238e-07
2.31325e-07
-4.90937e-07
2.5014e-07
-5.55353e-07
2.68553e-07
-6.23272e-07
2.8636e-07
-6.94413e-07
3.0331e-07
-7.68422e-07
3.19113e-07
-8.44877e-07
3.33449e-07
-9.23281e-07
3.45974e-07
-1.00307e-06
3.56335e-07
-1.08362e-06
3.64176e-07
-1.16425e-06
3.69153e-07
-1.24424e-06
3.70944e-07
-1.32283e-06
3.69257e-07
-1.39925e-06
3.63845e-07
-1.47272e-06
3.5451e-07
-1.54247e-06
3.4111e-07
-1.60774e-06
3.2357e-07
-1.66781e-06
3.01877e-07
-1.72199e-06
2.76092e-07
-1.76966e-06
2.46342e-07
-1.81023e-06
2.12824e-07
-1.8432e-06
1.75802e-07
-1.8681e-06
1.35606e-07
-1.88456e-06
9.26241e-08
-1.89228e-06
4.72999e-08
-1.89106e-06
2.03217e-10
-1.88069e-06
-4.83007e-08
-1.86115e-06
-9.74401e-08
-1.83244e-06
-1.46656e-07
-1.79468e-06
-1.95287e-07
-1.74807e-06
-2.42653e-07
-1.69291e-06
-2.88063e-07
-1.62958e-06
-3.30818e-07
-1.5586e-06
-3.70233e-07
-1.48057e-06
-4.05641e-07
-1.39619e-06
-4.36417e-07
-1.30627e-06
-4.61986e-07
-1.21173e-06
-4.81846e-07
-1.11356e-06
-4.95584e-07
-1.01285e-06
-5.0289e-07
-9.10723e-07
-5.0358e-07
-8.08385e-07
-4.976e-07
-7.07046e-07
-4.85046e-07
-6.07917e-07
-4.66159e-07
-5.12185e-07
-4.41335e-07
-4.20977e-07
-4.11109e-07
-3.35338e-07
-3.7615e-07
-2.56199e-07
-3.37242e-07
-1.84354e-07
-2.95256e-07
-1.20442e-07
-2.5113e-07
-6.49235e-08
-2.05836e-07
-1.80769e-08
-1.6035e-07
2.0013e-08
-1.15633e-07
4.94528e-08
-7.26013e-08
7.05379e-08
-3.21205e-08
8.37441e-08
5.00455e-09
8.97173e-08
3.80233e-08
8.92626e-08
6.62248e-08
8.33332e-08
8.89161e-08
7.30224e-08
1.05393e-07
5.95614e-08
1.14911e-07
4.43257e-08
1.16658e-07
2.88562e-08
1.09734e-07
1.48998e-08
9.31438e-08
4.47556e-09
6.57978e-08
2.64473e-08
-2.2004e-09
-1.13204e-09
-9.17574e-09
6.77806e-09
-2.10372e-08
2.13101e-08
-3.77393e-08
4.00443e-08
-5.91723e-08
6.13425e-08
-8.52099e-08
8.4075e-08
-1.15742e-07
1.07514e-07
-1.5069e-07
1.31237e-07
-1.90011e-07
1.55026e-07
-2.33691e-07
1.78795e-07
-2.81731e-07
2.02522e-07
-3.34137e-07
2.26207e-07
-3.909e-07
2.49833e-07
-4.51981e-07
2.73347e-07
-5.17299e-07
2.96643e-07
-5.8672e-07
3.19561e-07
-6.60045e-07
3.41877e-07
-7.37001e-07
3.63317e-07
-8.17243e-07
3.83552e-07
-9.00347e-07
4.02218e-07
-9.85814e-07
4.18915e-07
-1.07307e-06
4.33231e-07
-1.16148e-06
4.44744e-07
-1.25035e-06
4.53044e-07
-1.33894e-06
4.5774e-07
-1.42647e-06
4.58475e-07
-1.51215e-06
4.5494e-07
-1.59518e-06
4.4688e-07
-1.67478e-06
4.34102e-07
-1.75015e-06
4.16485e-07
-1.82056e-06
3.93981e-07
-1.8853e-06
3.66619e-07
-1.94371e-06
3.34502e-07
-1.99518e-06
2.97811e-07
-2.03916e-06
2.568e-07
-2.07515e-06
2.11791e-07
-2.10272e-06
1.63175e-07
-2.1215e-06
1.11406e-07
-2.13119e-06
5.69929e-08
-2.13154e-06
5.50014e-10
-2.12241e-06
-5.74351e-08
-2.10367e-06
-1.16172e-07
-2.07533e-06
-1.75003e-07
-2.03743e-06
-2.33188e-07
-1.99012e-06
-2.89962e-07
-1.93364e-06
-3.4454e-07
-1.86833e-06
-3.96129e-07
-1.79462e-06
-4.43937e-07
-1.71308e-06
-4.87191e-07
-1.62434e-06
-5.25152e-07
-1.52919e-06
-5.57133e-07
-1.42852e-06
-5.82518e-07
-1.32332e-06
-6.00786e-07
-1.21468e-06
-6.1153e-07
-1.10378e-06
-6.14477e-07
-9.91877e-07
-6.09506e-07
-8.80258e-07
-5.96664e-07
-7.70243e-07
-5.76174e-07
-6.63138e-07
-5.4844e-07
-5.60208e-07
-5.14038e-07
-4.62645e-07
-4.73713e-07
-3.71534e-07
-4.28353e-07
-2.87823e-07
-3.78967e-07
-2.12298e-07
-3.26655e-07
-1.45562e-07
-2.72571e-07
-8.80176e-08
-2.17895e-07
-3.98575e-08
-1.63793e-07
-1.06349e-09
-1.11395e-07
2.85926e-08
-6.17765e-08
4.95408e-08
-1.59437e-08
6.24027e-08
2.51613e-08
6.79785e-08
6.0649e-08
6.72347e-08
8.96599e-08
6.12937e-08
1.11334e-07
5.14295e-08
1.24775e-07
3.90705e-08
1.29017e-07
2.58162e-08
1.22988e-07
1.34666e-08
1.05493e-07
4.06938e-09
7.5195e-08
3.05166e-08
-3.19252e-09
2.06048e-09
-1.2714e-08
1.62996e-08
-2.83134e-08
3.69095e-08
-4.96597e-08
6.13905e-08
-7.64225e-08
8.81053e-08
-1.08316e-07
1.15969e-07
-1.45121e-07
1.4432e-07
-1.86691e-07
1.72806e-07
-2.32942e-07
2.01277e-07
-2.8384e-07
2.29692e-07
-3.39375e-07
2.58058e-07
-3.99544e-07
2.86376e-07
-4.64325e-07
3.14614e-07
-5.33659e-07
3.42681e-07
-6.07438e-07
3.70422e-07
-6.85486e-07
3.97608e-07
-7.67554e-07
4.23945e-07
-8.53312e-07
4.49075e-07
-9.42351e-07
4.72591e-07
-1.03418e-06
4.94045e-07
-1.12823e-06
5.12963e-07
-1.22385e-06
5.2886e-07
-1.32037e-06
5.41256e-07
-1.41701e-06
5.49692e-07
-1.51302e-06
5.53742e-07
-1.60757e-06
5.53028e-07
-1.69986e-06
5.47233e-07
-1.78909e-06
5.36108e-07
-1.87447e-06
5.19477e-07
-1.95523e-06
4.97249e-07
-2.03066e-06
4.69411e-07
-2.10008e-06
4.36035e-07
-2.16285e-06
3.97274e-07
-2.21839e-06
3.53357e-07
-2.26619e-06
3.0459e-07
-2.30574e-06
2.5135e-07
-2.33665e-06
1.9408e-07
-2.35853e-06
1.33287e-07
-2.37107e-06
6.95372e-08
-2.37399e-06
3.46742e-09
-2.36713e-06
-6.42958e-08
-2.35032e-06
-1.32982e-07
-2.32349e-06
-2.01834e-07
-2.28663e-06
-2.70044e-07
-2.23983e-06
-3.36768e-07
-2.18324e-06
-4.01134e-07
-2.11711e-06
-4.62253e-07
-2.04182e-06
-5.19231e-07
-1.95783e-06
-5.71181e-07
-1.86573e-06
-6.17246e-07
-1.76625e-06
-6.56613e-07
-1.66023e-06
-6.8854e-07
-1.54864e-06
-7.12377e-07
-1.43258e-06
-7.27596e-07
-1.31324e-06
-7.33813e-07
-1.19193e-06
-7.30813e-07
-1.07003e-06
-7.18568e-07
-9.48947e-07
-6.97255e-07
-8.30126e-07
-6.67262e-07
-7.14976e-07
-6.29188e-07
-6.04852e-07
-5.83837e-07
-5.01013e-07
-5.32193e-07
-4.04581e-07
-4.75399e-07
-3.16514e-07
-4.14722e-07
-2.37575e-07
-3.5151e-07
-1.68313e-07
-2.87157e-07
-1.09049e-07
-2.23057e-07
-5.98674e-08
-1.60576e-07
-2.06233e-08
-1.01021e-07
9.05658e-09
-4.56235e-08
2.97594e-08
4.45849e-09
4.22725e-08
4.8136e-08
4.75684e-08
8.4364e-08
4.67922e-08
1.1211e-07
4.12528e-08
1.30315e-07
3.24215e-08
1.37848e-07
2.19399e-08
1.3347e-07
1.16376e-08
1.15796e-07
3.55836e-09
8.32743e-08
3.4075e-08
-4.25308e-09
6.31355e-09
-1.64836e-08
2.85302e-08
-3.60437e-08
5.64696e-08
-6.22854e-08
8.76322e-08
-9.4636e-08
1.20456e-07
-1.32634e-07
1.53966e-07
-1.75941e-07
1.87626e-07
-2.24333e-07
2.21199e-07
-2.77684e-07
2.54628e-07
-3.35931e-07
2.8794e-07
-3.99052e-07
3.21179e-07
-4.67029e-07
3.54352e-07
-5.39822e-07
3.87407e-07
-6.1735e-07
4.20209e-07
-6.99468e-07
4.52541e-07
-7.85959e-07
4.841e-07
-8.76523e-07
5.14508e-07
-9.70772e-07
5.43325e-07
-1.06823e-06
5.70054e-07
-1.16836e-06
5.94167e-07
-1.27051e-06
6.15116e-07
-1.374e-06
6.32352e-07
-1.47809e-06
6.45344e-07
-1.58199e-06
6.53593e-07
-1.6849e-06
6.56651e-07
-1.78601e-06
6.54132e-07
-1.88449e-06
6.45722e-07
-1.97957e-06
6.31188e-07
-2.07048e-06
6.10383e-07
-2.15648e-06
5.8325e-07
-2.23689e-06
5.49817e-07
-2.31105e-06
5.10199e-07
-2.37837e-06
4.64595e-07
-2.4383e-06
4.1328e-07
-2.49031e-06
3.56607e-07
-2.53396e-06
2.94995e-07
-2.56881e-06
2.28933e-07
-2.59449e-06
1.58968e-07
-2.61067e-06
8.57121e-08
-2.61703e-06
9.83349e-09
-2.61336e-06
-6.79635e-08
-2.59946e-06
-1.46887e-07
-2.57517e-06
-2.26118e-07
-2.54044e-06
-3.04782e-07
-2.49524e-06
-3.81967e-07
-2.43965e-06
-4.56721e-07
-2.37384e-06
-5.28063e-07
-2.29807e-06
-5.94998e-07
-2.21273e-06
-6.56525e-07
-2.11831e-06
-7.11661e-07
-2.01547e-06
-7.5946e-07
-1.90497e-06
-7.99038e-07
-1.78775e-06
-8.29599e-07
-1.66487e-06
-8.5047e-07
-1.53756e-06
-8.61128e-07
-1.40714e-06
-8.61233e-07
-1.27506e-06
-8.50651e-07
-1.14283e-06
-8.2948e-07
-1.01203e-06
-7.98064e-07
-8.84221e-07
-7.56996e-07
-7.6094e-07
-7.07118e-07
-6.43636e-07
-6.49496e-07
-5.33633e-07
-5.85402e-07
-4.32086e-07
-5.16269e-07
-3.39948e-07
-4.43649e-07
-2.57939e-07
-3.69166e-07
-1.86532e-07
-2.94464e-07
-1.25939e-07
-2.21169e-07
-7.61127e-08
-1.50847e-07
-3.67517e-08
-8.49845e-08
-7.31364e-09
-2.49796e-08
1.29683e-08
2.7854e-08
2.50672e-08
7.22652e-08
3.01456e-08
1.07032e-07
2.95424e-08
1.30918e-07
2.47643e-08
1.42626e-07
1.74854e-08
1.40749e-07
9.55109e-09
1.2373e-07
2.98574e-09
8.98396e-08
3.70607e-08
-5.37021e-09
1.16837e-08
-2.04382e-08
4.35982e-08
-4.41269e-08
8.01582e-08
-7.54458e-08
1.18951e-07
-1.13562e-07
1.58572e-07
-1.57825e-07
1.9823e-07
-2.0777e-07
2.37571e-07
-2.63093e-07
2.76521e-07
-3.23616e-07
3.15151e-07
-3.89251e-07
3.53575e-07
-4.59953e-07
3.91881e-07
-5.35688e-07
4.30087e-07
-6.16395e-07
4.68114e-07
-7.01963e-07
5.05777e-07
-7.9221e-07
5.42788e-07
-8.86875e-07
5.78764e-07
-9.85606e-07
6.13239e-07
-1.08796e-06
6.45678e-07
-1.19341e-06
6.75503e-07
-1.30134e-06
7.02103e-07
-1.41109e-06
7.24863e-07
-1.52192e-06
7.43177e-07
-1.63304e-06
7.56473e-07
-1.74368e-06
7.64225e-07
-1.853e-06
7.65975e-07
-1.96021e-06
7.61339e-07
-2.0645e-06
7.50019e-07
-2.16512e-06
7.31806e-07
-2.26133e-06
7.06588e-07
-2.35242e-06
6.74345e-07
-2.43775e-06
6.35146e-07
-2.5167e-06
5.89149e-07
-2.5887e-06
5.36593e-07
-2.65322e-06
4.77797e-07
-2.70976e-06
4.13148e-07
-2.75787e-06
3.43104e-07
-2.79712e-06
2.68186e-07
-2.82713e-06
1.88976e-07
-2.84753e-06
1.06117e-07
-2.85801e-06
2.03098e-08
-2.85827e-06
-6.76962e-08
-2.84808e-06
-1.5708e-07
-2.82722e-06
-2.46975e-07
-2.79555e-06
-3.36456e-07
-2.75297e-06
-4.24549e-07
-2.69946e-06
-5.10233e-07
-2.63508e-06
-5.92444e-07
-2.55998e-06
-6.70089e-07
-2.47445e-06
-7.42058e-07
-2.37887e-06
-8.0724e-07
-2.27378e-06
-8.64549e-07
-2.15988e-06
-9.12947e-07
-2.038e-06
-9.51475e-07
-1.90917e-06
-9.79294e-07
-1.77459e-06
-9.95711e-07
-1.6356e-06
-1.00023e-06
-1.49368e-06
-9.92566e-07
-1.35045e-06
-9.72708e-07
-1.2076e-06
-9.40914e-07
-1.06686e-06
-8.97737e-07
-9.29954e-07
-8.44025e-07
-7.98544e-07
-7.80906e-07
-6.74182e-07
-7.09764e-07
-5.58253e-07
-6.32198e-07
-4.51932e-07
-5.4997e-07
-3.56148e-07
-4.6495e-07
-2.71555e-07
-3.79057e-07
-1.98522e-07
-2.94202e-07
-1.37124e-07
-2.12246e-07
-8.71473e-08
-1.34961e-07
-4.81098e-08
-6.40171e-08
-1.92742e-08
-9.81548e-10
3.27065e-10
5.26639e-08
1.18703e-08
9.54884e-08
1.6721e-08
1.26067e-07
1.64186e-08
1.42929e-07
1.26654e-08
1.44502e-07
7.31962e-09
1.29076e-07
2.38615e-09
9.47731e-08
3.94469e-08
-6.53087e-09
1.82146e-08
-2.4529e-08
6.15963e-08
-5.2459e-08
1.08088e-07
-8.89674e-08
1.5546e-07
-1.32946e-07
2.02551e-07
-1.83551e-07
2.48834e-07
-2.40181e-07
2.94202e-07
-3.02448e-07
3.38789e-07
-3.70125e-07
3.82828e-07
-4.4309e-07
4.26539e-07
-5.21276e-07
4.70067e-07
-6.04626e-07
5.13438e-07
-6.93055e-07
5.56543e-07
-7.86419e-07
5.99141e-07
-8.84498e-07
6.40867e-07
-9.86982e-07
6.81249e-07
-1.09347e-06
7.19728e-07
-1.20347e-06
7.55679e-07
-1.31641e-06
7.88437e-07
-1.43162e-06
8.1732e-07
-1.54841e-06
8.41647e-07
-1.666e-06
8.6077e-07
-1.78361e-06
8.74084e-07
-1.90044e-06
8.8105e-07
-2.01567e-06
8.8121e-07
-2.12852e-06
8.74191e-07
-2.23822e-06
8.5972e-07
-2.34404e-06
8.3762e-07
-2.44526e-06
8.07814e-07
-2.54124e-06
7.70321e-07
-2.63134e-06
7.25251e-07
-2.715e-06
6.72801e-07
-2.79165e-06
6.13248e-07
-2.8608e-06
5.46943e-07
-2.92196e-06
4.74308e-07
-2.97468e-06
3.95828e-07
-3.01855e-06
3.12053e-07
-3.05316e-06
2.2359e-07
-3.07815e-06
1.31105e-07
-3.09316e-06
3.53231e-08
-3.09788e-06
-6.29762e-08
-3.09202e-06
-1.62949e-07
-3.0753e-06
-2.63693e-07
-3.04751e-06
-3.64248e-07
-3.00846e-06
-4.6359e-07
-2.95805e-06
-5.60642e-07
-2.89623e-06
-6.54269e-07
-2.82303e-06
-7.43293e-07
-2.73858e-06
-8.26499e-07
-2.64317e-06
-9.02656e-07
-2.53718e-06
-9.70535e-07
-2.42119e-06
-1.02894e-06
-2.29594e-06
-1.07673e-06
-2.16235e-06
-1.11288e-06
-2.02156e-06
-1.1365e-06
-1.87488e-06
-1.1469e-06
-1.72383e-06
-1.14362e-06
-1.57007e-06
-1.12647e-06
-1.41541e-06
-1.09558e-06
-1.26173e-06
-1.05142e-06
-1.11095e-06
-9.948e-07
-9.64974e-07
-9.26884e-07
-8.25598e-07
-8.4914e-07
-6.94473e-07
-7.63323e-07
-5.73038e-07
-6.71405e-07
-4.62472e-07
-5.75517e-07
-3.63653e-07
-4.77876e-07
-2.77142e-07
-3.80713e-07
-2.03168e-07
-2.8622e-07
-1.41636e-07
-1.96493e-07
-9.21388e-08
-1.13514e-07
-5.39835e-08
-3.91369e-08
-2.62153e-08
2.48958e-08
-7.64829e-09
7.69214e-08
3.10862e-09
1.1531e-07
7.62761e-09
1.3841e-07
7.64212e-09
1.44487e-07
5.02855e-09
1.31689e-07
1.78551e-09
9.80161e-08
4.12324e-08
-7.72059e-09
2.59352e-08
-2.8703e-08
8.25787e-08
-6.09303e-08
1.40316e-07
-1.0267e-07
1.972e-07
-1.52531e-07
2.52412e-07
-2.09466e-07
3.05769e-07
-2.7274e-07
3.57476e-07
-3.41878e-07
4.07927e-07
-4.16597e-07
4.57547e-07
-4.96743e-07
5.06686e-07
-5.82224e-07
5.55548e-07
-6.72956e-07
6.0417e-07
-7.68826e-07
6.52412e-07
-8.69654e-07
6.99969e-07
-9.7518e-07
7.46393e-07
-1.08505e-06
7.91119e-07
-1.19882e-06
8.33493e-07
-1.31594e-06
8.72801e-07
-1.4358e-06
9.08297e-07
-1.55771e-06
9.39229e-07
-1.68093e-06
9.64868e-07
-1.80469e-06
9.84527e-07
-1.92818e-06
9.97583e-07
-2.05063e-06
1.00349e-06
-2.17122e-06
1.00181e-06
-2.28921e-06
9.92176e-07
-2.40384e-06
9.74353e-07
-2.51442e-06
9.48197e-07
-2.62028e-06
9.13669e-07
-2.72078e-06
8.70827e-07
-2.81535e-06
8.19818e-07
-2.90342e-06
7.60876e-07
-2.98449e-06
6.94312e-07
-3.05806e-06
6.2051e-07
-3.12366e-06
5.39917e-07
-3.18088e-06
4.53046e-07
-3.2293e-06
3.60467e-07
-3.26851e-06
2.62808e-07
-3.29816e-06
1.60753e-07
-3.31788e-06
5.50429e-08
-3.32733e-06
-5.35252e-08
-3.32619e-06
-1.64092e-07
-3.31414e-06
-2.75738e-07
-3.29091e-06
-3.87478e-07
-3.25624e-06
-4.9826e-07
-3.20992e-06
-6.06964e-07
-3.15179e-06
-7.12404e-07
-3.08175e-06
-8.13332e-07
-2.9998e-06
-9.08445e-07
-2.90606e-06
-9.964e-07
-2.80076e-06
-1.07583e-06
-2.68431e-06
-1.14539e-06
-2.5573e-06
-1.20374e-06
-2.42052e-06
-1.24966e-06
-2.275e-06
-1.28203e-06
-2.12197e-06
-1.29993e-06
-1.96292e-06
-1.30267e-06
-1.79954e-06
-1.28984e-06
-1.63372e-06
-1.2614e-06
-1.46747e-06
-1.21767e-06
-1.30291e-06
-1.15936e-06
-1.14218e-06
-1.08762e-06
-9.87344e-07
-1.00397e-06
-8.40368e-07
-9.10299e-07
-7.02991e-07
-8.08781e-07
-5.76692e-07
-7.01816e-07
-4.62626e-07
-5.91941e-07
-3.61595e-07
-4.81745e-07
-2.74025e-07
-3.73789e-07
-1.99974e-07
-2.70544e-07
-1.39139e-07
-1.74348e-07
-9.08897e-08
-8.73865e-08
-5.42956e-08
-1.16983e-08
-2.81666e-08
5.07924e-08
-1.10868e-08
9.82303e-08
-1.44736e-09
1.2877e-07
2.52374e-09
1.40516e-07
2.73497e-09
1.31478e-07
1.20098e-09
9.95501e-08
4.24334e-08
-8.92314e-09
3.48583e-08
-3.29031e-08
1.06559e-07
-6.9425e-08
1.76837e-07
-1.16368e-07
2.44143e-07
-1.72051e-07
3.08095e-07
-2.35223e-07
3.68941e-07
-3.05013e-07
4.27266e-07
-3.80859e-07
4.83772e-07
-4.62423e-07
5.39112e-07
-5.49515e-07
5.93777e-07
-6.42013e-07
6.48046e-07
-7.39807e-07
7.01964e-07
-8.42749e-07
7.55355e-07
-9.50626e-07
8.07846e-07
-1.06313e-06
8.58902e-07
-1.17988e-06
9.07862e-07
-1.30036e-06
9.53979e-07
-1.42402e-06
9.96452e-07
-1.55018e-06
1.03446e-06
-1.67814e-06
1.06719e-06
-1.80714e-06
1.09387e-06
-1.9364e-06
1.11379e-06
-2.06514e-06
1.12632e-06
-2.19256e-06
1.13091e-06
-2.3179e-06
1.12715e-06
-2.44041e-06
1.11469e-06
-2.5594e-06
1.09333e-06
-2.67417e-06
1.06297e-06
-2.7841e-06
1.0236e-06
-2.88859e-06
9.75321e-07
-2.98709e-06
9.18315e-07
-3.07907e-06
8.52854e-07
-3.16404e-06
7.79281e-07
-3.24154e-06
6.98009e-07
-3.31114e-06
6.09516e-07
-3.37243e-06
5.14336e-07
-3.42502e-06
4.13062e-07
-3.46855e-06
3.06337e-07
-3.50266e-06
1.94859e-07
-3.52699e-06
7.9376e-08
-3.54121e-06
-3.9307e-08
-3.54498e-06
-1.60327e-07
-3.53795e-06
-2.82761e-07
-3.51981e-06
-4.05618e-07
-3.49023e-06
-5.27837e-07
-3.44892e-06
-6.48279e-07
-3.39559e-06
-7.65729e-07
-3.33004e-06
-8.7889e-07
-3.25209e-06
-9.86395e-07
-3.16168e-06
-1.08681e-06
-3.05887e-06
-1.17864e-06
-2.94387e-06
-1.26039e-06
-2.81707e-06
-1.33054e-06
-2.67908e-06
-1.38765e-06
-2.53074e-06
-1.43037e-06
-2.37318e-06
-1.45749e-06
-2.20779e-06
-1.46806e-06
-2.03622e-06
-1.46141e-06
-1.86038e-06
-1.43724e-06