/*--------------------------------*- C++ -*----------------------------------*\
  =========                 |
  \\      /  F ield         | OpenFOAM: The Open Source CFD Toolbox
   \\    /   O peration     | Website:  https://openfoam.org
    \\  /    A nd           | Version:  7
     \\/     M anipulation  |
\*---------------------------------------------------------------------------*/
FoamFile
{
    version     2.0;
    format      ascii;
    class       surfaceScalarField;
    location    "2.15";
    object      phi;
}
// * * * * * * * * * * * * * * * * * * * * * * * * * * * * * * * * * * * * * //

dimensions      [0 3 -1 0 0 0 0];

internalField   nonuniform List<scalar> 
12640
(
2.20298e-10
-2.3074e-10
6.20128e-10
-3.99834e-10
9.43206e-10
-3.23039e-10
1.05616e-09
-1.1296e-10
8.99373e-10
1.56735e-10
4.53284e-10
4.46046e-10
-2.79069e-10
7.32372e-10
-1.28263e-09
1.00359e-09
-2.53589e-09
1.25327e-09
-4.01429e-09
1.47837e-09
-5.69222e-09
1.67792e-09
-7.54433e-09
1.85211e-09
-9.54617e-09
2.00185e-09
-1.16746e-08
2.12845e-09
-1.3908e-08
2.2334e-09
-1.62263e-08
2.31826e-09
-1.86108e-08
2.38449e-09
-2.10442e-08
2.43347e-09
-2.35106e-08
2.4664e-09
-2.59949e-08
2.4843e-09
-2.84829e-08
2.48802e-09
-3.09612e-08
2.47823e-09
-3.34165e-08
2.45538e-09
-3.58363e-08
2.41978e-09
-3.82079e-08
2.37161e-09
-4.05188e-08
2.31092e-09
-4.27565e-08
2.2377e-09
-4.49084e-08
2.15185e-09
-4.69617e-08
2.05327e-09
-4.89035e-08
1.94182e-09
-5.07209e-08
1.81742e-09
-5.2401e-08
1.68006e-09
-5.39308e-08
1.52981e-09
-5.52976e-08
1.36684e-09
-5.64891e-08
1.19147e-09
-5.74932e-08
1.00416e-09
-5.82988e-08
8.05556e-10
-5.88953e-08
5.96498e-10
-5.92733e-08
3.78015e-10
-5.94246e-08
1.51341e-10
-5.93426e-08
-8.20838e-11
-5.90219e-08
-3.20613e-10
-5.84595e-08
-5.62403e-10
-5.76541e-08
-8.05427e-10
-5.66066e-08
-1.04749e-09
-5.53203e-08
-1.28627e-09
-5.3801e-08
-1.51932e-09
-5.20569e-08
-1.74409e-09
-5.00989e-08
-1.958e-09
-4.79404e-08
-2.15847e-09
-4.55975e-08
-2.34295e-09
-4.30885e-08
-2.50896e-09
-4.04344e-08
-2.65415e-09
-3.7658e-08
-2.77637e-09
-3.47844e-08
-2.87364e-09
-3.18401e-08
-2.94427e-09
-2.88532e-08
-2.98688e-09
-2.58528e-08
-3.00042e-09
-2.28686e-08
-2.98419e-09
-1.99307e-08
-2.93788e-09
-1.70691e-08
-2.86161e-09
-1.43132e-08
-2.75589e-09
-1.16916e-08
-2.62167e-09
-9.23121e-09
-2.46034e-09
-6.95756e-09
-2.27366e-09
-4.89372e-09
-2.06384e-09
-3.06021e-09
-1.8335e-09
-1.47451e-09
-1.58569e-09
-1.50561e-10
-1.32394e-09
9.01723e-10
-1.05228e-09
1.67707e-09
-7.75353e-10
2.17576e-09
-4.98702e-10
2.40486e-09
-2.29106e-10
2.38e-09
2.48513e-11
2.12845e-09
2.51556e-10
1.69343e-09
4.35019e-10
1.14107e-09
5.52363e-10
5.71258e-10
5.6981e-10
1.33587e-10
4.37672e-10
1.33589e-10
3.96658e-10
-6.27407e-10
9.11714e-10
-9.14933e-10
1.15134e-09
-5.62661e-10
8.76676e-10
1.61761e-10
-4.66198e-11
1.08007e-09
-1.67758e-09
2.07698e-09
-4.02556e-09
3.0803e-09
-7.06732e-09
4.04533e-09
-1.07599e-08
4.9459e-09
-1.50491e-08
5.76758e-09
-1.98747e-08
6.50353e-09
-2.51744e-08
7.1518e-09
-3.08861e-08
7.71355e-09
-3.69495e-08
8.19179e-09
-4.33067e-08
8.59062e-09
-4.9903e-08
8.91461e-09
-5.66869e-08
9.16837e-09
-6.36097e-08
9.35632e-09
-7.06258e-08
9.48247e-09
-7.76917e-08
9.55029e-09
-8.47664e-08
9.56271e-09
-9.18102e-08
9.52204e-09
-9.87848e-08
9.43002e-09
-1.05653e-07
9.28788e-09
-1.12378e-07
9.09638e-09
-1.18923e-07
8.85589e-09
-1.25251e-07
8.56651e-09
-1.31328e-07
8.22815e-09
-1.37115e-07
7.84065e-09
-1.42577e-07
7.40386e-09
-1.47678e-07
6.91776e-09
-1.5238e-07
6.38257e-09
-1.56649e-07
5.79885e-09
-1.6045e-07
5.16756e-09
-1.63749e-07
4.49017e-09
-1.66513e-07
3.76871e-09
-1.68713e-07
3.00585e-09
-1.70322e-07
2.20495e-09
-1.71314e-07
1.37005e-09
-1.71668e-07
5.05961e-10
-1.71369e-07
-3.81791e-10
-1.70402e-07
-1.28696e-09
-1.68762e-07
-2.2026e-09
-1.66446e-07
-3.12114e-09
-1.6346e-07
-4.03441e-09
-1.59812e-07
-4.93376e-09
-1.55521e-07
-5.81016e-09
-1.50611e-07
-6.65429e-09
-1.45112e-07
-7.45669e-09
-1.39063e-07
-8.20792e-09
-1.32507e-07
-8.89867e-09
-1.25496e-07
-9.51996e-09
-1.18087e-07
-1.00633e-08
-1.10343e-07
-1.05208e-08
-1.02331e-07
-1.08855e-08
-9.41236e-08
-1.11513e-08
-8.57974e-08
-1.13131e-08
-7.74305e-08
-1.13673e-08
-6.91033e-08
-1.13114e-08
-6.08967e-08
-1.11444e-08
-5.28915e-08
-1.08668e-08
-4.51666e-08
-1.04808e-08
-3.77985e-08
-9.98977e-09
-3.08598e-08
-9.39907e-09
-2.4418e-08
-8.71547e-09
-1.85344e-08
-7.94734e-09
-1.32632e-08
-7.1047e-09
-8.64971e-09
-6.19923e-09
-4.7292e-09
-5.24445e-09
-1.52555e-09
-4.25592e-09
9.50772e-10
-3.25167e-09
2.70496e-09
-2.25289e-09
3.76083e-09
-1.28498e-09
4.16496e-09
-3.79276e-10
3.99197e-09
4.24549e-10
3.35182e-09
1.07518e-09
2.3986e-09
1.5056e-09
1.33928e-09
1.62916e-09
4.35737e-10
1.34127e-09
5.6933e-10
3.27069e-10
-9.54438e-10
5.68755e-10
-1.15663e-09
2.88663e-10
-2.82644e-10
-7.86439e-10
1.23684e-09
-2.82029e-09
3.11396e-09
-5.89221e-09
5.14894e-09
-1.00191e-08
7.20722e-09
-1.5175e-08
9.20114e-09
-2.13047e-08
1.10756e-08
-2.83348e-08
1.27977e-08
-3.61813e-08
1.435e-08
-4.47546e-08
1.57251e-08
-5.39638e-08
1.69227e-08
-6.37187e-08
1.79467e-08
-7.39318e-08
1.88037e-08
-8.45189e-08
1.95017e-08
-9.53997e-08
2.00492e-08
-1.06498e-07
2.04546e-08
-1.17741e-07
2.07254e-08
-1.29059e-07
2.08686e-08
-1.40387e-07
2.089e-08
-1.51659e-07
2.07943e-08
-1.62814e-07
2.05851e-08
-1.73791e-07
2.02651e-08
-1.84531e-07
1.9836e-08
-1.94974e-07
1.92988e-08
-2.05061e-07
1.86541e-08
-2.14735e-07
1.79019e-08
-2.23937e-07
1.70423e-08
-2.32608e-07
1.60754e-08
-2.40692e-07
1.50017e-08
-2.48132e-07
1.38221e-08
-2.54871e-07
1.25382e-08
-2.60856e-07
1.11525e-08
-2.66034e-07
9.66862e-09
-2.70357e-07
8.09138e-09
-2.73778e-07
6.42685e-09
-2.76256e-07
4.68257e-09
-2.77753e-07
2.86753e-09
-2.78239e-07
9.92241e-10
-2.7769e-07
-9.3126e-10
-2.76087e-07
-2.88947e-09
-2.73423e-07
-4.86747e-09
-2.69695e-07
-6.84904e-09
-2.64912e-07
-8.8168e-09
-2.59094e-07
-1.07524e-08
-2.52267e-07
-1.26366e-08
-2.44472e-07
-1.44499e-08
-2.35756e-07
-1.61723e-08
-2.2618e-07
-1.7784e-08
-2.15813e-07
-1.92654e-08
-2.04735e-07
-2.05977e-08
-1.93035e-07
-2.17633e-08
-1.80811e-07
-2.27457e-08
-1.68166e-07
-2.35302e-08
-1.55213e-07
-2.41042e-08
-1.42069e-07
-2.44574e-08
-1.28854e-07
-2.4582e-08
-1.15692e-07
-2.44731e-08
-1.02708e-07
-2.41287e-08
-9.00247e-08
-2.35501e-08
-7.77637e-08
-2.27418e-08
-6.60419e-08
-2.17116e-08
-5.49702e-08
-2.04707e-08
-4.46518e-08
-1.90338e-08
-3.51802e-08
-1.7419e-08
-2.66371e-08
-1.56478e-08
-1.90908e-08
-1.37456e-08
-1.25938e-08
-1.17415e-08
-7.18056e-09
-9.66913e-09
-2.86491e-09
-7.56731e-09
3.63285e-10
-5.48108e-09
2.54193e-09
-3.46363e-09
3.74137e-09
-1.57872e-09
4.07024e-09
9.56746e-11
3.68198e-09
1.46343e-09
2.7824e-09
2.40516e-09
1.6358e-09
2.77577e-09
5.68989e-10
2.40811e-09
1.13833e-09
1.20162e-10
-1.07459e-09
-1.57767e-10
-8.78649e-10
-1.24602e-09
8.05574e-10
-3.41092e-09
3.40169e-09
-6.81453e-09
6.51756e-09
-1.15364e-08
9.8708e-09
-1.7592e-08
1.32629e-08
-2.49498e-08
1.6559e-08
-3.35448e-08
1.96705e-08
-4.32889e-08
2.25419e-08
-5.40802e-08
2.51413e-08
-6.58084e-08
2.74533e-08
-7.83598e-08
2.94741e-08
-9.16203e-08
3.12072e-08
-1.05478e-07
3.26613e-08
-1.19824e-07
3.38474e-08
-1.34552e-07
3.47781e-08
-1.49564e-07
3.54657e-08
-1.6476e-07
3.59222e-08
-1.8005e-07
3.61582e-08
-1.95343e-07
3.61829e-08
-2.10552e-07
3.6004e-08
-2.25595e-07
3.56272e-08
-2.40387e-07
3.50571e-08
-2.54847e-07
3.42968e-08
-2.68897e-07
3.33483e-08
-2.82456e-07
3.22128e-08
-2.95445e-07
3.0891e-08
-3.07786e-07
2.93835e-08
-3.19402e-07
2.76911e-08
-3.30215e-07
2.58152e-08
-3.40151e-07
2.37579e-08
-3.49135e-07
2.15227e-08
-3.57098e-07
1.91147e-08
-3.63969e-07
1.65405e-08
-3.69687e-07
1.38088e-08
-3.74191e-07
1.09307e-08
-3.77428e-07
7.91941e-09
-3.79351e-07
4.79066e-09
-3.79921e-07
1.56267e-09
-3.79109e-07
-1.74382e-09
-3.76892e-07
-5.1057e-09
-3.73262e-07
-8.49752e-09
-3.6822e-07
-1.18917e-08
-3.61777e-07
-1.5259e-08
-3.53962e-07
-1.85682e-08
-3.44811e-07
-2.17872e-08
-3.34378e-07
-2.4883e-08
-3.22728e-07
-2.78222e-08
-3.0994e-07
-3.05716e-08
-2.96107e-07
-3.30986e-08
-2.81333e-07
-3.5372e-08
-2.65734e-07
-3.7362e-08
-2.49439e-07
-3.90414e-08
-2.32583e-07
-4.03859e-08
-2.15313e-07
-4.13744e-08
-1.9778e-07
-4.19898e-08
-1.80143e-07
-4.22194e-08
-1.62561e-07
-4.20551e-08
-1.45196e-07
-4.14937e-08
-1.28208e-07
-4.05377e-08
-1.11756e-07
-3.91946e-08
-9.59892e-08
-3.74779e-08
-8.10532e-08
-3.54068e-08
-6.70809e-08
-3.30061e-08
-5.41933e-08
-3.03066e-08
-4.24958e-08
-2.73453e-08
-3.20762e-08
-2.41651e-08
-2.30019e-08
-2.08158e-08
-1.53167e-08
-1.73544e-08
-9.0378e-09
-1.38462e-08
-4.15247e-09
-1.03664e-08
-6.13603e-10
-7.00249e-09
1.66473e-09
-3.85704e-09
2.81233e-09
-1.05191e-09
3.00874e-09
1.26703e-09
2.48908e-09
2.92481e-09
1.55048e-09
3.71435e-09
5.61276e-10
3.39733e-09
1.69961e-09
-1.53853e-10
-9.2078e-10
-1.10489e-09
7.24435e-11
-3.19583e-09
2.89656e-09
-6.65494e-09
6.86078e-09
-1.16204e-08
1.1483e-08
-1.81562e-08
1.64066e-08
-2.62664e-08
2.13731e-08
-3.59088e-08
2.62014e-08
-4.70067e-08
3.07684e-08
-5.94592e-08
3.49944e-08
-7.3149e-08
3.8831e-08
-8.79488e-08
4.22531e-08
-1.03726e-07
4.52517e-08
-1.20348e-07
4.78291e-08
-1.37682e-07
4.99947e-08
-1.55597e-07
5.17624e-08
-1.73967e-07
5.31485e-08
-1.92671e-07
5.41694e-08
-2.1159e-07
5.48413e-08
-2.3061e-07
5.51788e-08
-2.49622e-07
5.51947e-08
-2.68518e-07
5.48996e-08
-2.87193e-07
5.43022e-08
-3.05544e-07
5.3409e-08
-3.23472e-07
5.22246e-08
-3.40877e-07
5.07525e-08
-3.57659e-07
4.89949e-08
-3.73721e-07
4.69534e-08
-3.88967e-07
4.46295e-08
-4.03301e-07
4.20253e-08
-4.1663e-07
3.91436e-08
-4.2886e-07
3.59885e-08
-4.39904e-07
3.25662e-08
-4.49674e-07
2.88849e-08
-4.58089e-07
2.49555e-08
-4.65072e-07
2.07921e-08
-4.70553e-07
1.64116e-08
-4.74468e-07
1.18346e-08
-4.76763e-07
7.08533e-09
-4.77392e-07
2.19149e-09
-4.7632e-07
-2.81557e-09
-4.73525e-07
-7.90097e-09
-4.68996e-07
-1.30266e-08
-4.62736e-07
-1.81511e-08
-4.54764e-07
-2.32308e-08
-4.45113e-07
-2.82195e-08
-4.33831e-07
-3.30694e-08
-4.20982e-07
-3.77317e-08
-4.06647e-07
-4.21569e-08
-3.90923e-07
-4.6296e-08
-3.73921e-07
-5.0101e-08
-3.55767e-07
-5.35256e-08
-3.36603e-07
-5.65263e-08
-3.16581e-07
-5.9063e-08
-2.95867e-07
-6.10999e-08
-2.74635e-07
-6.2606e-08
-2.53069e-07
-6.35563e-08
-2.31356e-07
-6.3932e-08
-2.0969e-07
-6.37214e-08
-1.88264e-07
-6.29201e-08
-1.6727e-07
-6.15316e-08
-1.46897e-07
-5.95675e-08
-1.27327e-07
-5.7048e-08
-1.08732e-07
-5.40015e-08
-9.12726e-08
-5.04654e-08
-7.50934e-08
-4.64858e-08
-6.0321e-08
-4.21177e-08
-4.70607e-08
-3.74254e-08
-3.53934e-08
-3.24831e-08
-2.53724e-08
-2.73754e-08
-1.70198e-08
-2.21987e-08
-1.03233e-08
-1.7063e-08
-5.23144e-09
-1.20943e-08
-1.65041e-09
-7.43806e-09
5.60959e-10
-3.26327e-09
1.59565e-09
2.32341e-10
1.70361e-09
2.81685e-09
1.19801e-09
4.21996e-09
4.65726e-10
4.12964e-09
2.16535e-09
-4.58542e-10
-4.62283e-10
-2.17069e-09
1.78459e-09
-5.3878e-09
6.11371e-09
-1.02792e-08
1.17523e-08
-1.69431e-08
1.81469e-08
-2.54152e-08
2.48786e-08
-3.56788e-08
3.16367e-08
-4.76752e-08
3.81978e-08
-6.13132e-08
4.44065e-08
-7.64778e-08
5.01589e-08
-9.30371e-08
5.53903e-08
-1.10849e-07
6.00649e-08
-1.29765e-07
6.41677e-08
-1.49635e-07
6.76989e-08
-1.70308e-07
7.06683e-08
-1.91638e-07
7.3092e-08
-2.13479e-07
7.49894e-08
-2.3569e-07
7.6381e-08
-2.58136e-07
7.7287e-08
-2.80683e-07
7.77259e-08
-3.03203e-07
7.77142e-08
-3.25569e-07
7.72659e-08
-3.47659e-07
7.63921e-08
-3.69352e-07
7.51017e-08
-3.90528e-07
7.34014e-08
-4.11072e-07
7.1296e-08
-4.30866e-07
6.8789e-08
-4.49796e-07
6.58835e-08
-4.67749e-07
6.25825e-08
-4.84613e-07
5.88894e-08
-5.00279e-07
5.48093e-08
-5.14639e-07
5.0349e-08
-5.27591e-07
4.55179e-08
-5.39035e-07
4.03286e-08
-5.48876e-07
3.47972e-08
-5.57028e-07
2.89439e-08
-5.6341e-07
2.27932e-08
-5.6795e-07
1.63744e-08
-5.70586e-07
9.72155e-09
-5.71268e-07
2.87349e-09
-5.69958e-07
-4.126e-09
-5.6663e-07
-1.12285e-08
-5.61275e-07
-1.83811e-08
-5.539e-07
-2.55271e-08
-5.44524e-07
-3.26059e-08
-5.3319e-07
-3.95543e-08
-5.19952e-07
-4.63067e-08
-5.04888e-07
-5.27961e-08
-4.8809e-07
-5.89552e-08
-4.69669e-07
-6.47167e-08
-4.49755e-07
-7.00152e-08
-4.28493e-07
-7.47876e-08
-4.06044e-07
-7.89747e-08
-3.82586e-07
-8.25216e-08
-3.58306e-07
-8.53796e-08
-3.33405e-07
-8.75066e-08
-3.08093e-07
-8.88685e-08
-2.82586e-07
-8.94396e-08
-2.57103e-07
-8.9204e-08
-2.31867e-07
-8.81558e-08
-2.07099e-07
-8.62998e-08
-1.83014e-07
-8.36521e-08
-1.59822e-07
-8.02403e-08
-1.3772e-07
-7.61036e-08
-1.16892e-07
-7.12933e-08
-9.75053e-08
-6.58728e-08
-7.97051e-08
-5.99179e-08
-6.36136e-08
-5.35168e-08
-4.93254e-08
-4.67713e-08
-3.6904e-08
-3.97968e-08
-2.63785e-08
-3.27242e-08
-1.77399e-08
-2.57015e-08
-1.09378e-08
-1.88964e-08
-5.87636e-09
-1.24995e-08
-2.41104e-09
-6.72859e-09
-3.44658e-10
-1.83403e-09
5.76694e-10
1.89551e-09
6.68755e-10
4.12791e-09
3.17472e-10
4.48094e-09
2.48282e-09
-7.7451e-10
3.12242e-10
-3.29323e-09
4.30327e-09
-7.70835e-09
1.05288e-08
-1.41192e-08
1.81632e-08
-2.25726e-08
2.66003e-08
-3.30664e-08
3.53724e-08
-4.55555e-08
4.41257e-08
-5.99589e-08
5.26012e-08
-7.6167e-08
6.06147e-08
-9.40488e-08
6.80407e-08
-1.13457e-07
7.4799e-08
-1.34236e-07
8.08434e-08
-1.56222e-07
8.61534e-08
-1.79249e-07
9.07263e-08
-2.03153e-07
9.45721e-08
-2.2777e-07
9.77088e-08
-2.52939e-07
1.00159e-07
-2.78503e-07
1.01946e-07
-3.0431e-07
1.03094e-07
-3.30211e-07
1.03626e-07
-3.56059e-07
1.03562e-07
-3.81712e-07
1.02919e-07
-4.07031e-07
1.01711e-07
-4.31878e-07
9.9949e-08
-4.56118e-07
9.76419e-08
-4.79619e-07
9.47963e-08
-5.02247e-07
9.14174e-08
-5.23873e-07
8.75098e-08
-5.44369e-07
8.30784e-08
-5.63609e-07
7.81287e-08
-5.81468e-07
7.26685e-08
-5.97827e-07
6.67079e-08
-6.12569e-07
6.02604e-08
-6.25584e-07
5.33436e-08
-6.36767e-07
4.59799e-08
-6.46019e-07
3.81967e-08
-6.53253e-07
3.00272e-08
-6.58389e-07
2.15105e-08
-6.6136e-07
1.26919e-08
-6.62109e-07
3.623e-09
-6.60597e-07
-5.63865e-09
-6.56796e-07
-1.50294e-08
-6.50697e-07
-2.44801e-08
-6.42307e-07
-3.39165e-08
-6.31653e-07
-4.32598e-08
-6.1878e-07
-5.24276e-08
-6.03752e-07
-6.13348e-08
-5.86654e-07
-6.98944e-08
-5.6759e-07
-7.80191e-08
-5.46684e-07
-8.5622e-08
-5.24081e-07
-9.26182e-08
-4.99943e-07
-9.89261e-08
-4.74449e-07
-1.04469e-07
-4.47794e-07
-1.09176e-07
-4.2019e-07
-1.12984e-07
-3.91858e-07
-1.15838e-07
-3.63032e-07
-1.17695e-07
-3.33952e-07
-1.1852e-07
-3.04862e-07
-1.18293e-07
-2.76011e-07
-1.17007e-07
-2.47643e-07
-1.14667e-07
-2.20001e-07
-1.11295e-07
-1.93317e-07
-1.06925e-07
-1.67812e-07
-1.01608e-07
-1.43692e-07
-9.54125e-08
-1.21146e-07
-8.84191e-08
-1.00337e-07
-8.07266e-08
-8.14048e-08
-7.24495e-08
-6.44569e-08
-6.37192e-08
-4.95689e-08
-5.46847e-08
-3.67794e-08
-4.55138e-08
-2.60862e-08
-3.63947e-08
-1.74438e-08
-2.75388e-08
-1.076e-08
-1.91833e-08
-5.89297e-09
-1.15956e-08
-2.64866e-09
-5.07832e-09
-7.77658e-10
2.45375e-11
2.78193e-11
3.32246e-09
1.3899e-10
4.36978e-09
2.62181e-09
-1.09165e-09
1.40394e-09
-4.43526e-09
7.64687e-09
-1.00848e-08
1.61783e-08
-1.80642e-08
2.61426e-08
-2.83622e-08
3.68984e-08
-4.0932e-08
4.79422e-08
-5.56938e-08
5.88876e-08
-7.25395e-08
6.94468e-08
-9.13374e-08
7.94126e-08
-1.11938e-07
8.86412e-08
-1.34178e-07
9.70391e-08
-1.57886e-07
1.04551e-07
-1.82885e-07
1.11152e-07
-2.08995e-07
1.16837e-07
-2.36037e-07
1.21615e-07
-2.63835e-07
1.25506e-07
-2.92213e-07
1.28536e-07
-3.21e-07
1.30733e-07
-3.50029e-07
1.32123e-07
-3.79135e-07
1.32733e-07
-4.08159e-07
1.32586e-07
-4.36944e-07
1.31703e-07
-4.65334e-07
1.30101e-07
-4.93178e-07
1.27793e-07
-5.20327e-07
1.2479e-07
-5.46632e-07
1.21101e-07
-5.71947e-07
1.16733e-07
-5.96128e-07
1.11691e-07
-6.19034e-07
1.05984e-07
-6.40525e-07
9.96196e-08
-6.60465e-07
9.26083e-08
-6.78721e-07
8.49643e-08
-6.95167e-07
7.67061e-08
-7.0968e-07
6.7857e-08
-7.22146e-07
5.84463e-08
-7.3246e-07
4.85098e-08
-7.40523e-07
3.80903e-08
-7.4625e-07
2.72379e-08
-7.49569e-07
1.60103e-08
-7.50418e-07
4.47281e-09
-7.48755e-07
-7.30166e-09
-7.44552e-07
-1.9233e-08
-7.37798e-07
-3.12341e-08
-7.28502e-07
-4.3212e-08
-7.16694e-07
-5.5068e-08
-7.02423e-07
-6.6699e-08
-6.85759e-07
-7.79987e-08
-6.66794e-07
-8.88587e-08
-6.45644e-07
-9.91699e-08
-6.22442e-07
-1.08824e-07
-5.97345e-07
-1.17715e-07
-5.70529e-07
-1.25742e-07
-5.4219e-07
-1.32808e-07
-5.12541e-07
-1.38825e-07
-4.81809e-07
-1.43715e-07
-4.50238e-07
-1.47409e-07
-4.18082e-07
-1.49851e-07
-3.85601e-07
-1.51001e-07
-3.53064e-07
-1.5083e-07
-3.20741e-07
-1.4933e-07
-2.889e-07
-1.46508e-07
-2.57807e-07
-1.42388e-07
-2.27716e-07
-1.37015e-07
-1.98873e-07
-1.30452e-07
-1.71503e-07
-1.22782e-07
-1.45816e-07
-1.14107e-07
-1.21993e-07
-1.04549e-07
-1.00192e-07
-9.4251e-08
-8.05351e-08
-8.33758e-08
-6.31122e-08
-7.21076e-08
-4.7973e-08
-6.06529e-08
-3.51258e-08
-4.9242e-08
-2.45336e-08
-3.81309e-08
-1.61125e-08
-2.76044e-08
-9.72843e-09
-1.79796e-08
-5.1962e-09
-9.61053e-09
-2.27751e-09
-2.89413e-09
-6.79756e-10
1.72473e-09
-5.53639e-11
3.7454e-09
2.56644e-09
-1.40467e-09
2.80863e-09
-5.57496e-09
1.18172e-08
-1.2471e-08
2.30744e-08
-2.20405e-08
3.5712e-08
-3.42104e-08
4.90683e-08
-4.88847e-08
6.26166e-08
-6.59446e-08
7.59475e-08
-8.52508e-08
8.8753e-08
-1.06646e-07
1.00808e-07
-1.2996e-07
1.11955e-07
-1.55013e-07
1.22091e-07
-1.81616e-07
1.31154e-07
-2.09578e-07
1.39114e-07
-2.38706e-07
1.45965e-07
-2.6881e-07
1.51718e-07
-2.99698e-07
1.56394e-07
-3.31183e-07
1.60022e-07
-3.63081e-07
1.62631e-07
-3.95213e-07
1.64254e-07
-4.27401e-07
1.64921e-07
-4.59472e-07
1.64657e-07
-4.91256e-07
1.63487e-07
-5.22585e-07
1.61431e-07
-5.53295e-07
1.58503e-07
-5.83222e-07
1.54718e-07
-6.12206e-07
1.50085e-07
-6.40087e-07
1.44614e-07
-6.66711e-07
1.38315e-07
-6.91921e-07
1.31195e-07
-7.15568e-07
1.23266e-07
-7.37503e-07
1.14544e-07
-7.57585e-07
1.05045e-07
-7.75674e-07
9.47952e-08
-7.9164e-07
8.38229e-08
-8.05359e-07
7.21655e-08
-8.16717e-07
5.98679e-08
-8.2561e-07
4.69833e-08
-8.31946e-07
3.35738e-08
-8.35646e-07
1.97104e-08
-8.36646e-07
5.47331e-09
-8.349e-07
-9.04821e-09
-8.30376e-07
-2.37563e-08
-8.23066e-07
-3.8545e-08
-8.12976e-07
-5.33011e-08
-8.0014e-07
-6.79046e-08
-7.84608e-07
-8.22307e-08
-7.66457e-07
-9.61502e-08
-7.45784e-07
-1.09532e-07
-7.2271e-07
-1.22243e-07
-6.97381e-07
-1.34154e-07
-6.69962e-07
-1.45134e-07
-6.40641e-07
-1.55062e-07
-6.09629e-07
-1.63821e-07
-5.77151e-07
-1.71303e-07
-5.43454e-07
-1.77412e-07
-5.08797e-07
-1.82066e-07
-4.73452e-07
-1.85196e-07
-4.37702e-07
-1.86751e-07
-4.01834e-07
-1.86698e-07
-3.6614e-07
-1.85024e-07
-3.30911e-07
-1.81737e-07
-2.96433e-07
-1.76866e-07
-2.62985e-07
-1.70463e-07
-2.30832e-07
-1.62605e-07
-2.00222e-07
-1.53391e-07
-1.71384e-07
-1.42944e-07
-1.44521e-07
-1.31412e-07
-1.19807e-07
-1.18965e-07
-9.73825e-08
-1.058e-07
-7.73522e-08
-9.21379e-08
-5.97804e-08
-7.82247e-08
-4.46884e-08
-6.4334e-08
-3.20518e-08
-5.07676e-08
-2.17981e-08
-3.7858e-08
-1.38058e-08
-2.59719e-08
-7.90278e-09
-1.55136e-08
-3.86645e-09
-6.93043e-09
-1.42447e-09
-7.17226e-10
-2.56833e-10
2.57777e-09
2.30961e-09
-1.71087e-09
4.51948e-09
-6.69958e-09
1.68059e-08
-1.48382e-08
3.12129e-08
-2.59991e-08
4.6873e-08
-4.00468e-08
6.3116e-08
-5.68334e-08
7.94032e-08
-7.61982e-08
9.53123e-08
-9.79673e-08
1.10522e-07
-1.21956e-07
1.24797e-07
-1.47971e-07
1.3797e-07
-1.75812e-07
1.49932e-07
-2.05274e-07
1.60617e-07
-2.36153e-07
1.69993e-07
-2.68243e-07
1.78055e-07
-3.01338e-07
1.84813e-07
-3.35237e-07
1.90293e-07
-3.69741e-07
1.94526e-07
-4.04656e-07
1.97546e-07
-4.39789e-07
1.99387e-07
-4.74952e-07
2.00084e-07
-5.09961e-07
1.99666e-07
-5.44633e-07
1.9816e-07
-5.78791e-07
1.95588e-07
-6.12256e-07
1.91969e-07
-6.44856e-07
1.87317e-07
-6.76417e-07
1.81646e-07
-7.0677e-07
1.74967e-07
-7.35746e-07
1.67291e-07
-7.63181e-07
1.5863e-07
-7.88914e-07
1.48999e-07
-8.12786e-07
1.38416e-07
-8.34644e-07
1.26904e-07
-8.54342e-07
1.14493e-07
-8.7174e-07
1.0122e-07
-8.86704e-07
8.71305e-08
-8.99115e-07
7.22785e-08
-9.0886e-07
5.67287e-08
-9.15842e-07
4.05556e-08
-9.19977e-07
2.38446e-08
-9.21195e-07
6.69162e-09
-9.19446e-07
-1.0797e-08
-9.14698e-07
-2.85047e-08
-9.06937e-07
-4.63055e-08
-8.96173e-07
-6.40649e-08
-8.82437e-07
-8.16408e-08
-8.65783e-07
-9.88849e-08
-8.46289e-07
-1.15645e-07
-8.24057e-07
-1.31764e-07
-7.99214e-07
-1.47086e-07
-7.71911e-07
-1.61456e-07
-7.42324e-07
-1.74721e-07
-7.1065e-07
-1.86736e-07
-6.77111e-07
-1.9736e-07
-6.41945e-07
-2.06468e-07
-6.05413e-07
-2.13944e-07
-5.6779e-07
-2.19689e-07
-5.29366e-07
-2.2362e-07
-4.90441e-07
-2.25676e-07
-4.51323e-07
-2.25817e-07
-4.12324e-07
-2.24024e-07
-3.73755e-07
-2.20306e-07
-3.35925e-07
-2.14695e-07
-2.99134e-07
-2.07254e-07
-2.6367e-07
-1.9807e-07
-2.29803e-07
-1.87259e-07
-1.97782e-07
-1.74965e-07
-1.67832e-07
-1.61362e-07
-1.40146e-07
-1.46651e-07
-1.14884e-07
-1.31062e-07
-9.21691e-08
-1.14853e-07
-7.20814e-08
-9.83124e-08
-5.46588e-08
-8.17566e-08
-3.98922e-08
-6.55342e-08
-2.77246e-08
-5.00257e-08
-1.80496e-08
-3.56469e-08
-1.07119e-08
-2.28512e-08
-5.5079e-09
-1.21344e-08
-2.1878e-09
-4.0373e-09
-4.60346e-10
8.50319e-10
1.84927e-09
-2.00895e-09
6.52842e-09
-7.80176e-09
2.25987e-08
-1.7168e-08
4.05793e-08
-2.99078e-08
5.96128e-08
-4.5823e-08
7.90311e-08
-6.47132e-08
9.82935e-08
-8.63736e-08
1.16973e-07
-1.10594e-07
1.34743e-07
-1.37161e-07
1.51363e-07
-1.65854e-07
1.66664e-07
-1.96454e-07
1.80532e-07
-2.2874e-07
1.92902e-07
-2.6249e-07
2.03743e-07
-2.97485e-07
2.1305e-07
-3.33509e-07
2.20837e-07
-3.70348e-07
2.27133e-07
-4.07794e-07
2.31972e-07
-4.45641e-07
2.35393e-07
-4.83687e-07
2.37433e-07
-5.21734e-07
2.38131e-07
-5.59588e-07
2.37519e-07
-5.97056e-07
2.35628e-07
-6.33949e-07
2.32481e-07
-6.70081e-07
2.281e-07
-7.05266e-07
2.22503e-07
-7.39324e-07
2.15704e-07
-7.72073e-07
2.07716e-07
-8.03337e-07
1.98554e-07
-8.32939e-07
1.88233e-07
-8.6071e-07
1.7677e-07
-8.86482e-07
1.64188e-07
-9.10093e-07
1.50515e-07
-9.31388e-07
1.35788e-07
-9.50218e-07
1.2005e-07
-9.66443e-07
1.03356e-07
-9.79935e-07
8.57705e-08
-9.90576e-07
6.73692e-08
-9.9826e-07
4.824e-08
-1.0029e-06
2.84832e-08
-1.00442e-06
8.21086e-09
-1.00276e-06
-1.24526e-08
-9.97896e-07
-3.33713e-08
-9.89803e-07
-5.43985e-08
-9.7849e-07
-7.53775e-08
-9.63988e-07
-9.6143e-08
-9.4635e-07
-1.16523e-07
-9.25657e-07
-1.36338e-07
-9.02011e-07
-1.55409e-07
-8.75545e-07
-1.73553e-07
-8.46413e-07
-1.90587e-07
-8.14799e-07
-2.06336e-07
-7.80906e-07
-2.20628e-07
-7.44967e-07
-2.333e-07
-7.07231e-07
-2.44204e-07
-6.67971e-07
-2.53204e-07
-6.27478e-07
-2.60182e-07
-5.86055e-07
-2.65042e-07
-5.44022e-07
-2.6771e-07
-5.01705e-07
-2.68134e-07
-4.59435e-07
-2.66294e-07
-4.17545e-07
-2.62195e-07
-3.76365e-07
-2.55875e-07
-3.36219e-07
-2.47401e-07
-2.97416e-07
-2.36873e-07
-2.60249e-07
-2.24425e-07
-2.24992e-07
-2.10222e-07
-1.9189e-07
-1.94464e-07
-1.61158e-07
-1.77383e-07
-1.32979e-07
-1.59242e-07
-1.07494e-07
-1.40338e-07
-8.48046e-08
-1.21002e-07
-6.49667e-08
-1.01595e-07
-4.79896e-08
-8.25112e-08
-3.38344e-08
-6.41809e-08
-2.24131e-08
-4.70682e-08
-1.35893e-08
-3.1675e-08
-7.18001e-09
-1.85437e-08
-2.95923e-09
-8.25806e-09
-6.63255e-10
-1.44565e-09
1.18603e-09
-2.29836e-09
8.82678e-09
-8.87723e-09
2.91776e-08
-1.94492e-08
5.11513e-08
-3.37449e-08
7.39085e-08
-5.15052e-08
9.67914e-08
-7.2477e-08
1.19265e-07
-9.64109e-08
1.40907e-07
-1.2306e-07
1.61391e-07
-1.52177e-07
1.80481e-07
-1.83519e-07
1.98006e-07
-2.16843e-07
2.13856e-07
-2.5191e-07
2.27969e-07
-2.88483e-07
2.40316e-07
-3.2633e-07
2.50897e-07
-3.65223e-07
2.5973e-07
-4.04937e-07
2.66848e-07
-4.45255e-07
2.72289e-07
-4.8596e-07
2.76098e-07
-5.26842e-07
2.78315e-07
-5.67694e-07
2.78983e-07
-6.08312e-07
2.78138e-07
-6.48496e-07
2.75812e-07
-6.88048e-07
2.72033e-07
-7.26773e-07
2.66825e-07
-7.64476e-07
2.60207e-07
-8.00968e-07
2.52195e-07
-8.36058e-07
2.42807e-07
-8.69561e-07
2.32057e-07
-9.01294e-07
2.19965e-07
-9.31076e-07
2.06552e-07
-9.58731e-07
1.91843e-07
-9.84091e-07
1.75875e-07
-1.00699e-06
1.58688e-07
-1.02728e-06
1.40334e-07
-1.0448e-06
1.20877e-07
-1.05942e-06
1.00392e-07
-1.07101e-06
7.89659e-08
-1.07948e-06
5.67011e-08
-1.0847e-06
3.37126e-08
-1.08662e-06
1.01293e-08
-1.08517e-06
-1.39059e-08
-1.0803e-06
-3.82374e-08
-1.07201e-06
-6.26968e-08
-1.06028e-06
-8.71047e-08
-1.04515e-06
-1.11272e-07
-1.02667e-06
-1.35001e-07
-1.00492e-06
-1.58087e-07
-9.80008e-07
-1.80324e-07
-9.5206e-07
-2.01501e-07
-9.21237e-07
-2.2141e-07
-8.87726e-07
-2.39847e-07
-8.51738e-07
-2.56615e-07
-8.13512e-07
-2.71527e-07
-7.73307e-07
-2.84408e-07
-7.31408e-07
-2.95103e-07
-6.88118e-07
-3.03473e-07
-6.43756e-07
-3.09404e-07
-5.98658e-07
-3.12808e-07
-5.53167e-07
-3.13625e-07
-5.07636e-07
-3.11825e-07
-4.62419e-07
-3.07412e-07
-4.17868e-07
-3.00426e-07
-3.74328e-07
-2.9094e-07
-3.32135e-07
-2.79066e-07
-2.91607e-07
-2.64954e-07
-2.53039e-07
-2.4879e-07
-2.16702e-07
-2.30801e-07
-1.82837e-07
-2.11248e-07
-1.51648e-07
-1.90431e-07
-1.23301e-07
-1.68685e-07
-9.79185e-08
-1.46384e-07
-7.55785e-08
-1.23934e-07
-5.63113e-08
-1.01778e-07
-4.00983e-08
-8.03939e-08
-2.68721e-08
-6.02944e-08
-1.65171e-08
-4.203e-08
-8.87201e-09
-2.61888e-08
-3.73388e-09
-1.33962e-08
-8.64525e-10
-4.31499e-09
3.21522e-10
-2.5789e-09
1.14057e-08
-9.92351e-09
3.65222e-08
-2.16743e-08
6.29021e-08
-3.74957e-08
8.97299e-08
-5.70694e-08
1.16365e-07
-8.00904e-08
1.42286e-07
-1.06265e-07
1.67081e-07
-1.35307e-07
1.90434e-07
-1.66939e-07
2.12113e-07
-2.00891e-07
2.31957e-07
-2.36897e-07
2.49862e-07
-2.74699e-07
2.65771e-07
-3.14045e-07
2.79662e-07
-3.54689e-07
2.91541e-07
-3.96392e-07
3.01433e-07
-4.38919e-07
3.09375e-07
-4.82042e-07
3.15412e-07
-5.25538e-07
3.19593e-07
-5.69186e-07
3.21964e-07
-6.12774e-07
3.2257e-07
-6.56088e-07
3.21452e-07
-6.98922e-07
3.18646e-07
-7.41069e-07
3.14181e-07
-7.82327e-07
3.08083e-07
-8.22494e-07
3.00374e-07
-8.61372e-07
2.91073e-07
-8.98764e-07
2.80199e-07
-9.34477e-07
2.6777e-07
-9.68318e-07
2.53807e-07
-1.0001e-06
2.38335e-07
-1.02964e-06
2.21385e-07
-1.05677e-06
2.02997e-07
-1.0813e-06
1.83219e-07
-1.10307e-06
1.62112e-07
-1.12194e-06
1.39746e-07
-1.13776e-06
1.16208e-07
-1.15039e-06
9.15971e-08
-1.15972e-06
6.60293e-08
-1.16564e-06
3.96349e-08
-1.16807e-06
1.25597e-08
-1.16694e-06
-1.50346e-08
-1.16221e-06
-4.29722e-08
-1.15384e-06
-7.10628e-08
-1.14184e-06
-9.91037e-08
-1.12623e-06
-1.26881e-07
-1.10706e-06
-1.54171e-07
-1.08441e-06
-1.80743e-07
-1.05837e-06
-2.06362e-07
-1.02908e-06
-2.3079e-07
-9.96701e-07
-2.53789e-07
-9.61419e-07
-2.75129e-07
-9.23452e-07
-2.94583e-07
-8.83042e-07
-3.11937e-07
-8.40459e-07
-3.26992e-07
-7.95996e-07
-3.39566e-07
-7.49967e-07
-3.49501e-07
-7.02708e-07
-3.56663e-07
-6.54569e-07
-3.60948e-07
-6.05912e-07
-3.62282e-07
-5.57109e-07
-3.60627e-07
-5.08537e-07
-3.55985e-07
-4.60571e-07
-3.48392e-07
-4.13581e-07
-3.3793e-07
-3.67927e-07
-3.2472e-07
-3.23954e-07
-3.08927e-07
-2.81984e-07
-2.9076e-07
-2.42315e-07
-2.70469e-07
-2.05214e-07
-2.48349e-07
-1.70912e-07
-2.24733e-07
-1.39599e-07
-1.99998e-07
-1.11425e-07
-1.74559e-07
-8.6491e-08
-1.48868e-07
-6.4851e-08
-1.23418e-07
-4.65092e-08
-9.87357e-08
-3.14203e-08
-7.53832e-08
-1.94908e-08
-5.39595e-08
-1.05813e-08
-3.50983e-08
-4.51094e-09
-1.94665e-08
-1.06422e-09
-7.7617e-09
-7.42686e-10
-2.85051e-09
1.42562e-08
-1.09391e-08
4.46108e-08
-2.38383e-08
7.58014e-08
-4.11497e-08
1.07041e-07
-6.24978e-08
1.37713e-07
-8.75272e-08
1.67316e-07
-1.159e-07
1.95454e-07
-1.47292e-07
2.21826e-07
-1.81395e-07
2.46215e-07
-2.17909e-07
2.68471e-07
-2.56548e-07
2.88501e-07
-2.97033e-07
3.06257e-07
-3.39099e-07
3.21727e-07
-3.82484e-07
3.34926e-07
-4.26937e-07
3.45887e-07
-4.72216e-07
3.54654e-07
-5.18082e-07
3.61278e-07
-5.64304e-07
3.65815e-07
-6.10656e-07
3.68316e-07
-6.56916e-07
3.6883e-07
-7.02866e-07
3.67402e-07
-7.48291e-07
3.64071e-07
-7.9298e-07
3.58869e-07
-8.36723e-07
3.51825e-07
-8.79312e-07
3.42963e-07
-9.20542e-07
3.32304e-07
-9.60211e-07
3.19867e-07
-9.98116e-07
3.05675e-07
-1.03406e-06
2.89751e-07
-1.06785e-06
2.72124e-07
-1.09929e-06
2.52829e-07
-1.12821e-06
2.31911e-07
-1.15441e-06
2.09425e-07
-1.17774e-06
1.85437e-07
-1.19802e-06
1.6003e-07
-1.21512e-06
1.33299e-07
-1.22888e-06
1.05356e-07
-1.23918e-06
7.63297e-08
-1.24591e-06
4.63662e-08
-1.24898e-06
1.56283e-08
-1.24831e-06
-1.57036e-08
-1.24385e-06
-4.74331e-08
-1.23556e-06
-7.93479e-08
-1.22344e-06
-1.11222e-07
-1.20751e-06
-1.42815e-07
-1.1878e-06
-1.73878e-07
-1.16439e-06
-2.04153e-07
-1.13738e-06
-2.33374e-07
-1.10689e-06
-2.61276e-07
-1.07309e-06
-2.87591e-07
-1.03616e-06
-3.12056e-07
-9.96329e-07
-3.34417e-07
-9.53835e-07
-3.54431e-07
-9.08956e-07
-3.71871e-07
-8.61994e-07
-3.86528e-07
-8.13276e-07
-3.98219e-07
-7.63149e-07
-4.0679e-07
-7.11979e-07
-4.12117e-07
-6.60148e-07
-4.14113e-07
-6.08048e-07
-4.12728e-07
-5.56077e-07
-4.07956e-07
-5.04635e-07
-3.99834e-07
-4.54119e-07
-3.88446e-07
-4.04916e-07
-3.73923e-07
-3.57398e-07
-3.56445e-07
-3.11918e-07
-3.3624e-07
-2.68804e-07
-3.13584e-07
-2.2835e-07
-2.88802e-07
-1.90817e-07
-2.62265e-07
-1.56426e-07
-2.34389e-07
-1.25352e-07
-2.05632e-07
-9.7725e-08
-1.76496e-07
-7.36236e-08
-1.4752e-07
-5.30775e-08
-1.19282e-07
-3.60651e-08
-9.23956e-08
-2.25155e-08
-6.7509e-08
-1.23113e-08
-4.53025e-08
-5.29249e-09
-2.64853e-08
-1.26317e-09
-1.1791e-08
-2.00584e-09
-3.11312e-09
1.73693e-08
-1.19228e-08
5.34204e-08
-2.59375e-08
8.98162e-08
-4.46988e-08
1.25803e-07
-6.77766e-08
1.60791e-07
-9.47666e-08
1.94306e-07
-1.25287e-07
2.25974e-07
-1.58979e-07
2.55517e-07
-1.95498e-07
2.82735e-07
-2.34521e-07
3.07494e-07
-2.75737e-07
3.29717e-07
-3.1885e-07
3.4937e-07
-3.63575e-07
3.66453e-07
-4.09641e-07
3.80992e-07
-4.56785e-07
3.93031e-07
-5.04754e-07
4.02622e-07
-5.53301e-07
4.09826e-07
-6.02189e-07
4.14703e-07
-6.51184e-07
4.17311e-07
-7.00059e-07
4.17705e-07
-7.48589e-07
4.15933e-07
-7.96556e-07
4.12037e-07
-8.43741e-07
4.06054e-07
-8.89929e-07
3.98014e-07
-9.34908e-07
3.87942e-07
-9.78467e-07
3.75862e-07
-1.0204e-06
3.61797e-07
-1.06049e-06
3.45769e-07
-1.09854e-06
3.27805e-07
-1.13436e-06
3.07938e-07
-1.16773e-06
2.86206e-07
-1.19848e-06
2.6266e-07
-1.22642e-06
2.3736e-07
-1.25136e-06
2.10381e-07
-1.27314e-06
1.81812e-07
-1.2916e-06
1.5176e-07
-1.3066e-06
1.20349e-07
-1.31799e-06
8.77207e-08
-1.32566e-06
5.40356e-08
-1.3295e-06
1.9474e-08
-1.32944e-06
-1.57656e-08
-1.32541e-06
-5.1466e-08
-1.31736e-06
-8.73929e-08
-1.30529e-06
-1.23296e-07
-1.28919e-06
-1.58911e-07
-1.26911e-06
-1.93959e-07
-1.24511e-06
-2.28156e-07
-1.21728e-06
-2.61206e-07
-1.18574e-06
-2.92811e-07
-1.15066e-06
-3.22675e-07