/*--------------------------------*- C++ -*----------------------------------*\
  =========                 |
  \\      /  F ield         | OpenFOAM: The Open Source CFD Toolbox
   \\    /   O peration     | Website:  https://openfoam.org
    \\  /    A nd           | Version:  7
     \\/     M anipulation  |
\*---------------------------------------------------------------------------*/
FoamFile
{
    version     2.0;
    format      ascii;
    class       volVectorField;
    location    "2.15";
    object      U;
}
// * * * * * * * * * * * * * * * * * * * * * * * * * * * * * * * * * * * * * //

dimensions      [0 1 -1 0 0 0 0];

internalField   nonuniform List<vector> 
6400
(
(8.50262e-06 -8.9449e-06 0)
(3.38754e-05 -1.6215e-05 0)
(6.4887e-05 -1.48335e-05 0)
(8.41386e-05 -9.03237e-06 0)
(8.31767e-05 -1.48336e-06 0)
(5.92674e-05 6.4731e-06 0)
(1.20299e-05 1.4164e-05 0)
(-5.76857e-05 2.12829e-05 0)
(-0.00014834 2.76998e-05 0)
(-0.000258037 3.33769e-05 0)
(-0.000384741 3.83253e-05 0)
(-0.000526391 4.25803e-05 0)
(-0.000680985 4.61889e-05 0)
(-0.000846613 4.92034e-05 0)
(-0.00102148 5.16768e-05 0)
(-0.00120391 5.36595e-05 0)
(-0.00139237 5.51972e-05 0)
(-0.00158541 5.63303e-05 0)
(-0.0017817 5.70936e-05 0)
(-0.00198002 5.75161e-05 0)
(-0.00217918 5.76206e-05 0)
(-0.00237809 5.74243e-05 0)
(-0.00257569 5.69388e-05 0)
(-0.00277095 5.6171e-05 0)
(-0.00296285 5.51236e-05 0)
(-0.0031504 5.37964e-05 0)
(-0.00333259 5.21868e-05 0)
(-0.00350842 5.02899e-05 0)
(-0.00367687 4.81001e-05 0)
(-0.00383692 4.56113e-05 0)
(-0.00398754 4.28182e-05 0)
(-0.00412769 3.97173e-05 0)
(-0.00425633 3.6307e-05 0)
(-0.00437243 3.25883e-05 0)
(-0.00447499 2.85655e-05 0)
(-0.00456303 2.42472e-05 0)
(-0.00463562 1.96461e-05 0)
(-0.00469189 1.47799e-05 0)
(-0.00473103 9.67152e-06 0)
(-0.00475234 4.34887e-06 0)
(-0.00475522 -1.15456e-06 0)
(-0.00473918 -6.79989e-06 0)
(-0.0047039 -1.2543e-05 0)
(-0.00464918 -1.83347e-05 0)
(-0.00457502 -2.41217e-05 0)
(-0.00448157 -2.98466e-05 0)
(-0.00436921 -3.54486e-05 0)
(-0.00423849 -4.08646e-05 0)
(-0.00409017 -4.60297e-05 0)
(-0.00392523 -5.08787e-05 0)
(-0.00374484 -5.53471e-05 0)
(-0.00355039 -5.9372e-05 0)
(-0.00334345 -6.28937e-05 0)
(-0.00312578 -6.58565e-05 0)
(-0.00289929 -6.821e-05 0)
(-0.00266606 -6.99106e-05 0)
(-0.00242828 -7.09222e-05 0)
(-0.00218823 -7.1217e-05 0)
(-0.00194828 -7.07765e-05 0)
(-0.00171084 -6.95917e-05 0)
(-0.0014783 -6.76637e-05 0)
(-0.00125306 -6.50043e-05 0)
(-0.00103744 -6.16357e-05 0)
(-0.000833665 -5.75901e-05 0)
(-0.000643853 -5.29095e-05 0)
(-0.000469947 -4.76455e-05 0)
(-0.000313703 -4.18592e-05 0)
(-0.000176646 -3.56214e-05 0)
(-6.0044e-05 -2.90129e-05 0)
(3.51352e-05 -2.21268e-05 0)
(0.00010827 -1.50679e-05 0)
(0.000159144 -7.96517e-06 0)
(0.000188022 -9.80978e-07 0)
(0.000195774 5.66595e-06 0)
(0.000184061 1.16608e-05 0)
(0.000155627 1.65198e-05 0)
(0.000114682 1.94857e-05 0)
(6.76457e-05 1.9325e-05 0)
(2.5349e-05 1.41931e-05 0)
(3.55991e-06 3.5744e-06 0)
(1.60648e-05 -3.46179e-05 0)
(5.49529e-05 -5.5217e-05 0)
(8.99141e-05 -4.22648e-05 0)
(9.2408e-05 -1.05339e-05 0)
(4.63834e-05 3.0316e-05 0)
(-5.51691e-05 7.44836e-05 0)
(-0.000214476 0.000118553 0)
(-0.000430684 0.000160562 0)
(-0.000700977 0.000199435 0)
(-0.00102134 0.000234632 0)
(-0.0013871 0.000265943 0)
(-0.00179331 0.000293358 0)
(-0.00223495 0.000316986 0)
(-0.0027071 0.000337009 0)
(-0.00320502 0.000353642 0)
(-0.0037242 0.000367113 0)
(-0.00426039 0.000377643 0)
(-0.00480959 0.000385439 0)
(-0.00536802 0.000390685 0)
(-0.00593214 0.00039354 0)
(-0.00649857 0.000394133 0)
(-0.00706408 0.000392566 0)
(-0.00762556 0.000388913 0)
(-0.00818001 0.000383225 0)
(-0.00872445 0.000375531 0)
(-0.00925596 0.000365842 0)
(-0.00977163 0.000354156 0)
(-0.0102686 0.000340463 0)
(-0.0107438 0.000324747 0)
(-0.0111945 0.000306995 0)
(-0.0116177 0.000287197 0)
(-0.0120105 0.000265353 0)
(-0.0123701 0.000241477 0)
(-0.0126936 0.000215602 0)
(-0.0129782 0.000187778 0)
(-0.0132213 0.000158085 0)
(-0.0134205 0.000126627 0)
(-0.0135733 9.35362e-05 0)
(-0.0136778 5.89786e-05 0)
(-0.013732 2.31503e-05 0)
(-0.0137345 -1.37204e-05 0)
(-0.013684 -5.13735e-05 0)
(-0.0135799 -8.95187e-05 0)
(-0.0134216 -0.000127837 0)
(-0.0132093 -0.000165985 0)
(-0.0129437 -0.000203596 0)
(-0.0126257 -0.000240286 0)
(-0.0122571 -0.000275659 0)
(-0.0118401 -0.000309311 0)
(-0.0113774 -0.000340837 0)
(-0.0108722 -0.000369839 0)
(-0.0103285 -0.000395933 0)
(-0.00975052 -0.000418751 0)
(-0.0091431 -0.000437956 0)
(-0.00851147 -0.000453245 0)
(-0.00786127 -0.000464353 0)
(-0.00719843 -0.000471064 0)
(-0.00652915 -0.000473215 0)
(-0.00585981 -0.0004707 0)
(-0.00519689 -0.000463472 0)
(-0.00454686 -0.00045155 0)
(-0.00391614 -0.000435017 0)
(-0.00331097 -0.000414022 0)
(-0.00273733 -0.000388784 0)
(-0.00220085 -0.000359584 0)
(-0.00170671 -0.00032677 0)
(-0.00125955 -0.000290759 0)
(-0.000863379 -0.000252034 0)
(-0.000521445 -0.000211155 0)
(-0.000236148 -0.000168766 0)
(-8.90217e-06 -0.000125613 0)
(0.000160033 -8.25823e-05 0)
(0.000271752 -4.07505e-05 0)
(0.000328983 -1.47959e-06 0)
(0.000336471 3.34459e-05 0)
(0.000301478 6.16074e-05 0)
(0.000234268 7.96828e-05 0)
(0.000148798 8.30844e-05 0)
(6.58277e-05 6.5961e-05 0)
(1.40762e-05 2.52648e-05 0)
(1.50365e-05 -6.56335e-05 0)
(4.27449e-05 -9.02946e-05 0)
(4.71406e-05 -4.67373e-05 0)
(-2.50331e-06 3.71139e-05 0)
(-0.000124496 0.000142662 0)
(-0.000327853 0.000257437 0)
(-0.000615926 0.000373335 0)
(-0.000988042 0.000485229 0)
(-0.00144073 0.000590014 0)
(-0.00196867 0.000685916 0)
(-0.00256544 0.000772047 0)
(-0.003224 0.000848099 0)
(-0.00393708 0.000914137 0)
(-0.0046974 0.00097046 0)
(-0.00549781 0.0010175 0)
(-0.00633144 0.00105576 0)
(-0.00719171 0.00108576 0)
(-0.00807234 0.00110798 0)
(-0.0089674 0.00112289 0)
(-0.00987119 0.00113087 0)
(-0.0107783 0.00113228 0)
(-0.0116836 0.00112736 0)
(-0.0125819 0.00111634 0)
(-0.0134684 0.00109934 0)
(-0.0143382 0.00107647 0)
(-0.0151867 0.00104778 0)
(-0.0160091 0.00101327 0)
(-0.0168007 0.000972959 0)
(-0.0175569 0.000926821 0)
(-0.0182729 0.000874852 0)
(-0.0189443 0.000817059 0)
(-0.0195663 0.000753478 0)
(-0.0201346 0.000684182 0)
(-0.0206446 0.000609295 0)
(-0.0210921 0.000528998 0)
(-0.0214731 0.00044354 0)
(-0.0217837 0.000353241 0)
(-0.0220204 0.000258503 0)
(-0.0221801 0.000159809 0)
(-0.02226 5.77288e-05 0)
(-0.0222579 -4.70842e-05 0)
(-0.0221721 -0.000153892 0)
(-0.0220015 -0.000261878 0)
(-0.0217457 -0.00037015 0)
(-0.021405 -0.000477751 0)
(-0.0209805 -0.000583667 0)
(-0.020474 -0.000686838 0)
(-0.0198883 -0.000786176 0)
(-0.0192267 -0.000880575 0)
(-0.0184938 -0.000968931 0)
(-0.0176946 -0.00105016 0)
(-0.0168351 -0.00112322 0)
(-0.0159222 -0.0011871 0)
(-0.0149632 -0.00124092 0)
(-0.0139663 -0.00128383 0)
(-0.0129401 -0.00131513 0)
(-0.0118939 -0.00133425 0)
(-0.0108371 -0.00134075 0)
(-0.00977962 -0.00133435 0)
(-0.00873133 -0.00131494 0)
(-0.00770221 -0.00128258 0)
(-0.00670209 -0.00123751 0)
(-0.00574052 -0.00118017 0)
(-0.00482667 -0.00111116 0)
(-0.00396913 -0.00103128 0)
(-0.0031758 -0.000941539 0)
(-0.00245373 -0.000843103 0)
(-0.00180896 -0.000737358 0)
(-0.00124637 -0.000625903 0)
(-0.000769475 -0.00051058 0)
(-0.000380278 -0.00039352 0)
(-7.89857e-05 -0.000277221 0)
(0.000136237 -0.000164661 0)
(0.000269617 -5.94705e-05 0)
(0.000328209 3.38228e-05 0)
(0.000322391 0.000109479 0)
(0.000266216 0.000160207 0)
(0.000177836 0.000176893 0)
(8.32453e-05 0.000148927 0)
(1.91746e-05 6.73401e-05 0)
(9.47633e-06 -8.5385e-05 0)
(1.12591e-05 -9.29968e-05 0)
(-3.73045e-05 2.97478e-06 0)
(-0.000163168 0.000161801 0)
(-0.000383552 0.000356008 0)
(-0.000707686 0.000566198 0)
(-0.00113898 0.000779021 0)
(-0.0016765 0.0009856 0)
(-0.00231614 0.00118024 0)
(-0.00305159 0.00135945 0)
(-0.00387511 0.00152132 0)
(-0.00477811 0.00166499 0)
(-0.00575155 0.00179031 0)
(-0.00678627 0.00189762 0)
(-0.00787318 0.00198754 0)
(-0.00900344 0.00206084 0)
(-0.0101685 0.00211835 0)
(-0.01136 0.00216092 0)
(-0.0125702 0.00218931 0)
(-0.0137915 0.00220422 0)
(-0.0150165 0.00220625 0)
(-0.0162383 0.00219588 0)
(-0.0174501 0.00217348 0)
(-0.0186451 0.00213933 0)
(-0.0198168 0.00209362 0)
(-0.0209588 0.00203647 0)
(-0.0220647 0.00196793 0)
(-0.0231282 0.00188803 0)
(-0.0241429 0.0017968 0)
(-0.0251027 0.00169425 0)
(-0.0260014 0.00158045 0)
(-0.0268329 0.00145551 0)
(-0.0275911 0.00131962 0)
(-0.0282704 0.00117306 0)
(-0.028865 0.00101622 0)
(-0.0293698 0.000849627 0)
(-0.0297798 0.000673928 0)
(-0.0300904 0.000489925 0)
(-0.0302977 0.000298574 0)
(-0.0303981 0.000100986 0)
(-0.0303889 -0.000101572 0)
(-0.0302681 -0.000307677 0)
(-0.0300343 -0.000515764 0)
(-0.0296872 -0.000724132 0)
(-0.0292274 -0.000930962 0)
(-0.0286565 -0.00113433 0)
(-0.0279769 -0.00133225 0)
(-0.0271924 -0.00152265 0)
(-0.0263076 -0.00170347 0)
(-0.0253284 -0.00187264 0)
(-0.0242616 -0.00202812 0)
(-0.0231152 -0.00216796 0)
(-0.0218978 -0.00229032 0)
(-0.0206194 -0.00239348 0)
(-0.0192906 -0.00247593 0)
(-0.0179226 -0.00253636 0)
(-0.0165274 -0.00257368 0)
(-0.0151175 -0.00258711 0)
(-0.0137055 -0.00257612 0)
(-0.0123044 -0.00254053 0)
(-0.0109272 -0.00248046 0)
(-0.00958649 -0.0023964 0)
(-0.00829479 -0.00228917 0)
(-0.00706395 -0.00215994 0)
(-0.00590509 -0.00201025 0)
(-0.00482845 -0.00184201 0)
(-0.00384312 -0.00165748 0)
(-0.0029569 -0.00145933 0)
(-0.00217604 -0.00125062 0)
(-0.00150504 -0.00103487 0)
(-0.000946415 -0.000816162 0)
(-0.000500425 -0.000599188 0)
(-0.000164755 -0.000389467 0)
(6.58173e-05 -0.000193553 0)
(0.000199825 -1.93472e-05 0)
(0.000249562 0.000123529 0)
(0.000231307 0.000223363 0)
(0.000165645 0.000266123 0)
(8.14577e-05 0.000235668 0)
(1.9545e-05 0.000114522 0)
(1.97276e-06 -8.50015e-05 0)
(-3.04856e-05 -4.61936e-05 0)
(-0.000146576 0.000127032 0)
(-0.000365278 0.000383398 0)
(-0.000700311 0.000687559 0)
(-0.00115971 0.00101373 0)
(-0.00174597 0.00134352 0)
(-0.00245728 0.00166422 0)
(-0.00328868 0.00196735 0)
(-0.00423288 0.00224751 0)
(-0.005281 0.00250151 0)
(-0.00642317 0.00272775 0)
(-0.00764891 0.00292574 0)
(-0.00894754 0.00309574 0)
(-0.0103084 0.00323848 0)
(-0.0117208 0.00335498 0)
(-0.0131747 0.00344638 0)
(-0.0146601 0.00351385 0)
(-0.0161673 0.00355851 0)
(-0.0176871 0.00358138 0)
(-0.0192106 0.00358332 0)
(-0.020729 0.00356506 0)
(-0.0222339 0.00352718 0)
(-0.023717 0.00347012 0)
(-0.0251702 0.00339419 0)
(-0.0265854 0.00329958 0)
(-0.0279548 0.00318644 0)
(-0.0292705 0.00305484 0)
(-0.0305248 0.00290488 0)
(-0.0317099 0.00273664 0)
(-0.0328182 0.00255028 0)
(-0.0338424 0.00234605 0)
(-0.0347751 0.00212431 0)
(-0.0356093 0.00188558 0)
(-0.0363383 0.00163053 0)
(-0.0369557 0.00136006 0)
(-0.0374556 0.00107526 0)
(-0.0378326 0.000777451 0)
(-0.038082 0.000468201 0)
(-0.0381997 0.000149312 0)
(-0.0381826 -0.000177167 0)
(-0.0380282 -0.000508958 0)
(-0.0377353 -0.000843558 0)
(-0.0373036 -0.00117826 0)
(-0.0367338 -0.00151018 0)
(-0.0360281 -0.00183627 0)
(-0.0351896 -0.00215339 0)
(-0.0342229 -0.00245831 0)
(-0.0331338 -0.00274776 0)
(-0.0319294 -0.00301849 0)
(-0.0306179 -0.00326733 0)
(-0.029209 -0.00349122 0)
(-0.0277134 -0.00368726 0)
(-0.0261428 -0.00385281 0)
(-0.02451 -0.00398548 0)
(-0.0228286 -0.00408322 0)
(-0.021113 -0.00414438 0)
(-0.019378 -0.00416771 0)
(-0.0176391 -0.00415242 0)
(-0.0159115 -0.00409822 0)
(-0.0142109 -0.00400534 0)
(-0.0125526 -0.00387454 0)
(-0.0109513 -0.00370713 0)
(-0.00942141 -0.00350501 0)
(-0.00797621 -0.00327062 0)
(-0.00662797 -0.00300699 0)
(-0.00538759 -0.00271775 0)
(-0.00426442 -0.00240712 0)
(-0.00326597 -0.00208 0)
(-0.00239768 -0.00174196 0)
(-0.00166262 -0.00139942 0)
(-0.00106127 -0.00105969 0)
(-0.000591157 -0.000731241 0)
(-0.000246559 -0.000423937 0)
(-1.81538e-05 -0.000149364 0)
(0.000107358 7.87608e-05 0)
(0.000147421 0.000244169 0)
(0.000123933 0.00032776 0)
(6.68097e-05 0.000307453 0)
(1.71422e-05 0.000156837 0)
(-6.22964e-06 -6.09492e-05 0)
(-7.72724e-05 5.90828e-05 0)
(-0.000269736 0.000337503 0)
(-0.000592178 0.000715244 0)
(-0.00105314 0.00115049 0)
(-0.00165838 0.00161197 0)
(-0.00240859 0.00207672 0)
(-0.00330051 0.00252846 0)
(-0.00432796 0.002956 0)
(-0.00548254 0.00335195 0)
(-0.00675423 0.00371178 0)
(-0.00813197 0.00403306 0)
(-0.00960406 0.00431483 0)
(-0.0111585 0.00455721 0)
(-0.0127832 0.00476097 0)
(-0.0144662 0.00492733 0)
(-0.0161959 0.0050577 0)
(-0.0179608 0.00515359 0)
(-0.0197498 0.00521645 0)
(-0.0215521 0.00524759 0)
(-0.0233573 0.0052482 0)
(-0.0251552 0.00521926 0)
(-0.0269359 0.00516156 0)
(-0.0286896 0.0050757 0)
(-0.0304067 0.00496215 0)
(-0.0320778 0.00482122 0)
(-0.0336936 0.00465314 0)
(-0.0352449 0.00445809 0)
(-0.0367224 0.00423624 0)
(-0.0381173 0.0039878 0)
(-0.0394207 0.00371307 0)
(-0.0406238 0.00341249 0)
(-0.0417183 0.00308665 0)
(-0.0426961 0.00273637 0)
(-0.0435493 0.00236271 0)
(-0.0442707 0.00196702 0)
(-0.0448536 0.00155094 0)
(-0.0452918 0.00111643 0)
(-0.0455799 0.000665792 0)
(-0.0457135 0.000201662 0)
(-0.045689 -0.000272989 0)
(-0.0455038 -0.000754864 0)
(-0.0451566 -0.00124036 0)
(-0.0446471 -0.00172559 0)
(-0.0439764 -0.00220642 0)
(-0.0431471 -0.00267852 0)
(-0.0421628 -0.00313738 0)
(-0.0410291 -0.00357843 0)
(-0.0397525 -0.00399702 0)
(-0.0383414 -0.00438854 0)
(-0.0368053 -0.0047485 0)
(-0.0351552 -0.00507256 0)
(-0.0334034 -0.00535664 0)
(-0.0315635 -0.00559698 0)
(-0.0296501 -0.00579021 0)
(-0.0276788 -0.00593346 0)
(-0.025666 -0.00602437 0)
(-0.0236289 -0.00606118 0)
(-0.0215849 -0.00604279 0)
(-0.0195518 -0.00596881 0)
(-0.0175473 -0.00583955 0)
(-0.0155889 -0.00565613 0)
(-0.0136938 -0.00542043 0)
(-0.0118782 -0.00513515 0)
(-0.0101575 -0.0048038 0)
(-0.00854579 -0.00443072 0)
(-0.00705563 -0.00402111 0)
(-0.0056978 -0.00358101 0)
(-0.00448102 -0.00311741 0)
(-0.0034117 -0.00263825 0)
(-0.0024936 -0.00215256 0)
(-0.00172761 -0.00167062 0)
(-0.00111142 -0.00120412 0)
(-0.000639249 -0.000766471 0)
(-0.000301556 -0.000373116 0)
(-8.47251e-05 -4.19746e-05 0)
(2.90805e-05 0.000206106 0)
(6.22022e-05 0.000346975 0)
(4.40879e-05 0.000352711 0)
(1.32465e-05 0.000188914 0)
(-1.45426e-05 -1.18059e-05 0)
(-0.000126147 0.000227703 0)
(-0.000399872 0.000641755 0)
(-0.000832675 0.00116602 0)
(-0.00142691 0.00175377 0)
(-0.00218522 0.00236924 0)
(-0.00310581 0.00298566 0)
(-0.00418344 0.00358359 0)
(-0.00541032 0.00414936 0)
(-0.0067767 0.00467373 0)
(-0.00827136 0.00515087 0)
(-0.00988204 0.00557748 0)
(-0.0115959 0.00595214 0)
(-0.0133997 0.00627473 0)
(-0.0152802 0.00654606 0)
(-0.0172243 0.0067675 0)
(-0.0192189 0.0069407 0)
(-0.0212513 0.00706748 0)
(-0.0233092 0.00714959 0)
(-0.0253805 0.00718867 0)
(-0.0274533 0.0071862 0)
(-0.0295161 0.00714341 0)
(-0.0315578 0.00706132 0)
(-0.0335671 0.00694073 0)
(-0.0355333 0.00678224 0)
(-0.0374456 0.00658631 0)
(-0.0392934 0.00635328 0)
(-0.0410661 0.00608347 0)
(-0.0427536 0.00577716 0)
(-0.0443455 0.00543472 0)
(-0.0458318 0.00505664 0)
(-0.0472029 0.00464359 0)
(-0.0484492 0.00419647 0)
(-0.0495617 0.00371647 0)
(-0.0505316 0.00320512 0)
(-0.0513509 0.0026643 0)
(-0.052012 0.00209629 0)
(-0.0525083 0.00150381 0)
(-0.0528337 0.000890009 0)
(-0.0529835 0.000258471 0)
(-0.0529536 -0.000386773 0)
(-0.0527414 -0.00104127 0)
(-0.0523455 -0.00170018 0)
(-0.0517656 -0.00235827 0)
(-0.0510031 -0.00301003 0)
(-0.050061 -0.00364965 0)
(-0.0489434 -0.00427114 0)
(-0.0476565 -0.00486839 0)
(-0.0462077 -0.00543522 0)
(-0.0446063 -0.00596553 0)
(-0.0428629 -0.00645332 0)
(-0.0409898 -0.00689284 0)
(-0.0390008 -0.00727868 0)
(-0.0369108 -0.00760585 0)
(-0.0347361 -0.0078699 0)
(-0.0324941 -0.00806699 0)
(-0.0302031 -0.008194 0)
(-0.027882 -0.00824859 0)
(-0.0255503 -0.00822931 0)
(-0.0232278 -0.00813561 0)
(-0.0209342 -0.00796795 0)
(-0.0186891 -0.00772778 0)
(-0.0165115 -0.00741762 0)
(-0.0144196 -0.00704108 0)
(-0.0124307 -0.00660284 0)
(-0.0105606 -0.0061087 0)
(-0.00882335 -0.00556558 0)
(-0.00723122 -0.00498158 0)
(-0.00579415 -0.00436596 0)
(-0.00451956 -0.00372927 0)
(-0.00341208 -0.00308341 0)
(-0.00247323 -0.00244179 0)
(-0.00170116 -0.00181953 0)
(-0.00109042 -0.00123374 0)
(-0.000631712 -0.000703811 0)
(-0.000311647 -0.00025188 0)
(-0.000112605 9.67119e-05 0)
(-1.24904e-05 0.000312962 0)
(1.65546e-05 0.000363585 0)
(8.6105e-06 0.000207626 0)
(-2.27116e-05 6.2815e-05 0)
(-0.00017547 0.000461974 0)
(-0.000532709 0.00104387 0)
(-0.00107943 0.00174096 0)
(-0.00181125 0.00250304 0)
(-0.00272712 0.00329099 0)
(-0.00382228 0.004075 0)
(-0.00508899 0.00483305 0)
(-0.00651756 0.00554936 0)
(-0.00809664 0.00621309 0)
(-0.00981362 0.00681722 0)
(-0.011655 0.00735769 0)
(-0.0136069 0.0078326 0)
(-0.0156548 0.00824165 0)
(-0.0177845 0.00858564 0)
(-0.0199816 0.00886606 0)
(-0.0222321 0.00908482 0)
(-0.0245221 0.00924398 0)
(-0.026838 0.00934562 0)
(-0.0291666 0.00939169 0)
(-0.031495 0.00938392 0)
(-0.0338105 0.00932381 0)
(-0.0361005 0.00921261 0)
(-0.0383529 0.00905131 0)
(-0.0405556 0.00884068 0)
(-0.0426967 0.00858132 0)
(-0.0447644 0.00827373 0)
(-0.0467471 0.00791835 0)
(-0.0486334 0.00751563 0)
(-0.050412 0.00706614 0)
(-0.0520719 0.0065706 0)
(-0.0536024 0.00602996 0)
(-0.0549929 0.00544549 0)
(-0.0562336 0.00481882 0)
(-0.057315 0.00415199 0)
(-0.0582282 0.00344752 0)
(-0.0589651 0.00270842 0)
(-0.0595183 0.00193825 0)
(-0.0598815 0.00114111 0)
(-0.0600492 0.000321634 0)
(-0.0600174 -0.000514964 0)
(-0.0597831 -0.00136297 0)
(-0.0593448 -0.00221615 0)
(-0.0587024 -0.00306785 0)
(-0.0578575 -0.003911 0)
(-0.0568131 -0.0047382 0)
(-0.0555741 -0.00554184 0)
(-0.0541469 -0.00631413 0)
(-0.0525398 -0.00704723 0)
(-0.0507628 -0.00773338 0)
(-0.0488275 -0.00836497 0)
(-0.0467473 -0.00893471 0)
(-0.044537 -0.00943572 0)
(-0.0422131 -0.00986168 0)
(-0.0397932 -0.0102069 0)
(-0.0372962 -0.0104665 0)
(-0.0347419 -0.0106366 0)
(-0.0321511 -0.0107141 0)
(-0.0295451 -0.0106971 0)
(-0.0269453 -0.010585 0)
(-0.0243734 -0.0103784 0)
(-0.0218509 -0.0100789 0)
(-0.0193985 -0.00968996 0)
(-0.0170365 -0.00921595 0)
(-0.0147836 -0.0086629 0)
(-0.0126574 -0.00803815 0)
(-0.0106736 -0.00735052 0)
(-0.00884586 -0.00661024 0)
(-0.00718539 -0.00582908 0)
(-0.0057008 -0.00502031 0)
(-0.00439772 -0.00419889 0)
(-0.00327853 -0.00338152 0)
(-0.00234214 -0.00258689 0)
(-0.00158376 -0.00183585 0)
(-0.000994719 -0.00115181 0)
(-0.000562285 -0.000561035 0)
(-0.000269542 -9.32189e-05 0)
(-9.51702e-05 0.000218118 0)
(-1.36405e-05 0.000334962 0)
(3.67473e-06 0.000211228 0)
(-3.06333e-05 0.000162729 0)
(-0.000224348 0.000762566 0)
(-0.00066565 0.0015456 0)
(-0.00132768 0.0024427 0)
(-0.00219911 0.00340144 0)
(-0.00327488 0.00438041 0)
(-0.00454683 0.00534757 0)
(-0.00600446 0.00627893 0)
(-0.00763581 0.00715708 0)
(-0.00942772 0.00796988 0)
(-0.0113661 0.00870936 0)
(-0.0134361 0.00937082 0)
(-0.0156225 0.009952 0)
(-0.01791 0.0104524 0)
(-0.0202831 0.010873 0)
(-0.0227265 0.0112152 0)
(-0.0252251 0.0114812 0)
(-0.0277641 0.0116735 0)
(-0.0303289 0.0117942 0)
(-0.0329052 0.0118458 0)
(-0.035479 0.0118301 0)
(-0.0380365 0.011749 0)
(-0.0405644 0.0116038 0)
(-0.0430492 0.0113959 0)
(-0.0454779 0.0111261 0)
(-0.0478376 0.0107951 0)
(-0.0501153 0.0104038 0)
(-0.0522987 0.00995256 0)
(-0.0543751 0.00944214 0)
(-0.0563323 0.00887331 0)
(-0.0581585 0.00824706 0)
(-0.059842 0.00756468 0)
(-0.0613715 0.00682784 0)
(-0.0627362 0.00603867 0)
(-0.063926 0.00519981 0)
(-0.0649313 0.00431446 0)
(-0.0657433 0.00338645 0)
(-0.0663541 0.00242025 0)
(-0.066757 0.001421 0)
(-0.0669461 0.000394492 0)
(-0.066917 -0.000652806 0)
(-0.0666666 -0.00171379 0)
(-0.0661933 -0.00278078 0)
(-0.0654969 -0.00384552 0)
(-0.064579 -0.00489931 0)
(-0.063443 -0.00593305 0)
(-0.0620939 -0.00693736 0)
(-0.0605387 -0.00790267 0)
(-0.0587862 -0.00881934 0)
(-0.056847 -0.00967784 0)
(-0.0547335 -0.0104688 0)
(-0.05246 -0.0111834 0)
(-0.0500423 -0.0118129 0)
(-0.047498 -0.0123498 0)
(-0.044846 -0.0127869 0)
(-0.0421065 -0.0131184 0)
(-0.0393009 -0.0133391 0)
(-0.0364514 -0.0134455 0)
(-0.0335809 -0.0134353 0)
(-0.0307126 -0.0133074 0)
(-0.0278699 -0.0130625 0)
(-0.025076 -0.0127028 0)
(-0.0223536 -0.0122321 0)
(-0.0197244 -0.0116561 0)
(-0.0172091 -0.010982 0)
(-0.0148269 -0.0102187 0)
(-0.0125951 -0.00937719 0)
(-0.0105288 -0.00846984 0)
(-0.00864083 -0.00751103 0)
(-0.00694093 -0.00651694 0)
(-0.00543597 -0.00550567 0)
(-0.00412943 -0.00449734 0)
(-0.00302123 -0.00351425 0)
(-0.00210753 -0.00258109 0)
(-0.00138061 -0.00172522 0)
(-0.000828753 -0.000976994 0)
(-0.000436097 -0.000370237 0)
(-0.000182482 5.73801e-05 0)
(-4.51367e-05 0.000263757 0)
(-1.31557e-06 0.000198871 0)
(-3.82735e-05 0.000287458 0)
(-0.000272304 0.00112913 0)
(-0.000797132 0.00214717 0)
(-0.00157436 0.00327203 0)
(-0.00258574 0.0044502 0)
(-0.00382201 0.00563888 0)
(-0.00527141 0.0068046 0)
(-0.00692036 0.00792205 0)
(-0.00875447 0.00897267 0)
(-0.0107586 0.0099434 0)
(-0.0129168 0.0108256 0)
(-0.0152131 0.0116142 0)
(-0.0176309 0.0123066 0)
(-0.0201537 0.0129023 0)
(-0.0227651 0.0134022 0)
(-0.0254489 0.0138082 0)
(-0.028189 0.0141225 0)
(-0.0309696 0.0143478 0)
(-0.0337753 0.0144867 0)
(-0.0365909 0.0145418 0)
(-0.0394014 0.0145153 0)
(-0.0421923 0.0144093 0)
(-0.0449491 0.0142253 0)
(-0.0476575 0.0139649 0)
(-0.0503036 0.0136291 0)
(-0.0528734 0.0132188 0)
(-0.0553533 0.0127349 0)
(-0.0577298 0.0121781 0)
(-0.0599896 0.0115494 0)
(-0.0621195 0.0108497 0)
(-0.0641068 0.0100803 0)
(-0.065939 0.00924299 0)
(-0.0676041 0.0083398 0)
(-0.0690906 0.00737341 0)
(-0.0703876 0.00634711 0)
(-0.071485 0.00526486 0)
(-0.0723733 0.00413135 0)
(-0.0730442 0.00295204 0)
(-0.0734903 0.00173317 0)
(-0.0737056 0.000481763 0)
(-0.0736852 -0.000794364 0)
(-0.0734258 -0.00208665 0)
(-0.0729255 -0.00338585 0)
(-0.0721841 -0.00468206 0)
(-0.0712033 -0.00596482 0)
(-0.0699863 -0.00722323 0)
(-0.0685386 -0.00844604 0)
(-0.0668672 -0.00962179 0)
(-0.0649814 -0.010739 0)
(-0.0628924 -0.0117861 0)
(-0.0606131 -0.012752 0)
(-0.0581585 -0.0136259 0)
(-0.0555453 -0.0143977 0)
(-0.0527921 -0.015058 0)
(-0.0499189 -0.0155984 0)
(-0.0469471 -0.0160117 0)
(-0.0438993 -0.0162917 0)
(-0.0407993 -0.0164342 0)
(-0.0376714 -0.016436 0)
(-0.0345405 -0.0162961 0)
(-0.0314315 -0.016015 0)
(-0.0283695 -0.0155954 0)
(-0.0253788 -0.0150417 0)
(-0.022483 -0.0143605 0)
(-0.0197046 -0.0135604 0)
(-0.0170643 -0.0126522 0)
(-0.0145813 -0.0116486 0)
(-0.0122723 -0.0105645 0)
(-0.0101516 -0.00941699 0)
(-0.00823045 -0.00822515 0)
(-0.00651713 -0.00701036 0)
(-0.00501641 -0.00579622 0)
(-0.00372949 -0.00460873 0)
(-0.00265372 -0.00347641 0)
(-0.00178262 -0.00243054 0)
(-0.00110574 -0.00150548 0)
(-0.000608558 -0.00073898 0)
(-0.000272294 -0.000172534 0)
(-7.71243e-05 0.000148228 0)
(-6.23339e-06 0.00017024 0)
(-4.56302e-05 0.000436382 0)
(-0.00031909 0.00156068 0)
(-0.000926217 0.00284772 0)
(-0.00181751 0.00422841 0)
(-0.00296792 0.00564905 0)
(-0.00436397 0.00706627 0)
(-0.00599012 0.00844594 0)
(-0.00782963 0.00976201 0)
(-0.00986545 0.0109953 0)
(-0.0120802 0.0121323 0)
(-0.0144564 0.0131639 0)
(-0.0169763 0.0140849 0)
(-0.0196221 0.0148927 0)
(-0.0223762 0.0155868 0)
(-0.0252213 0.0161682 0)
(-0.0281401 0.0166391 0)
(-0.0311156 0.017002 0)
(-0.0341314 0.0172598 0)
(-0.0371712 0.0174155 0)
(-0.0402188 0.0174719 0)
(-0.0432587 0.0174315 0)
(-0.0462754 0.0172966 0)
(-0.0492536 0.0170691 0)
(-0.0521783 0.0167504 0)
(-0.0550347 0.016342 0)
(-0.057808 0.015845 0)
(-0.0604839 0.0152602 0)
(-0.0630479 0.0145888 0)
(-0.065486 0.0138318 0)
(-0.0677843 0.0129906 0)
(-0.0699293 0.0120666 0)
(-0.0719078 0.0110621 0)
(-0.0737071 0.00997955 0)
(-0.0753149 0.00882228 0)
(-0.0767198 0.00759425 0)
(-0.077911 0.00630021 0)
(-0.0788785 0.00494576 0)
(-0.0796134 0.0035374 0)
(-0.080108 0.00208253 0)
(-0.0803556 0.000589473 0)
(-0.080351 -0.000932561 0)
(-0.0800906 -0.00247349 0)
(-0.0795723 -0.0040224 0)
(-0.0787957 -0.00556768 0)
(-0.0777623 -0.00709705 0)
(-0.0764754 -0.0085977 0)
(-0.0749403 -0.0100564 0)
(-0.0731644 -0.0114598 0)
(-0.071157 -0.0127942 0)
(-0.0689297 -0.0140462 0)
(-0.066496 -0.0152028 0)
(-0.0638714 -0.0162511 0)
(-0.0610733 -0.0171793 0)
(-0.0581211 -0.0179763 0)
(-0.0550357 -0.018632 0)
(-0.0518396 -0.019138 0)
(-0.0485567 -0.019487 0)
(-0.0452121 -0.0196735 0)
(-0.0418315 -0.0196942 0)
(-0.0384414 -0.0195473 0)
(-0.0350683 -0.0192335 0)
(-0.0317391 -0.0187555 0)
(-0.0284797 -0.0181187 0)
(-0.0253157 -0.0173304 0)
(-0.0222713 -0.0164007 0)
(-0.0193691 -0.015342 0)
(-0.0166301 -0.0141692 0)
(-0.0140728 -0.0128996 0)
(-0.0117131 -0.0115529 0)
(-0.00956406 -0.0101514 0)
(-0.0076355 -0.00871968 0)
(-0.00593373 -0.00728494 0)
(-0.00446141 -0.00587688 0)
(-0.00321736 -0.00452789 0)
(-0.00219653 -0.00327318 0)
(-0.00138998 -0.00215097 0)
(-0.000784682 -0.00120283 0)
(-0.000363365 -0.000473765 0)
(-0.000109164 -1.25469e-05 0)
(-1.10225e-05 0.000125315 0)
(-5.27144e-05 0.000608822 0)
(-0.000364585 0.00205591 0)
(-0.00105234 0.00364572 0)
(-0.00205585 0.00531035 0)
(-0.00334347 0.00699661 0)
(-0.00489752 0.0086613 0)
(-0.0066987 0.0102703 0)
(-0.00872695 0.0117974 0)
(-0.0109625 0.0132233 0)
(-0.0133857 0.0145344 0)
(-0.0159772 0.0157217 0)
(-0.0187176 0.0167799 0)
(-0.0215879 0.0177066 0)
(-0.0245693 0.0185015 0)
(-0.0276434 0.0191661 0)
(-0.0307922 0.0197025 0)
(-0.0339978 0.0201139 0)
(-0.0372429 0.0204033 0)
(-0.0405106 0.0205741 0)
(-0.0437841 0.0206294 0)
(-0.0470469 0.0205719 0)
(-0.050283 0.0204042 0)
(-0.0534764 0.0201283 0)
(-0.0566114 0.019746 0)
(-0.0596723 0.0192588 0)
(-0.0626439 0.018668 0)
(-0.065511 0.0179748 0)
(-0.0682584 0.0171803 0)
(-0.0708715 0.0162858 0)
(-0.0733356 0.015293 0)
(-0.0756365 0.0142039 0)
(-0.0777605 0.0130208 0)
(-0.0796941 0.011747 0)
(-0.0814245 0.0103862 0)
(-0.0829395 0.00894326 0)
(-0.0842278 0.00742362 0)
(-0.0852788 0.00583387 0)
(-0.0860832 0.0041816 0)
(-0.0866326 0.00247539 0)
(-0.0869199 0.000724893 0)
(-0.0869395 -0.00105921 0)
(-0.0866873 -0.00286526 0)
(-0.0861609 -0.00468068 0)
(-0.0853596 -0.00649202 0)
(-0.0842845 -0.00828512 0)
(-0.0829389 -0.0100452 0)
(-0.081328 -0.011757 0)
(-0.0794591 -0.013405 0)
(-0.0773417 -0.0149735 0)
(-0.0749874 -0.0164471 0)
(-0.0724101 -0.0178103 0)
(-0.0696257 -0.0190486 0)
(-0.0666521 -0.0201481 0)
(-0.0635094 -0.0210957 0)
(-0.0602195 -0.02188 0)
(-0.0568057 -0.0224906 0)
(-0.0532931 -0.0229193 0)
(-0.0497079 -0.0231595 0)
(-0.0460774 -0.0232068 0)
(-0.0424294 -0.0230593 0)
(-0.0387925 -0.0227174 0)
(-0.0351948 -0.0221841 0)
(-0.0316643 -0.0214651 0)
(-0.0282285 -0.020569 0)
(-0.0249135 -0.0195071 0)
(-0.021744 -0.0182934 0)
(-0.0187427 -0.016945 0)
(-0.0159302 -0.0154815 0)
(-0.0133243 -0.0139257 0)
(-0.0109399 -0.0123027 0)
(-0.00878872 -0.0106407 0)
(-0.00687872 -0.00897027 0)
(-0.0052143 -0.00732503 0)
(-0.00379592 -0.00574121 0)
(-0.00262018 -0.00425792 0)
(-0.00167979 -0.00291724 0)
(-0.000963339 -0.0017644 0)
(-0.0004551 -0.000847791 0)
(-0.000141072 -0.000219043 0)
(-1.56695e-05 6.42089e-05 0)
(-5.95398e-05 0.00080407 0)
(-0.00040873 0.00261325 0)
(-0.00117517 0.0045392 0)
(-0.00228854 0.00651569 0)
(-0.00371086 0.00849067 0)
(-0.00542035 0.0104218 0)
(-0.00739393 0.0122754 0)
(-0.00960825 0.0140258 0)
(-0.0120407 0.0156541 0)
(-0.0146694 0.017147 0)
(-0.017473 0.0184958 0)
(-0.0204304 0.0196956 0)
(-0.0235213 0.0207444 0)
(-0.0267258 0.0216423 0)
(-0.0300244 0.0223911 0)
(-0.0333982 0.0229935 0)
(-0.0368288 0.0234528 0)
(-0.040298 0.0237727 0)
(-0.0437881 0.0239567 0)
(-0.0472818 0.0240083 0)
(-0.050762 0.0239305 0)
(-0.0542121 0.0237261 0)
(-0.0576154 0.0233974 0)
(-0.0609557 0.0229464 0)
(-0.0642167 0.0223746 0)
(-0.0673824 0.0216836 0)
(-0.0704372 0.0208747 0)
(-0.0733652 0.0199494 0)
(-0.0761511 0.0189091 0)
(-0.0787798 0.0177557 0)
(-0.0812364 0.0164916 0)
(-0.0835065 0.0151197 0)
(-0.0855759 0.0136436 0)
(-0.0874315 0.0120678 0)
(-0.0890603 0.0103977 0)
(-0.0904504 0.00863965 0)
(-0.0915908 0.00680129 0)
(-0.0924714 0.00489123 0)
(-0.0930833 0.00291929 0)
(-0.0934189 0.000896481 0)
(-0.0934721 -0.00116504 0)
(-0.0932383 -0.003252 0)
(-0.0927145 -0.00535008 0)
(-0.0918997 -0.00744399 0)
(-0.0907947 -0.00951762 0)
(-0.0894022 -0.0115541 0)
(-0.0877274 -0.0135362 0)
(-0.0857773 -0.015446 0)
(-0.0835613 -0.0172658 0)
(-0.0810911 -0.0189778 0)
(-0.0783806 -0.0205645 0)
(-0.0754461 -0.0220091 0)
(-0.0723059 -0.0232955 0)
(-0.0689806 -0.0244089 0)
(-0.0654926 -0.0253358 0)
(-0.0618665 -0.0260644 0)
(-0.0581281 -0.0265848 0)
(-0.0543051 -0.0268893 0)
(-0.0504259 -0.0269727 0)
(-0.0465201 -0.0268322 0)
(-0.0426176 -0.0264682 0)
(-0.0387486 -0.0258837 0)
(-0.034943 -0.0250849 0)
(-0.0312303 -0.0240813 0)
(-0.0276385 -0.0228853 0)
(-0.0241945 -0.0215129 0)
(-0.0209233 -0.019983 0)
(-0.0178476 -0.018318 0)
(-0.0149872 -0.0165431 0)
(-0.0123592 -0.0146869 0)
(-0.00997719 -0.0127809 0)
(-0.00785129 -0.0108593 0)
(-0.00598773 -0.00895961 0)
(-0.00438884 -0.00712194 0)
(-0.003053 -0.00538933 0)
(-0.00197471 -0.00380773 0)
(-0.00114424 -0.00242599 0)
(-0.000547374 -0.0012958 0)
(-0.000172838 -0.000471567 0)
(-2.01881e-05 -1.29311e-05 0)
(-6.61188e-05 0.00102141 0)
(-0.000451497 0.003231 0)
(-0.00129447 0.00552582 0)
(-0.00251499 0.00784175 0)
(-0.004069 0.0101284 0)
(-0.00593072 0.0123447 0)
(-0.00807338 0.0144582 0)
(-0.0104703 0.0164441 0)
(-0.0130962 0.0182845 0)
(-0.0159267 0.0199666 0)
(-0.0189385 0.0214826 0)
(-0.0221089 0.0228282 0)
(-0.0254163 0.024002 0)
(-0.0288394 0.0250047 0)
(-0.0323579 0.0258386 0)
(-0.035952 0.0265069 0)
(-0.0396025 0.0270136 0)
(-0.0432906 0.0273626 0)
(-0.046998 0.0275579 0)
(-0.0507069 0.0276034 0)
(-0.0543996 0.0275023 0)
(-0.0580589 0.0272576 0)
(-0.0616677 0.0268719 0)
(-0.0652092 0.0263473 0)
(-0.0686666 0.0256856 0)
(-0.0720234 0.0248886 0)
(-0.0752634 0.0239576 0)
(-0.0783704 0.0228943 0)
(-0.0813283 0.0217005 0)
(-0.0841215 0.0203784 0)
(-0.0867346 0.0189306 0)
(-0.0891526 0.0173604 0)
(-0.0913608 0.0156721 0)
(-0.0933454 0.0138707 0)
(-0.095093 0.0119623 0)
(-0.0965909 0.00995421 0)
(-0.0978276 0.00785491 0)
(-0.0987923 0.00567416 0)
(-0.0994756 0.003423 0)
(-0.0998693 0.00111381 0)
(-0.0999665 -0.00123975 0)
(-0.0997622 -0.00362277 0)
(-0.0992527 -0.00601917 0)
(-0.0984365 -0.00841179 0)
(-0.0973138 -0.0107825 0)
(-0.095887 -0.0131124 0)
(-0.0941606 -0.0153819 0)
(-0.0921414 -0.017571 0)
(-0.0898386 -0.0196597 0)
(-0.0872637 -0.0216277 0)
(-0.0844305 -0.0234553 0)
(-0.0813553 -0.0251234 0)
(-0.0780569 -0.0266136 0)
(-0.0745562 -0.027909 0)