/*--------------------------------*- C++ -*----------------------------------*\
  =========                 |
  \\      /  F ield         | OpenFOAM: The Open Source CFD Toolbox
   \\    /   O peration     | Website:  https://openfoam.org
    \\  /    A nd           | Version:  7
     \\/     M anipulation  |
\*---------------------------------------------------------------------------*/
FoamFile
{
    version     2.0;
    format      ascii;
    class       volVectorField;
    location    "2.55";
    object      U;
}
// * * * * * * * * * * * * * * * * * * * * * * * * * * * * * * * * * * * * * //

dimensions      [0 1 -1 0 0 0 0];

internalField   nonuniform List<vector> 
6400
(
(1.08928e-05 -1.04404e-05 0)
(7.10351e-05 -3.71616e-05 0)
(0.000180963 -4.83485e-05 0)
(0.000297222 -4.70369e-05 0)
(0.000395321 -3.90448e-05 0)
(0.000463315 -2.80495e-05 0)
(0.000495557 -1.61206e-05 0)
(0.00049016 -4.33731e-06 0)
(0.000447378 6.81843e-06 0)
(0.00036845 1.72189e-05 0)
(0.000254842 2.69445e-05 0)
(0.000107877 3.61377e-05 0)
(-7.14694e-05 4.50105e-05 0)
(-0.000282669 5.376e-05 0)
(-0.000525595 6.2555e-05 0)
(-0.000800448 7.1528e-05 0)
(-0.00110764 8.07678e-05 0)
(-0.00144769 9.03164e-05 0)
(-0.00182103 0.000100171 0)
(-0.00222794 0.000110286 0)
(-0.00266837 0.00012057 0)
(-0.00314185 0.000130897 0)
(-0.00364735 0.000141104 0)
(-0.00418322 0.000150993 0)
(-0.00474706 0.000160337 0)
(-0.00533567 0.00016888 0)
(-0.005945 0.000176344 0)
(-0.00657009 0.000182431 0)
(-0.00720509 0.00018683 0)
(-0.00784322 0.000189227 0)
(-0.00847683 0.000189308 0)
(-0.00909746 0.000186774 0)
(-0.00969594 0.000181351 0)
(-0.0102625 0.000172803 0)
(-0.010787 0.000160943 0)
(-0.011259 0.000145647 0)
(-0.0116681 0.000126869 0)
(-0.0120041 0.000104652 0)
(-0.0122575 7.91354e-05 0)
(-0.0124194 5.05604e-05 0)
(-0.0124822 1.92927e-05 0)
(-0.0124395 -1.40784e-05 0)
(-0.0122868 -4.91175e-05 0)
(-0.0120214 -8.51075e-05 0)
(-0.0116432 -0.000121251 0)
(-0.0111539 -0.000156696 0)
(-0.0105581 -0.000190551 0)
(-0.00986268 -0.000221908 0)
(-0.00907725 -0.000249881 0)
(-0.00821359 -0.000273639 0)
(-0.00728568 -0.000292446 0)
(-0.0063093 -0.000305696 0)
(-0.00530165 -0.000312947 0)
(-0.0042809 -0.000313946 0)
(-0.00326559 -0.000308649 0)
(-0.00227413 -0.000297224 0)
(-0.00132417 -0.000280049 0)
(-0.000431974 -0.000257722 0)
(0.00038767 -0.000231114 0)
(0.00112238 -0.000200847 0)
(0.00176253 -0.000168034 0)
(0.002301 -0.000133723 0)
(0.0027336 -9.88782e-05 0)
(0.00305895 -6.44364e-05 0)
(0.00327833 -3.12407e-05 0)
(0.00339542 1.12162e-09 0)
(0.00341594 2.87322e-05 0)
(0.00334731 5.45511e-05 0)
(0.00319826 7.71985e-05 0)
(0.00297849 9.65222e-05 0)
(0.00269848 0.000112422 0)
(0.00236942 0.000124765 0)
(0.00200339 0.000133263 0)
(0.0016139 0.000137307 0)
(0.00121671 0.000135741 0)
(0.000831277 0.000126635 0)
(0.000482145 0.000107169 0)
(0.000199566 7.37748e-05 0)
(1.88458e-05 2.48243e-05 0)
(-2.06778e-05 -2.08039e-05 0)
(3.81731e-05 -7.09514e-05 0)
(0.000173887 -0.000172209 0)
(0.000382001 -0.00020767 0)
(0.000586284 -0.000192597 0)
(0.000740989 -0.000146587 0)
(0.000820757 -8.38195e-05 0)
(0.000811007 -1.35029e-05 0)
(0.000704724 5.8853e-05 0)
(0.000499836 0.00013029 0)
(0.00019701 0.000199545 0)
(-0.000202011 0.000266413 0)
(-0.000695276 0.000331289 0)
(-0.00128118 0.000394841 0)
(-0.00195878 0.0004578 0)
(-0.00272773 0.000520807 0)
(-0.00358816 0.000584336 0)
(-0.0045404 0.000648632 0)
(-0.00558473 0.000713696 0)
(-0.00672102 0.000779267 0)
(-0.00794842 0.000844835 0)
(-0.00926503 0.000909652 0)
(-0.0106676 0.000972745 0)
(-0.0121514 0.00103294 0)
(-0.0137097 0.0010889 0)
(-0.0153338 0.00113912 0)
(-0.017013 0.00118199 0)
(-0.0187342 0.0012158 0)
(-0.0204822 0.00123881 0)
(-0.0222393 0.00124928 0)
(-0.0239861 0.00124551 0)
(-0.0257008 0.00122593 0)
(-0.0273603 0.00118911 0)
(-0.02894 0.00113386 0)
(-0.0304143 0.00105929 0)
(-0.0317572 0.000964848 0)
(-0.0329427 0.000850412 0)
(-0.0339455 0.000716311 0)
(-0.0347416 0.000563389 0)
(-0.0353088 0.000393022 0)
(-0.0356276 0.00020712 0)
(-0.0356817 8.17432e-06 0)
(-0.0354586 -0.000200515 0)
(-0.0349501 -0.000415655 0)
(-0.0341531 -0.00063324 0)
(-0.0330695 -0.000848889 0)
(-0.0317072 -0.00105799 0)
(-0.0300795 -0.0012558 0)
(-0.0282053 -0.0014376 0)
(-0.0261094 -0.00159884 0)
(-0.0238213 -0.00173532 0)
(-0.0213756 -0.00184335 0)
(-0.0188104 -0.00191991 0)
(-0.0161671 -0.00196279 0)
(-0.0134893 -0.00197073 0)
(-0.010821 -0.00194348 0)
(-0.00820659 -0.00188185 0)
(-0.00568845 -0.0017877 0)
(-0.00330651 -0.00166392 0)
(-0.00109688 -0.00151441 0)
(0.000909022 -0.00134332 0)
(0.00268546 -0.00115567 0)
(0.0042129 -0.000956968 0)
(0.00547829 -0.000752477 0)
(0.00647509 -0.000547386 0)
(0.00720315 -0.000346541 0)
(0.00766837 -0.000154249 0)
(0.00788203 2.58228e-05 0)
(0.00786017 0.000190693 0)
(0.00762283 0.000338015 0)
(0.00719343 0.000465938 0)
(0.00659834 0.000572863 0)
(0.0058667 0.000657082 0)
(0.00503069 0.000716304 0)
(0.00412627 0.000747075 0)
(0.00319438 0.000744155 0)
(0.0022825 0.000700141 0)
(0.00144508 0.000605877 0)
(0.000741702 0.000452409 0)
(0.000241042 0.000239735 0)
(2.54426e-05 1.9045e-05 0)
(5.02654e-05 -0.000183305 0)
(0.000210614 -0.000381381 0)
(0.000433442 -0.000433025 0)
(0.000626002 -0.000377333 0)
(0.000733573 -0.000251509 0)
(0.00072477 -8.43161e-05 0)
(0.000580173 0.000104161 0)
(0.000289226 0.000300928 0)
(-0.000152511 0.000498469 0)
(-0.00074583 0.0006931 0)
(-0.00148978 0.000883641 0)
(-0.00238285 0.00107047 0)
(-0.00342367 0.00125469 0)
(-0.00461131 0.00143759 0)
(-0.00594529 0.00162034 0)
(-0.00742538 0.00180369 0)
(-0.00905122 0.00198782 0)
(-0.010822 0.00217232 0)
(-0.0127358 0.00235608 0)
(-0.0147894 0.00253735 0)
(-0.0169776 0.00271378 0)
(-0.0192931 0.00288244 0)
(-0.0217258 0.00303992 0)
(-0.0242627 0.00318236 0)
(-0.0268877 0.00330561 0)
(-0.0295816 0.00340524 0)
(-0.0323217 0.00347674 0)
(-0.0350823 0.00351557 0)
(-0.0378344 0.00351734 0)
(-0.0405465 0.00347792 0)
(-0.0431845 0.00339361 0)
(-0.0457126 0.00326129 0)
(-0.0480936 0.00307856 0)
(-0.0502896 0.0028439 0)
(-0.0522629 0.00255679 0)
(-0.0539766 0.00221784 0)
(-0.0553954 0.00182887 0)
(-0.056487 0.00139301 0)
(-0.0572221 0.000914695 0)
(-0.0575759 0.000399657 0)
(-0.0575283 -0.000145074 0)
(-0.0570653 -0.000711058 0)
(-0.0561792 -0.00128902 0)
(-0.0548689 -0.0018687 0)
(-0.0531409 -0.00243911 0)
(-0.0510089 -0.0029888 0)
(-0.0484944 -0.00350616 0)
(-0.0456261 -0.00397977 0)
(-0.04244 -0.00439872 0)
(-0.0389788 -0.00475297 0)
(-0.035291 -0.00503376 0)
(-0.0314302 -0.00523393 0)
(-0.027454 -0.00534822 0)
(-0.0234228 -0.00537359 0)
(-0.0193981 -0.00530935 0)
(-0.0154415 -0.00515727 0)
(-0.0116128 -0.00492162 0)
(-0.00796887 -0.00460905 0)
(-0.00456156 -0.00422838 0)
(-0.00143688 -0.00379015 0)
(0.00136607 -0.00330629 0)
(0.00381641 -0.00278975 0)
(0.00589218 -0.00225386 0)
(0.00757999 -0.00171178 0)
(0.00887552 -0.00117603 0)
(0.00978316 -0.000658125 0)
(0.0103154 -0.000168251 0)
(0.010492 0.000284868 0)
(0.0103396 0.000693908 0)
(0.00989028 0.00105268 0)
(0.00918164 0.00135561 0)
(0.00825606 0.00159706 0)
(0.00716094 0.00177032 0)
(0.00594913 0.00186668 0)
(0.00467988 0.0018745 0)
(0.00341981 0.00177909 0)
(0.00224202 0.00156433 0)
(0.00122317 0.00121737 0)
(0.000456938 0.00074176 0)
(7.53476e-05 0.000201791 0)
(4.91903e-05 -0.000302244 0)
(0.000191487 -0.000583449 0)
(0.000361765 -0.000622958 0)
(0.000463421 -0.00049125 0)
(0.000439783 -0.000245644 0)
(0.000258033 6.95258e-05 0)
(-0.0001027 0.000422565 0)
(-0.000654452 0.000792449 0)
(-0.001403 0.00116654 0)
(-0.0023504 0.00153827 0)
(-0.00349682 0.00190512 0)
(-0.00484158 0.00226711 0)
(-0.00638392 0.0026255 0)
(-0.00812317 0.0029819 0)
(-0.0100587 0.00333764 0)
(-0.0121896 0.00369335 0)
(-0.0145144 0.00404866 0)
(-0.0170304 0.00440205 0)
(-0.019733 0.00475087 0)
(-0.0226155 0.0050913 0)
(-0.0256683 0.00541841 0)
(-0.0288787 0.00572634 0)
(-0.0322303 0.00600836 0)
(-0.0357028 0.00625711 0)
(-0.0392719 0.00646469 0)
(-0.0429092 0.00662298 0)
(-0.0465824 0.00672377 0)
(-0.0502555 0.00675907 0)
(-0.053889 0.00672131 0)
(-0.0574406 0.00660365 0)
(-0.0608658 0.00640023 0)
(-0.0641182 0.00610641 0)
(-0.0671512 0.00571903 0)
(-0.069918 0.00523663 0)
(-0.0723728 0.00465964 0)
(-0.0744721 0.00399055 0)
(-0.0761752 0.00323399 0)
(-0.0774452 0.00239679 0)
(-0.0782504 0.00148804 0)
(-0.0785643 0.000518917 0)
(-0.0783668 -0.000497373 0)
(-0.0776449 -0.00154562 0)
(-0.0763934 -0.00260901 0)
(-0.0746147 -0.00366944 0)
(-0.0723198 -0.00470781 0)
(-0.0695279 -0.00570446 0)
(-0.0662666 -0.00663965 0)
(-0.0625719 -0.00749402 0)
(-0.0584876 -0.00824922 0)
(-0.0540647 -0.00888841 0)
(-0.0493609 -0.00939687 0)
(-0.0444397 -0.00976251 0)
(-0.0393689 -0.00997642 0)
(-0.0342198 -0.0100332 0)
(-0.0290653 -0.00993147 0)
(-0.0239789 -0.00967375 0)
(-0.0190323 -0.00926681 0)
(-0.0142946 -0.00872136 0)
(-0.0098298 -0.00805183 0)
(-0.00569573 -0.00727579 0)
(-0.00194262 -0.00641354 0)
(0.00138824 -0.00548687 0)
(0.00426548 -0.00451892 0)
(0.00666804 -0.00353285 0)
(0.00858551 -0.00255113 0)
(0.0100181 -0.00159484 0)
(0.0109762 -0.000683171 0)
(0.0114801 0.000166923 0)
(0.0115586 0.000940684 0)
(0.0112488 0.00162524 0)
(0.0105952 0.00220885 0)
(0.00964927 0.00267995 0)
(0.00846897 0.00302577 0)
(0.00711917 0.00323107 0)
(0.00567194 0.0032771 0)
(0.00420716 0.00314162 0)
(0.00281108 0.00280125 0)
(0.00157377 0.00223733 0)
(0.000612589 0.00144899 0)
(0.000109461 0.000488374 0)
(3.97405e-05 -0.000399361 0)
(0.000131412 -0.000721902 0)
(0.000193199 -0.000705948 0)
(0.000137177 -0.000455043 0)
(-8.91763e-05 -4.7373e-05 0)
(-0.000516784 0.000457493 0)
(-0.00116516 0.00101681 0)
(-0.0020458 0.00160214 0)
(-0.00316473 0.00219608 0)
(-0.00452476 0.00278929 0)
(-0.00612693 0.00337787 0)
(-0.0079715 0.00396129 0)
(-0.0100583 0.00454063 0)
(-0.0123871 0.00511737 0)
(-0.0149567 0.00569249 0)
(-0.0177655 0.00626581 0)
(-0.0208102 0.00683568 0)
(-0.0240855 0.00739871 0)
(-0.0275833 0.0079498 0)
(-0.0312927 0.00848211 0)
(-0.0351987 0.00898724 0)
(-0.0392822 0.00945542 0)
(-0.0435196 0.00987571 0)
(-0.0478828 0.0102364 0)
(-0.0523388 0.0105251 0)
(-0.0568502 0.0107295 0)
(-0.0613754 0.0108373 0)
(-0.0658687 0.0108368 0)
(-0.0702814 0.0107174 0)
(-0.0745622 0.0104697 0)
(-0.0786582 0.0100863 0)
(-0.0825155 0.00956169 0)
(-0.0860807 0.00889285 0)
(-0.0893014 0.00807948 0)
(-0.0921275 0.00712412 0)
(-0.0945122 0.00603238 0)
(-0.0964125 0.00481297 0)
(-0.0977909 0.00347769 0)
(-0.0986154 0.00204146 0)
(-0.0988608 0.000522008 0)
(-0.0985084 -0.00106042 0)
(-0.0975477 -0.00268274 0)
(-0.0959761 -0.00431998 0)
(-0.0937996 -0.0059456 0)
(-0.0910324 -0.00753186 0)
(-0.0876977 -0.00905045 0)
(-0.083827 -0.0104731 0)
(-0.0794605 -0.0117721 0)
(-0.0746464 -0.0129215 0)
(-0.0694404 -0.013897 0)
(-0.0639055 -0.0146778 0)
(-0.0581104 -0.0152462 0)
(-0.0521294 -0.0155891 0)
(-0.0460403 -0.0156985 0)
(-0.0399237 -0.0155714 0)
(-0.033861 -0.0152108 0)
(-0.0279328 -0.0146255 0)
(-0.0222173 -0.0138298 0)
(-0.0167886 -0.0128437 0)
(-0.0117146 -0.0116917 0)
(-0.00705558 -0.0104027 0)
(-0.00286273 -0.00900807 0)
(0.000823058 -0.00754154 0)
(0.00397216 -0.00603741 0)
(0.00656672 -0.00452953 0)
(0.00860093 -0.00305031 0)
(0.0100809 -0.00162984 0)
(0.0110243 -0.000295397 0)
(0.0114597 0.000928704 0)
(0.0114258 0.00202077 0)
(0.0109707 0.00296095 0)
(0.0101512 0.00372998 0)
(0.00903241 0.00430767 0)
(0.00768736 0.00467131 0)
(0.00619716 0.00479448 0)
(0.00465141 0.00464698 0)
(0.00314675 0.00419697 0)
(0.0017853 0.00341622 0)
(0.000705433 0.00229048 0)
(0.000128677 0.000842124 0)
(2.48368e-05 -0.000456386 0)
(4.0971e-05 -0.000755731 0)
(-5.17821e-05 -0.000627845 0)
(-0.000321902 -0.000206939 0)
(-0.000812162 0.000408856 0)
(-0.00154856 0.00114599 0)
(-0.00254689 0.00195212 0)
(-0.00381636 0.00279255 0)
(-0.00536209 0.00364601 0)
(-0.00718692 0.00450094 0)
(-0.00929245 0.00535232 0)
(-0.0116796 0.00619896 0)
(-0.0143488 0.00704148 0)
(-0.0172998 0.00788069 0)
(-0.0205309 0.00871653 0)
(-0.0240391 0.00954727 0)
(-0.0278188 0.0103691 0)
(-0.0318616 0.0111757 0)
(-0.0361554 0.0119587 0)
(-0.0406837 0.0127073 0)
(-0.0454256 0.0134085 0)
(-0.0503553 0.014048 0)
(-0.0554415 0.0146098 0)
(-0.0606478 0.0150773 0)
(-0.065933 0.0154332 0)
(-0.0712509 0.0156607 0)
(-0.0765514 0.0157435 0)
(-0.0817807 0.0156665 0)
(-0.0868824 0.0154164 0)
(-0.0917985 0.0149821 0)
(-0.09647 0.0143554 0)
(-0.100838 0.013531 0)
(-0.104846 0.0125072 0)
(-0.108439 0.011286 0)
(-0.111564 0.0098732 0)
(-0.114175 0.0082786 0)
(-0.116229 0.00651601 0)
(-0.117689 0.0046031 0)
(-0.118526 0.00256136 0)
(-0.118715 0.000415622 0)
(-0.118241 -0.00180679 0)
(-0.117095 -0.00407426 0)
(-0.115276 -0.00635363 0)
(-0.112793 -0.0086099 0)
(-0.10966 -0.0108068 0)
(-0.105904 -0.0129073 0)
(-0.101557 -0.0148747 0)
(-0.0966604 -0.016673 0)
(-0.0912636 -0.0182682 0)
(-0.0854244 -0.0196286 0)
(-0.0792073 -0.0207266 0)
(-0.072684 -0.0215387 0)
(-0.0659317 -0.0220469 0)
(-0.0590324 -0.0222396 0)
(-0.0520716 -0.0221117 0)
(-0.0451367 -0.0216656 0)
(-0.0383153 -0.0209113 0)
(-0.0316935 -0.0198662 0)
(-0.0253541 -0.0185551 0)
(-0.0193742 -0.0170093 0)
(-0.013824 -0.0152656 0)
(-0.00876473 -0.0133655 0)
(-0.00424692 -0.0113537 0)
(-0.000309586 -0.00927629 0)
(0.00302091 -0.00717964 0)
(0.00573134 -0.00510879 0)
(0.00782179 -0.00310638 0)
(0.00930553 -0.00121179 0)
(0.0102085 0.000539182 0)
(0.0105686 0.00211411 0)
(0.010435 0.00348316 0)
(0.00986744 0.0046178 0)
(0.00893515 0.00548904 0)
(0.00771671 0.00606566 0)
(0.00629975 0.00631273 0)
(0.00478139 0.00619109 0)
(0.00326697 0.00565861 0)
(0.00186941 0.00467386 0)
(0.000743464 0.00320283 0)
(0.000136227 0.00123023 0)
(6.08327e-06 -0.000459683 0)
(-7.30246e-05 -0.000651537 0)
(-0.000358249 -0.00034251 0)
(-0.000889835 0.000306544 0)
(-0.00169612 0.00118009 0)
(-0.00279525 0.00219292 0)
(-0.00419712 0.00328528 0)
(-0.00590707 0.00441796 0)
(-0.00792826 0.0055672 0)
(-0.0102629 0.00672015 0)
(-0.0129126 0.00787103 0)
(-0.0158786 0.00901808 0)
(-0.0191618 0.0101611 0)
(-0.0227613 0.0112998 0)
(-0.0266749 0.0124321 0)
(-0.0308975 0.013554 0)
(-0.0354208 0.0146585 0)
(-0.0402326 0.0157355 0)
(-0.0453158 0.0167721 0)
(-0.0506485 0.0177526 0)
(-0.0562033 0.0186591 0)
(-0.0619469 0.0194715 0)
(-0.0678406 0.0201685 0)
(-0.0738402 0.0207282 0)
(-0.0798964 0.0211285 0)
(-0.0859556 0.0213483 0)
(-0.0919604 0.0213675 0)
(-0.0978507 0.0211684 0)
(-0.103565 0.0207358 0)
(-0.109039 0.0200581 0)
(-0.114213 0.0191271 0)
(-0.119024 0.017939 0)
(-0.123415 0.0164946 0)
(-0.127329 0.014799 0)
(-0.130718 0.0128625 0)
(-0.133533 0.0106997 0)
(-0.135735 0.00833012 0)
(-0.137288 0.00577768 0)
(-0.138165 0.00307062 0)
(-0.138344 0.000240921 0)
(-0.137811 -0.00267746 0)
(-0.136556 -0.00564429 0)
(-0.134582 -0.00861871 0)
(-0.131895 -0.0115577 0)
(-0.128512 -0.0144168 0)
(-0.124455 -0.0171506 0)
(-0.119758 -0.0197141 0)
(-0.114459 -0.0220631 0)
(-0.108608 -0.0241553 0)
(-0.10226 -0.0259515 0)
(-0.0954815 -0.0274166 0)
(-0.0883427 -0.0285206 0)
(-0.0809224 -0.0292398 0)
(-0.0733052 -0.0295578 0)
(-0.0655798 -0.0294666 0)
(-0.0578386 -0.0289667 0)
(-0.0501753 -0.0280682 0)
(-0.0426834 -0.0267905 0)
(-0.0354539 -0.0251624 0)
(-0.0285736 -0.0232211 0)
(-0.0221225 -0.0210114 0)
(-0.0161723 -0.0185843 0)
(-0.0107839 -0.0159958 0)
(-0.00600668 -0.0133044 0)
(-0.00187639 -0.0105697 0)
(0.0015851 -0.00785054 0)
(0.00437055 -0.00520355 0)
(0.00648734 -0.00268181 0)
(0.00795715 -0.000334313 0)
(0.00881544 0.001794 0)
(0.00911059 0.00366162 0)
(0.00890311 0.00522913 0)
(0.00826469 0.00645739 0)
(0.00727757 0.00730549 0)
(0.0060342 0.00772887 0)
(0.00463769 0.00767816 0)
(0.00320068 0.00709921 0)
(0.00184511 0.00593484 0)
(0.000736866 0.00412823 0)
(0.000135085 0.00162548 0)
(-1.575e-05 -0.000398504 0)
(-0.000206046 -0.000381759 0)
(-0.000715128 0.000189033 0)
(-0.00154803 0.00113101 0)
(-0.0027143 0.0023151 0)
(-0.00422164 0.00364778 0)
(-0.00607211 0.00506467 0)
(-0.00826583 0.00652442 0)
(-0.010803 0.00800253 0)
(-0.0136846 0.00948597 0)
(-0.0169117 0.0109688 0)
(-0.0204857 0.0124489 0)
(-0.024407 0.0139249 0)
(-0.0286744 0.0153946 0)
(-0.0332841 0.0168534 0)
(-0.0382287 0.0182939 0)
(-0.0434967 0.0197049 0)
(-0.0490714 0.0210715 0)
(-0.0549306 0.0223755 0)
(-0.0610464 0.0235955 0)
(-0.0673846 0.0247077 0)
(-0.0739049 0.0256861 0)
(-0.0805614 0.0265039 0)
(-0.0873026 0.0271339 0)
(-0.0940726 0.0275495 0)
(-0.100812 0.0277257 0)
(-0.107457 0.0276396 0)
(-0.113943 0.0272718 0)
(-0.120206 0.0266063 0)
(-0.126181 0.0256318 0)
(-0.131804 0.0243417 0)
(-0.137014 0.0227347 0)
(-0.141755 0.0208148 0)
(-0.145971 0.0185913 0)
(-0.149615 0.0160791 0)
(-0.152643 0.0132983 0)
(-0.155016 0.0102742 0)
(-0.156701 0.00703653 0)
(-0.157671 0.00361969 0)
(-0.157909 6.2289e-05 0)
(-0.157397 -0.00359239 0)
(-0.156125 -0.00729985 0)
(-0.154096 -0.0110117 0)
(-0.151315 -0.0146771 0)
(-0.147793 -0.0182439 0)
(-0.143553 -0.0216589 0)
(-0.138622 -0.0248687 0)
(-0.133038 -0.027821 0)
(-0.126844 -0.0304652 0)
(-0.120095 -0.0327538 0)
(-0.112853 -0.0346437 0)
(-0.105188 -0.0360973 0)
(-0.097179 -0.0370842 0)
(-0.0889104 -0.0375822 0)
(-0.0804741 -0.0375783 0)
(-0.0719667 -0.0370702 0)
(-0.0634874 -0.0360666 0)
(-0.0551372 -0.0345876 0)
(-0.0470158 -0.0326647 0)
(-0.0392196 -0.0303403 0)
(-0.0318396 -0.0276663 0)
(-0.0249586 -0.0247033 0)
(-0.0186491 -0.0215184 0)
(-0.0129716 -0.0181828 0)
(-0.00797261 -0.0147703 0)
(-0.00368371 -0.0113547 0)
(-0.000120724 -0.00800764 0)
(0.00271662 -0.00479754 0)
(0.0048445 -0.00178825 0)
(0.00629457 0.000961121 0)
(0.00711313 0.0033957 0)
(0.00736022 0.00546364 0)
(0.00710862 0.0071142 0)
(0.00644299 0.00829551 0)
(0.00545948 0.00895221 0)
(0.00426596 0.00902351 0)
(0.00298104 0.00844198 0)
(0.00173367 0.00713353 0)
(0.000695874 0.00501824 0)
(0.000127779 0.00200685 0)
(-4.01695e-05 -0.00026399 0)
(-0.00035497 7.65568e-05 0)
(-0.00111409 0.00099918 0)
(-0.00228146 0.0023045 0)
(-0.00384412 0.00385458 0)
(-0.00579706 0.00555166 0)
(-0.00813288 0.00733025 0)
(-0.0108453 0.00914967 0)
(-0.0139307 0.0109867 0)
(-0.0173881 0.0128296 0)
(-0.0212178 0.0146729 0)
(-0.0254207 0.0165142 0)
(-0.0299966 0.0183506 0)
(-0.0349433 0.0201776 0)
(-0.0402548 0.0219872 0)
(-0.0459212 0.0237674 0)
(-0.0519271 0.0255018 0)
(-0.0582511 0.0271701 0)
(-0.0648656 0.0287478 0)
(-0.0717364 0.0302072 0)
(-0.0788229 0.0315182 0)
(-0.0860783 0.0326489 0)
(-0.0934502 0.0335669 0)
(-0.100881 0.0342401 0)
(-0.108309 0.0346381 0)
(-0.115671 0.0347329 0)
(-0.1229 0.0344999 0)
(-0.129929 0.0339189 0)
(-0.136692 0.0329745 0)
(-0.143124 0.0316569 0)
(-0.149162 0.0299618 0)
(-0.154748 0.0278914 0)
(-0.159827 0.0254534 0)
(-0.164347 0.0226619 0)
(-0.168262 0.0195366 0)
(-0.171531 0.0161027 0)
(-0.174117 0.0123908 0)
(-0.175989 0.00843637 0)
(-0.177121 0.00427895 0)
(-0.177492 -3.69159e-05 0)
(-0.177087 -0.00445954 0)
(-0.175895 -0.00894117 0)
(-0.173913 -0.0134265 0)
(-0.171143 -0.0178577 0)
(-0.167592 -0.0221755 0)
(-0.163278 -0.0263191 0)
(-0.158222 -0.0302272 0)
(-0.152457 -0.0338392 0)
(-0.146022 -0.0370959 0)
(-0.138966 -0.0399409 0)
(-0.131347 -0.0423223 0)
(-0.123232 -0.0441939 0)
(-0.114699 -0.0455171 0)
(-0.105832 -0.046262 0)
(-0.0967257 -0.0464097 0)
(-0.0874787 -0.0459527 0)
(-0.0781964 -0.0448969 0)
(-0.0689869 -0.0432614 0)
(-0.0599591 -0.0410791 0)
(-0.05122 -0.0383961 0)
(-0.0428722 -0.0352711 0)
(-0.0350108 -0.0317734 0)
(-0.0277214 -0.0279812 0)
(-0.021077 -0.0239792 0)
(-0.0151362 -0.0198559 0)
(-0.00994176 -0.0157008 0)
(-0.00551939 -0.0116023 0)
(-0.00187716 -0.00764567 0)
(0.000994479 -0.00391114 0)
(0.00312229 -0.000473769 0)
(0.00454949 0.00259653 0)
(0.00533473 0.00523388 0)
(0.00555099 0.00737448 0)
(0.00528454 0.00895417 0)
(0.00463439 0.00990563 0)
(0.00371224 0.0101557 0)
(0.00264134 0.00962294 0)
(0.00155585 0.00821648 0)
(0.000629831 0.00583483 0)
(0.000116369 0.00235894 0)
(-6.68559e-05 -4.85777e-05 0)
(-0.000517429 0.000742508 0)
(-0.00154827 0.00211477 0)
(-0.00307716 0.00385829 0)
(-0.00506548 0.00583161 0)
(-0.00749363 0.00793757 0)
(-0.0103433 0.0101136 0)
(-0.0136008 0.012323 0)
(-0.0172582 0.0145461 0)
(-0.0213119 0.0167739 0)
(-0.0257611 0.0190023 0)
(-0.0306056 0.0212285 0)
(-0.0358442 0.0234482 0)
(-0.0414732 0.0256535 0)
(-0.0474842 0.0278322 0)
(-0.0538641 0.0299669 0)
(-0.0605931 0.0320353 0)
(-0.0676452 0.0340105 0)
(-0.0749871 0.0358613 0)
(-0.0825788 0.0375533 0)
(-0.0903736 0.03905 0)
(-0.098319 0.0403137 0)
(-0.106357 0.0413069 0)
(-0.114426 0.0419935 0)
(-0.12246 0.0423399 0)
(-0.130392 0.0423164 0)
(-0.138156 0.0418977 0)
(-0.145683 0.041064 0)
(-0.152907 0.0398016 0)
(-0.159767 0.038103 0)
(-0.166202 0.0359674 0)
(-0.172154 0.0334005 0)
(-0.177574 0.0304144 0)
(-0.182411 0.0270276 0)
(-0.186624 0.0232645 0)
(-0.190171 0.019155 0)
(-0.19302 0.0147345 0)
(-0.195139 0.010043 0)
(-0.196501 0.00512535 0)
(-0.197083 3.08384e-05 0)
(-0.19687 -0.00518667 0)
(-0.195848 -0.0104711 0)
(-0.194007 -0.0157619 0)
(-0.191346 -0.0209957 0)
(-0.187867 -0.0261067 0)
(-0.183579 -0.031027 0)
(-0.178498 -0.0356876 0)
(-0.172651 -0.0400196 0)
(-0.166068 -0.0439547 0)
(-0.158794 -0.0474273 0)
(-0.150881 -0.0503755 0)
(-0.14239 -0.0527435 0)
(-0.133397 -0.0544826 0)
(-0.123985 -0.0555541 0)
(-0.114248 -0.0559307 0)
(-0.104287 -0.0555981 0)
(-0.094214 -0.0545569 0)
(-0.0841429 -0.0528233 0)
(-0.0741923 -0.0504299 0)
(-0.0644804 -0.0474254 0)
(-0.0551226 -0.0438734 0)
(-0.0462279 -0.0398519 0)
(-0.0378962 -0.0354499 0)
(-0.0302149 -0.0307657 0)
(-0.0232567 -0.0259032 0)
(-0.0170772 -0.0209692 0)
(-0.0117135 -0.0160702 0)
(-0.00718367 -0.0113095 0)
(-0.00348599 -0.00678611 0)
(-0.00059966 -0.00259263 0)
(0.00151456 0.00118416 0)
(0.00291319 0.00446265 0)
(0.00366877 0.00716448 0)
(0.00386863 0.00921184 0)
(0.00361402 0.0105244 0)
(0.00301972 0.0110158 0)
(0.00221263 0.0105907 0)
(0.00133059 0.00914218 0)
(0.000546884 0.00654985 0)
(0.000102522 0.00267113 0)
(-9.55562e-05 0.000254255 0)
(-0.000691317 0.00163196 0)
(-0.00201141 0.00355763 0)
(-0.00392311 0.00581726 0)
(-0.00635951 0.00827195 0)
(-0.00928483 0.0108306 0)
(-0.0126688 0.0134381 0)
(-0.0164895 0.0160652 0)
(-0.020734 0.0186985 0)
(-0.025396 0.0213332 0)
(-0.0304729 0.0239674 0)
(-0.0359633 0.0265981 0)
(-0.0418644 0.029219 0)
(-0.0481703 0.0318183 0)
(-0.0548701 0.0343788 0)
(-0.0619469 0.0368768 0)
(-0.0693767 0.0392834 0)
(-0.0771284 0.0415645 0)
(-0.0851634 0.0436817 0)
(-0.0934362 0.045594 0)
(-0.101895 0.0472585 0)
(-0.110482 0.0486323 0)
(-0.119136 0.0496734 0)
(-0.127792 0.0503427 0)
(-0.136381 0.0506046 0)
(-0.144837 0.0504286 0)
(-0.153092 0.04979 0)
(-0.161079 0.0486707 0)
(-0.168736 0.0470591 0)
(-0.176002 0.0449512 0)
(-0.18282 0.0423496 0)
(-0.189138 0.039264 0)
(-0.194906 0.0357108 0)
(-0.200079 0.0317125 0)
(-0.204616 0.0272976 0)
(-0.20848 0.0225001 0)
(-0.211636 0.0173591 0)
(-0.214054 0.0119186 0)
(-0.215707 0.00622737 0)
(-0.216569 0.000338435 0)
(-0.216621 -0.00569244 0)
(-0.215846 -0.0118024 0)
(-0.21423 -0.0179268 0)
(-0.211765 -0.0239971 0)
(-0.208447 -0.0299417 0)
(-0.204279 -0.0356861 0)
(-0.199269 -0.041154 0)
(-0.193433 -0.0462681 0)
(-0.186798 -0.0509512 0)
(-0.179397 -0.0551275 0)
(-0.171275 -0.0587247 0)
(-0.16249 -0.0616758 0)
(-0.15311 -0.0639209 0)
(-0.143214 -0.0654103 0)
(-0.132897 -0.066106 0)
(-0.12226 -0.0659848 0)
(-0.111418 -0.0650395 0)
(-0.100493 -0.063281 0)
(-0.0896112 -0.0607393 0)
(-0.0789033 -0.0574634 0)
(-0.0684981 -0.053521 0)
(-0.0585199 -0.048997 0)
(-0.049085 -0.0439914 0)
(-0.0402973 -0.0386158 0)
(-0.0322456 -0.0329907 0)
(-0.0250008 -0.0272412 0)
(-0.0186138 -0.0214932 0)
(-0.0131141 -0.0158708 0)
(-0.00850968 -0.0104931 0)
(-0.00478699 -0.00547266 0)
(-0.00191177 -0.000915055 0)
(0.000169605 0.0030805 0)
(0.00152871 0.00641941 0)
(0.00225348 0.00900891 0)
(0.00244698 0.0107546 0)
(0.00222659 0.0115566 0)
(0.00172214 0.0113056 0)
(0.00107425 0.00988004 0)
(0.000453898 0.00714384 0)
(8.75775e-05 0.00293686 0)
(-0.000126017 0.000649987 0)
(-0.000874537 0.0027577 0)
(-0.00249733 0.00534473 0)
(-0.00480748 0.00820009 0)
(-0.00770763 0.0111942 0)
(-0.0111446 0.014248 0)
(-0.0150752 0.0173189 0)
(-0.0194689 0.0203888 0)
(-0.0243075 0.0234533 0)
(-0.0295813 0.0265134 0)
(-0.0352857 0.0295702 0)
(-0.0414176 0.0326206 0)
(-0.0479724 0.0356559 0)
(-0.0549417 0.0386599 0)
(-0.0623115 0.0416093 0)
(-0.0700609 0.0444739 0)
(-0.0781615 0.0472171 0)
(-0.0865774 0.0497973 0)
(-0.0952651 0.0521691 0)
(-0.104174 0.0542848 0)
(-0.113249 0.0560959 0)
(-0.122428 0.0575546 0)
(-0.131646 0.0586157 0)
(-0.140838 0.0592378 0)
(-0.149934 0.0593847 0)
(-0.158868 0.0590262 0)
(-0.167574 0.0581393 0)
(-0.175989 0.056708 0)
(-0.184051 0.0547241 0)
(-0.191704 0.0521869 0)
(-0.198895 0.0491028 0)
(-0.205574 0.0454855 0)
(-0.211694 0.0413551 0)
(-0.217215 0.0367377 0)
(-0.222096 0.0316652 0)
(-0.226302 0.0261748 0)
(-0.229798 0.0203086 0)
(-0.232554 0.0141135 0)
(-0.234541 0.007641 0)
(-0.235733 0.000946945 0)
(-0.236107 -0.00590918 0)
(-0.235642 -0.012862 0)
(-0.23432 -0.0198428 0)
(-0.232126 -0.0267789 0)
(-0.22905 -0.0335933 0)
(-0.225088 -0.0402059 0)
(-0.220239 -0.0465334 0)
(-0.214511 -0.0524906 0)
(-0.20792 -0.0579913 0)
(-0.200491 -0.0629494 0)
(-0.19226 -0.0672816 0)
(-0.183275 -0.0709084 0)
(-0.173597 -0.0737576 0)
(-0.1633 -0.0757663 0)
(-0.152473 -0.0768839 0)
(-0.141219 -0.077075 0)
(-0.129652 -0.0763222 0)
(-0.117899 -0.0746281 0)
(-0.106097 -0.072017 0)
(-0.0943853 -0.0685358 0)
(-0.0829082 -0.0642538 0)
(-0.0718066 -0.0592618 0)
(-0.0612146 -0.0536693 0)
(-0.0512554 -0.0476017 0)
(-0.0420368 -0.0411964 0)
(-0.0336475 -0.0345978 0)
(-0.026155 -0.0279538 0)
(-0.0196031 -0.0214108 0)
(-0.0140114 -0.0151108 0)
(-0.00937552 -0.0091885 0)
(-0.00566745 -0.00377084 0)
(-0.00283739 0.00102331 0)
(-0.000815425 0.00508126 0)
(0.000486611 0.00829381 0)
(0.00117334 0.0105515 0)
(0.00136443 0.0117404 0)
(0.00119236 0.0117378 0)
(0.000800232 0.0104089 0)
(0.000356388 0.00760469 0)
(7.25787e-05 0.00315283 0)
(-0.000157893 0.00114299 0)
(-0.00106478 0.00412936 0)
(-0.00299957 0.00748816 0)
(-0.00571815 0.0110193 0)
(-0.00909102 0.0146098 0)
(-0.0130467 0.0181992 0)
(-0.0175285 0.0217629 0)
(-0.022497 0.0252979 0)
(-0.0279281 0.0288114 0)
(-0.0338088 0.032312 0)
(-0.0401323 0.0358043 0)
(-0.0468933 0.0392854 0)
(-0.0540849 0.0427436 0)
(-0.0616959 0.0461579 0)
(-0.0697089 0.0494982 0)
(-0.078099 0.052727 0)
(-0.0868336 0.0558 0)
(-0.095872 0.0586679 0)
(-0.105167 0.0612784 0)
(-0.114663 0.0635773 0)
(-0.124302 0.0655113 0)
(-0.134019 0.0670288 0)
(-0.14375 0.0680823 0)
(-0.153426 0.0686293 0)
(-0.16298 0.068634 0)
(-0.172348 0.0680676 0)
(-0.181465 0.0669093 0)
(-0.190272 0.0651461 0)
(-0.19871 0.0627733 0)
(-0.206727 0.0597938 0)
(-0.214272 0.0562177 0)
(-0.2213 0.0520623 0)
(-0.227767 0.0473509 0)
(-0.233633 0.0421127 0)
(-0.238861 0.0363825 0)
(-0.243416 0.0301999 0)
(-0.247265 0.0236093 0)
(-0.250377 0.0166598 0)
(-0.252722 0.00940476 0)
(-0.254274 0.00190209 0)
(-0.255007 -0.00578606 0)
(-0.254896 -0.0135924 0)
(-0.25392 -0.0214455 0)
(-0.252059 -0.0292691 0)
(-0.249297 -0.0369823 0)
(-0.24562 -0.0445 0)
(-0.241022 -0.051733 0)
(-0.235499 -0.0585888 0)
(-0.229057 -0.0649727 0)
(-0.221711 -0.0707886 0)
(-0.213485 -0.0759416 0)
(-0.204415 -0.0803396 0)
(-0.194552 -0.0838963 0)
(-0.183961 -0.086534 0)
(-0.172724 -0.088187 0)
(-0.16094 -0.0888053 0)
(-0.148721 -0.0883575 0)
(-0.136197 -0.0868344 0)
(-0.123511 -0.0842512 0)
(-0.110813 -0.0806493 0)
(-0.0982605 -0.0760967 0)
(-0.0860128 -0.0706873 0)
(-0.0742237 -0.064539 0)
(-0.0630378 -0.0577901 0)
(-0.0525848 -0.050595 0)
(-0.0429753 -0.0431194 0)
(-0.0342964 -0.0355343 0)
(-0.0266098 -0.0280113 0)
(-0.0199496 -0.0207179 0)
(-0.014323 -0.0138143 0)
(-0.0097102 -0.00745129 0)
(-0.00606663 -0.00177012 0)
(-0.00332482 0.00309631 0)
(-0.0013969 0.00702062 0)
(-0.000176908 0.00987716 0)
(0.000457082 0.0115375 0)
(0.000640302 0.0118657 0)
(0.000518635 0.0107151 0)
(0.000258467 0.00792614 0)
(5.82859e-05 0.00331833 0)
(-0.000190783 0.00173646 0)
(-0.0012595 0.00575329 0)
(-0.00351123 0.00999505 0)
(-0.00664245 0.0142811 0)
(-0.0104903 0.0185233 0)
(-0.0149644 0.0226864 0)
(-0.0199944 0.0267694 0)
(-0.0255313 0.0307886 0)
(-0.0315456 0.0347656 0)
(-0.0380206 0.0387181 0)
(-0.0449466 0.042655 0)
(-0.0523161 0.0465736 0)
(-0.0601196 0.0504588 0)
(-0.068343 0.0542841 0)
(-0.0769651 0.0580125 0)
(-0.0859571 0.0615985 0)
(-0.0952822 0.0649898 0)
(-0.104896 0.0681299 0)
(-0.114746 0.0709594 0)
(-0.124776 0.0734191 0)
(-0.134924 0.0754511 0)
(-0.145125 0.0770012 0)
(-0.155312 0.0780206 0)
(-0.16542 0.0784669 0)
(-0.175382 0.0783053 0)
(-0.185135 0.0775093 0)
(-0.194619 0.0760609 0)
(-0.203777 0.0739506 0)
(-0.212554 0.0711771 0)
(-0.220902 0.0677469 0)
(-0.228772 0.0636737 0)
(-0.236122 0.0589778 0)
(-0.242911 0.0536856 0)
(-0.249101 0.0478289 0)
(-0.254658 0.0414447 0)
(-0.259548 0.0345748 0)
(-0.263738 0.0272653 0)
(-0.2672 0.0195668 0)
(-0.269905 0.0115342 0)
(-0.271824 0.00322665 0)
(-0.272931 -0.00529221 0)
(-0.2732 -0.0139538 0)
(-0.272606 -0.0226849 0)
(-0.271126 -0.0314072 0)
(-0.268738 -0.0400371 0)
(-0.265422 -0.0484857 0)
(-0.261161 -0.0566592 0)
(-0.255943 -0.0644592 0)
(-0.249763 -0.0717831 0)
(-0.242621 -0.0785259 0)
(-0.234529 -0.0845813 0)
(-0.22551 -0.0898442 0)
(-0.2156 -0.0942135 0)
(-0.204853 -0.0975951 0)
(-0.193339 -0.0999061 0)
(-0.181147 -0.101079 0)
(-0.168387 -0.101064 0)
(-0.155185 -0.0998373 0)
(-0.141687 -0.0974 0)
(-0.128052 -0.0937837 0)
(-0.114452 -0.0890509 0)
(-0.101061 -0.0832955 0)
(-0.0880559 -0.0766409 0)
(-0.075604 -0.0692369 0)
(-0.0638608 -0.061255 0)
(-0.0529623 -0.0528825 0)
(-0.0430197 -0.0443158 0)
(-0.0341166 -0.0357543 0)
(-0.0263059 -0.0273945 0)
(-0.0196094 -0.0194253 0)
(-0.0140184 -0.0120251 0)
(-0.00949543 -0.00536043 0)
(-0.00597675 0.000412654 0)
(-0.00337551 0.00514657 0)
(-0.00158467 0.00869802 0)
(-0.000479899 0.0109233 0)
(7.72049e-05 0.0116733 0)
(0.00023614 0.0107904 0)
(0.000162834 0.00810606 0)
(4.51835e-05 0.00343443 0)
(-0.000224216 0.00243217 0)
(-0.00145589 0.00763226 0)
(-0.00402495 0.0128674 0)
(-0.00756715 0.0179857 0)
(-0.0118856 0.022932 0)
(-0.0168706 0.0277041 0)
(-0.0224382 0.0323298 0)
(-0.02853 0.0368491 0)
(-0.0351104 0.0413008 0)
(-0.0421591 0.0457131 0)
(-0.0496635 0.0501 0)
(-0.0576135 0.0544586 0)