/*--------------------------------*- C++ -*----------------------------------*\
  =========                 |
  \\      /  F ield         | OpenFOAM: The Open Source CFD Toolbox
   \\    /   O peration     | Website:  https://openfoam.org
    \\  /    A nd           | Version:  7
     \\/     M anipulation  |
\*---------------------------------------------------------------------------*/
FoamFile
{
    version     2.0;
    format      ascii;
    class       volVectorField;
    location    "1.9";
    object      U;
}
// * * * * * * * * * * * * * * * * * * * * * * * * * * * * * * * * * * * * * //

dimensions      [0 1 -1 0 0 0 0];

internalField   nonuniform List<vector> 
6400
(
(8.54808e-06 -8.89028e-06 0)
(3.39269e-05 -1.6173e-05 0)
(6.4868e-05 -1.48071e-05 0)
(8.40719e-05 -9.01493e-06 0)
(8.30859e-05 -1.47268e-06 0)
(5.91695e-05 6.47752e-06 0)
(1.19394e-05 1.41628e-05 0)
(-5.77545e-05 2.12768e-05 0)
(-0.000148373 2.76896e-05 0)
(-0.000258021 3.33629e-05 0)
(-0.000384664 3.83079e-05 0)
(-0.000526244 4.25599e-05 0)
(-0.000680759 4.6166e-05 0)
(-0.000846299 4.91785e-05 0)
(-0.00102107 5.16502e-05 0)
(-0.00120341 5.36312e-05 0)
(-0.00139176 5.51676e-05 0)
(-0.00158469 5.62999e-05 0)
(-0.00178088 5.70627e-05 0)
(-0.00197908 5.74848e-05 0)
(-0.00217814 5.75891e-05 0)
(-0.00237694 5.73925e-05 0)
(-0.00257442 5.69069e-05 0)
(-0.00276957 5.61392e-05 0)
(-0.00296136 5.50924e-05 0)
(-0.0031488 5.37661e-05 0)
(-0.00333088 5.21572e-05 0)
(-0.00350661 5.02613e-05 0)
(-0.00367497 4.80725e-05 0)
(-0.00383493 4.55852e-05 0)
(-0.00398546 4.2794e-05 0)
(-0.00412553 3.96952e-05 0)
(-0.0042541 3.62871e-05 0)
(-0.00437014 3.25708e-05 0)
(-0.00447265 2.85506e-05 0)
(-0.00456065 2.4235e-05 0)
(-0.00463321 1.96369e-05 0)
(-0.00468945 1.4774e-05 0)
(-0.00472858 9.66894e-06 0)
(-0.00474989 4.34979e-06 0)
(-0.00475278 -1.14998e-06 0)
(-0.00473677 -6.79158e-06 0)
(-0.00470153 -1.25309e-05 0)
(-0.00464686 -1.83191e-05 0)
(-0.00457276 -2.41026e-05 0)
(-0.00447939 -2.98241e-05 0)
(-0.00436711 -3.54228e-05 0)
(-0.00423648 -4.08356e-05 0)
(-0.00408827 -4.59979e-05 0)
(-0.00392344 -5.08445e-05 0)
(-0.00374318 -5.53108e-05 0)
(-0.00354885 -5.93339e-05 0)
(-0.00334205 -6.28542e-05 0)
(-0.00312451 -6.5816e-05 0)
(-0.00289816 -6.81691e-05 0)
(-0.00266507 -6.98699e-05 0)
(-0.00242742 -7.08819e-05 0)
(-0.00218751 -7.11776e-05 0)
(-0.0019477 -7.07384e-05 0)
(-0.00171038 -6.95554e-05 0)
(-0.00147796 -6.76299e-05 0)
(-0.00125283 -6.49735e-05 0)
(-0.00103731 -6.16082e-05 0)
(-0.00083363 -5.75661e-05 0)
(-0.000643898 -5.28892e-05 0)
(-0.00047006 -4.76293e-05 0)
(-0.000313871 -4.18473e-05 0)
(-0.000176856 -3.56135e-05 0)
(-6.02827e-05 -2.90089e-05 0)
(3.48815e-05 -2.21266e-05 0)
(0.000108014 -1.50715e-05 0)
(0.000158898 -7.97258e-06 0)
(0.000187798 -9.9194e-07 0)
(0.000195581 5.65156e-06 0)
(0.000183906 1.16435e-05 0)
(0.000155512 1.65016e-05 0)
(0.000114606 1.94701e-05 0)
(6.76064e-05 1.93149e-05 0)
(2.53384e-05 1.41892e-05 0)
(3.56035e-06 3.57592e-06 0)
(1.60832e-05 -3.452e-05 0)
(5.49589e-05 -5.51143e-05 0)
(8.98576e-05 -4.21846e-05 0)
(9.22996e-05 -1.04787e-05 0)
(4.62516e-05 3.03436e-05 0)
(-5.52904e-05 7.4482e-05 0)
(-0.000214551 0.000118522 0)
(-0.000430675 0.000160503 0)
(-0.000700849 0.00019935 0)
(-0.00102106 0.000234523 0)
(-0.00138664 0.000265813 0)
(-0.00179264 0.000293209 0)
(-0.00223404 0.000316821 0)
(-0.00270594 0.00033683 0)
(-0.00320358 0.000353452 0)
(-0.00372248 0.000366913 0)
(-0.00425837 0.000377435 0)
(-0.00480725 0.000385225 0)
(-0.00536537 0.000390467 0)
(-0.00592917 0.000393319 0)
(-0.00649527 0.00039391 0)
(-0.00706045 0.000392343 0)
(-0.00762162 0.000388691 0)
(-0.00817574 0.000383006 0)
(-0.00871987 0.000375316 0)
(-0.00925107 0.000365632 0)
(-0.00976645 0.000353953 0)
(-0.0102631 0.000340268 0)
(-0.0107381 0.000324563 0)
(-0.0111885 0.000306822 0)
(-0.0116115 0.000287037 0)
(-0.0120041 0.000265207 0)
(-0.0123635 0.000241347 0)
(-0.0126867 0.000215489 0)
(-0.0129712 0.000187684 0)
(-0.0132142 0.000158011 0)
(-0.0134133 0.000126573 0)
(-0.0135661 9.35046e-05 0)
(-0.0136705 5.897e-05 0)
(-0.0137248 2.31653e-05 0)
(-0.0137273 -1.36814e-05 0)
(-0.0136769 -5.13102e-05 0)
(-0.0135729 -8.94311e-05 0)
(-0.0134147 -0.000127726 0)
(-0.0132027 -0.00016585 0)
(-0.0129372 -0.000203439 0)
(-0.0126195 -0.000240108 0)
(-0.0122512 -0.000275461 0)
(-0.0118345 -0.000309094 0)
(-0.0113721 -0.000340605 0)
(-0.0108673 -0.000369593 0)
(-0.0103239 -0.000395675 0)
(-0.00974628 -0.000418485 0)
(-0.00913924 -0.000437684 0)
(-0.00850801 -0.00045297 0)
(-0.00785819 -0.000464078 0)
(-0.00719574 -0.000470793 0)
(-0.00652685 -0.00047295 0)
(-0.00585788 -0.000470444 0)
(-0.00519531 -0.000463228 0)
(-0.00454562 -0.000451321 0)
(-0.00391522 -0.000434805 0)
(-0.00331034 -0.000413831 0)
(-0.00273696 -0.000388614 0)
(-0.00220071 -0.000359437 0)
(-0.00170677 -0.000326649 0)
(-0.00125978 -0.000290663 0)
(-0.000863741 -0.000251964 0)
(-0.000521902 -0.00021111 0)
(-0.000236666 -0.000168746 0)
(-9.44693e-06 -0.000125617 0)
(0.000159493 -8.26082e-05 0)
(0.000271245 -4.07958e-05 0)
(0.000328534 -1.54148e-06 0)
(0.000336099 3.33705e-05 0)
(0.000301198 6.15242e-05 0)
(0.000234081 7.96033e-05 0)
(0.000148692 8.30221e-05 0)
(6.57841e-05 6.59253e-05 0)
(1.40677e-05 2.52586e-05 0)
(1.50354e-05 -6.55465e-05 0)
(4.27218e-05 -9.0156e-05 0)
(4.70777e-05 -4.66103e-05 0)
(-2.5906e-06 3.71967e-05 0)
(-0.000124572 0.000142682 0)
(-0.000327873 0.000257386 0)
(-0.000615837 0.00037321 0)
(-0.000987791 0.00048503 0)
(-0.00144026 0.000589745 0)
(-0.00196794 0.000685583 0)
(-0.00256439 0.000771656 0)
(-0.00322261 0.000847656 0)
(-0.0039353 0.000913648 0)
(-0.00469519 0.000969933 0)
(-0.00549515 0.00101694 0)
(-0.00632831 0.00105518 0)
(-0.00718808 0.00108515 0)
(-0.00806822 0.00110736 0)
(-0.00896275 0.00112225 0)
(-0.00986603 0.00113023 0)
(-0.0107726 0.00113163 0)
(-0.0116773 0.00112671 0)
(-0.0125751 0.00111569 0)
(-0.0134611 0.00109871 0)
(-0.0143305 0.00107585 0)
(-0.0151784 0.00104717 0)
(-0.0160003 0.00101269 0)
(-0.0167915 0.000972402 0)
(-0.0175472 0.000926294 0)
(-0.0182629 0.000874359 0)
(-0.0189339 0.000816605 0)
(-0.0195556 0.000753066 0)
(-0.0201235 0.000683817 0)
(-0.0206333 0.000608981 0)
(-0.0210806 0.000528738 0)
(-0.0214614 0.000443337 0)
(-0.0217719 0.000353099 0)
(-0.0220085 0.000258424 0)
(-0.0221682 0.000159796 0)
(-0.0222481 5.77832e-05 0)
(-0.0222461 -4.69615e-05 0)
(-0.0221604 -0.000153701 0)
(-0.02199 -0.000261619 0)
(-0.0217344 -0.000369824 0)
(-0.021394 -0.000477359 0)
(-0.0209699 -0.000583212 0)
(-0.0204638 -0.000686324 0)
(-0.0198785 -0.000785606 0)
(-0.0192174 -0.000879955 0)
(-0.018485 -0.000968267 0)
(-0.0176863 -0.00104946 0)
(-0.0168275 -0.00112248 0)
(-0.0159151 -0.00118635 0)
(-0.0149567 -0.00124014 0)
(-0.0139604 -0.00128305 0)
(-0.0129349 -0.00131435 0)
(-0.0118892 -0.00133348 0)
(-0.0108331 -0.00134 0)
(-0.00977618 -0.00133362 0)
(-0.00872846 -0.00131424 0)
(-0.00769988 -0.00128192 0)
(-0.00670027 -0.0012369 0)
(-0.00573917 -0.00117961 0)
(-0.00482575 -0.00111066 0)
(-0.00396859 -0.00103085 0)
(-0.00317559 -0.000941175 0)
(-0.0024538 -0.000842809 0)
(-0.00180925 -0.000737135 0)
(-0.00124683 -0.00062575 0)
(-0.000770057 -0.000510496 0)
(-0.000380928 -0.000393501 0)
(-7.96555e-05 -0.000277263 0)
(0.00013559 -0.000164756 0)
(0.000269029 -5.96075e-05 0)
(0.000327709 3.3655e-05 0)
(0.000322003 0.000109293 0)
(0.00026595 0.00016002 0)
(0.000177684 0.000176731 0)
(8.31809e-05 0.000148819 0)
(1.91608e-05 6.7306e-05 0)
(9.47003e-06 -8.52906e-05 0)
(1.12354e-05 -9.28321e-05 0)
(-3.73398e-05 3.12124e-06 0)
(-0.000163185 0.000161873 0)
(-0.000383503 0.000355969 0)
(-0.000707511 0.000566032 0)
(-0.00113862 0.00077872 0)
(-0.00167588 0.000985165 0)
(-0.00231519 0.00117967 0)
(-0.00305025 0.00135877 0)
(-0.00387333 0.00152053 0)
(-0.00477583 0.0016641 0)
(-0.00574872 0.00178934 0)
(-0.00678285 0.00189657 0)
(-0.00786915 0.00198643 0)
(-0.00899875 0.00205967 0)
(-0.0101631 0.00211715 0)
(-0.011354 0.00215968 0)
(-0.0125635 0.00218805 0)
(-0.013784 0.00220295 0)
(-0.0150083 0.00220497 0)
(-0.0162294 0.0021946 0)
(-0.0174404 0.00217222 0)
(-0.0186347 0.00213809 0)
(-0.0198058 0.00209241 0)
(-0.0209471 0.00203529 0)
(-0.0220524 0.0019668 0)
(-0.0231152 0.00188695 0)
(-0.0241294 0.00179578 0)
(-0.0250887 0.0016933 0)
(-0.0259869 0.00157957 0)
(-0.0268179 0.00145472 0)
(-0.0275757 0.00131892 0)
(-0.0282546 0.00117246 0)
(-0.028849 0.00101573 0)
(-0.0293536 0.000849249 0)
(-0.0297634 0.000673669 0)
(-0.0300739 0.00048979 0)
(-0.0302811 0.000298566 0)
(-0.0303816 0.000101108 0)
(-0.0303725 -0.000101318 0)
(-0.0302519 -0.000307291 0)
(-0.0300184 -0.000515246 0)
(-0.0296716 -0.000723486 0)
(-0.0292123 -0.00093019 0)
(-0.0286418 -0.00113344 0)
(-0.0279627 -0.00133124 0)
(-0.0271788 -0.00152154 0)
(-0.0262947 -0.00170227 0)
(-0.0253162 -0.00187135 0)
(-0.0242501 -0.00202676 0)
(-0.0231044 -0.00216654 0)
(-0.0218878 -0.00228885 0)
(-0.0206103 -0.00239198 0)
(-0.0192822 -0.00247442 0)
(-0.0179151 -0.00253484 0)
(-0.0165207 -0.00257219 0)
(-0.0151116 -0.00258564 0)
(-0.0137004 -0.0025747 0)
(-0.0123001 -0.00253917 0)
(-0.0109236 -0.00247919 0)
(-0.0095836 -0.00239522 0)
(-0.00829254 -0.00228808 0)
(-0.00706228 -0.00215896 0)
(-0.00590395 -0.0020094 0)
(-0.00482777 -0.00184128 0)
(-0.00384283 -0.00165688 0)
(-0.00295694 -0.00145886 0)
(-0.00217633 -0.00125028 0)
(-0.00150552 -0.00103467 0)
(-0.00094702 -0.00081608 0)
(-0.00050109 -0.00059922 0)
(-0.000165423 -0.0003896 0)
(6.51914e-05 -0.000193767 0)
(0.000199279 -1.96201e-05 0)
(0.000249125 0.000123224 0)
(0.000230998 0.000223055 0)
(0.000165466 0.000265847 0)
(8.13839e-05 0.000235471 0)
(1.95298e-05 0.000114447 0)
(1.96751e-06 -8.48955e-05 0)
(-3.04931e-05 -4.60236e-05 0)
(-0.000146558 0.000127156 0)
(-0.000365185 0.0003834 0)
(-0.000700081 0.00068739 0)
(-0.00115927 0.00101337 0)
(-0.00174524 0.00134295 0)
(-0.00245619 0.00166344 0)
(-0.00328714 0.00196637 0)
(-0.00423082 0.00224634 0)
(-0.00527836 0.00250017 0)
(-0.00641988 0.00272626 0)
(-0.00764491 0.00292412 0)
(-0.00894279 0.003094 0)
(-0.0103028 0.00323664 0)
(-0.0117145 0.00335306 0)
(-0.0131675 0.00344439 0)
(-0.014652 0.00351182 0)
(-0.0161583 0.00355645 0)
(-0.0176772 0.00357929 0)
(-0.0191998 0.00358123 0)
(-0.0207173 0.00356298 0)
(-0.0222213 0.00352513 0)
(-0.0237035 0.0034681 0)
(-0.0251558 0.00339222 0)
(-0.0265703 0.00329767 0)
(-0.0279389 0.0031846 0)
(-0.0292538 0.0030531 0)
(-0.0305074 0.00290323 0)
(-0.0316918 0.0027351 0)
(-0.0327995 0.00254887 0)
(-0.0338232 0.00234479 0)
(-0.0347554 0.0021232 0)
(-0.0355892 0.00188463 0)
(-0.0363178 0.00162976 0)
(-0.036935 0.00135947 0)
(-0.0374347 0.00107486 0)
(-0.0378116 0.000777257 0)
(-0.038061 0.000468212 0)
(-0.0381788 0.000149534 0)
(-0.0381618 -0.000176733 0)
(-0.0380077 -0.000508312 0)
(-0.0377151 -0.000842701 0)
(-0.0372838 -0.0011772 0)
(-0.0367145 -0.00150892 0)
(-0.0360093 -0.00183482 0)
(-0.0351715 -0.00215176 0)
(-0.0342056 -0.00245651 0)
(-0.0331173 -0.0027458 0)
(-0.0319137 -0.0030164 0)
(-0.0306032 -0.00326513 0)
(-0.0291952 -0.00348892 0)
(-0.0277005 -0.00368489 0)
(-0.0261309 -0.00385039 0)
(-0.0244992 -0.00398304 0)
(-0.0228188 -0.00408078 0)
(-0.0211042 -0.00414197 0)
(-0.0193703 -0.00416534 0)
(-0.0176322 -0.00415013 0)
(-0.0159056 -0.00409602 0)
(-0.014206 -0.00400326 0)
(-0.0125485 -0.0038726 0)
(-0.010948 -0.00370536 0)
(-0.00941884 -0.00350341 0)
(-0.00797431 -0.00326921 0)
(-0.00662665 -0.00300578 0)
(-0.00538679 -0.00271674 0)
(-0.00426405 -0.00240632 0)
(-0.00326595 -0.0020794 0)
(-0.00239792 -0.00174157 0)
(-0.00166305 -0.00139921 0)
(-0.00106182 -0.00105966 0)
(-0.000591753 -0.000731376 0)
(-0.000247143 -0.000424206 0)
(-1.86791e-05 -0.000149732 0)
(0.000106925 7.83373e-05 0)
(0.000147106 0.000243736 0)
(0.000123744 0.000327368 0)
(6.67325e-05 0.000307162 0)
(1.71268e-05 0.000156717 0)
(-6.23119e-06 -6.08412e-05 0)
(-7.72545e-05 5.92254e-05 0)
(-0.000269645 0.00033755 0)
(-0.000591947 0.000715104 0)
(-0.00105269 0.00115011 0)
(-0.00165762 0.0016113 0)
(-0.00240743 0.00207576 0)
(-0.00329887 0.00252721 0)
(-0.00432575 0.00295447 0)
(-0.00547967 0.00335016 0)
(-0.00675063 0.00370975 0)
(-0.00812757 0.00403081 0)
(-0.00959879 0.0043124 0)
(-0.0111523 0.00455461 0)
(-0.012776 0.00475823 0)
(-0.0144581 0.00492447 0)
(-0.0161867 0.00505476 0)
(-0.0179505 0.00515058 0)
(-0.0197384 0.00521339 0)
(-0.0215397 0.00524451 0)
(-0.0233438 0.00524512 0)
(-0.0251406 0.0052162 0)
(-0.0269203 0.00515853 0)
(-0.0286729 0.00507274 0)
(-0.030389 0.00495926 0)
(-0.0320592 0.00481843 0)
(-0.0336741 0.00465046 0)
(-0.0352244 0.00445554 0)
(-0.0367012 0.00423384 0)
(-0.0380953 0.00398558 0)
(-0.0393979 0.00371104 0)
(-0.0406004 0.00341067 0)
(-0.0416944 0.00308505 0)
(-0.0426716 0.00273502 0)
(-0.0435245 0.00236162 0)
(-0.0442456 0.0019662 0)
(-0.0448282 0.0015504 0)
(-0.0452663 0.00111618 0)
(-0.0455545 0.000665842 0)
(-0.0456882 0.000202017 0)
(-0.0456639 -0.000272326 0)
(-0.045479 -0.000753893 0)
(-0.0451322 -0.00123908 0)
(-0.0446232 -0.00172402 0)
(-0.0439531 -0.00220456 0)
(-0.0431244 -0.00267638 0)
(-0.042141 -0.00313499 0)
(-0.0410081 -0.0035758 0)
(-0.0397325 -0.00399417 0)
(-0.0383223 -0.0043855 0)
(-0.0367873 -0.00474529 0)
(-0.0351383 -0.00506922 0)
(-0.0333876 -0.00535319 0)
(-0.0315489 -0.00559346 0)
(-0.0296367 -0.00578666 0)
(-0.0276666 -0.00592991 0)
(-0.0256551 -0.00602085 0)
(-0.0236191 -0.00605773 0)
(-0.0215763 -0.00603945 0)
(-0.0195442 -0.0059656 0)
(-0.0175408 -0.00583651 0)
(-0.0155835 -0.00565329 0)
(-0.0136893 -0.00541782 0)
(-0.0118746 -0.00513278 0)
(-0.0101547 -0.0048017 0)
(-0.00854371 -0.0044289 0)
(-0.00705418 -0.00401957 0)
(-0.00569688 -0.00357977 0)
(-0.00448056 -0.00311646 0)
(-0.00341159 -0.00263758 0)
(-0.00249376 -0.00215218 0)
(-0.00172795 -0.00167049 0)
(-0.00111186 -0.00120422 0)
(-0.000639727 -0.000766755 0)
(-0.000302009 -0.000373549 0)
(-8.51107e-05 -4.24995e-05 0)
(2.87901e-05 0.000205555 0)
(6.20224e-05 0.000346468 0)
(4.40116e-05 0.000352329 0)
(1.32312e-05 0.000188751 0)
(-1.45395e-05 -1.17119e-05 0)
(-0.000126099 0.000227778 0)
(-0.000399696 0.000641663 0)
(-0.000832283 0.00116566 0)
(-0.00142621 0.00175307 0)
(-0.0021841 0.00236817 0)
(-0.00310418 0.0029842 0)
(-0.00418119 0.00358175 0)
(-0.00540736 0.00414715 0)
(-0.00677295 0.00467117 0)
(-0.00826671 0.005148 0)
(-0.00987644 0.00557432 0)
(-0.0115893 0.00594872 0)
(-0.013392 0.0062711 0)
(-0.0152714 0.00654225 0)
(-0.0172143 0.00676353 0)
(-0.0192077 0.00693663 0)
(-0.0212389 0.00706331 0)
(-0.0232955 0.00714537 0)
(-0.0253655 0.00718443 0)
(-0.0274371 0.00718196 0)
(-0.0294987 0.0071392 0)
(-0.0315391 0.00705717 0)
(-0.0335473 0.00693666 0)
(-0.0355123 0.00677828 0)
(-0.0374235 0.00658249 0)
(-0.0392702 0.00634963 0)
(-0.0410419 0.00608 0)
(-0.0427284 0.0057739 0)
(-0.0443195 0.0054317 0)
(-0.045805 0.00505389 0)
(-0.0471754 0.00464113 0)
(-0.0484211 0.00419432 0)
(-0.049533 0.00371466 0)
(-0.0505025 0.00320366 0)
(-0.0513215 0.00266321 0)
(-0.0519824 0.00209559 0)
(-0.0524785 0.00150351 0)
(-0.052804 0.000890118 0)
(-0.0529539 0.000258995 0)
(-0.0529243 -0.000385832 0)
(-0.0527125 -0.00103991 0)
(-0.052317 -0.00169841 0)
(-0.0517377 -0.0023561 0)
(-0.0509759 -0.00300747 0)
(-0.0500345 -0.00364673 0)
(-0.0489179 -0.00426787 0)
(-0.0476319 -0.00486479 0)
(-0.0461842 -0.00543134 0)
(-0.0445839 -0.00596138 0)
(-0.0428417 -0.00644895 0)
(-0.0409699 -0.00688829 0)
(-0.0389822 -0.00727399 0)
(-0.0368935 -0.00760107 0)
(-0.0347202 -0.00786507 0)
(-0.0324796 -0.00806215 0)
(-0.0301899 -0.0081892 0)
(-0.0278702 -0.00824389 0)
(-0.0255398 -0.00822474 0)
(-0.0232185 -0.00813123 0)
(-0.0209261 -0.00796378 0)
(-0.0186822 -0.00772387 0)
(-0.0165057 -0.00741401 0)
(-0.0144149 -0.0070378 0)
(-0.0124269 -0.0065999 0)
(-0.0105576 -0.00610613 0)
(-0.00882114 -0.0055634 0)
(-0.00722966 -0.00497979 0)
(-0.00579314 -0.00436457 0)
(-0.004519 -0.00372826 0)
(-0.00341187 -0.00308276 0)
(-0.00247328 -0.00244148 0)
(-0.00170138 -0.00181952 0)
(-0.00109074 -0.00123399 0)
(-0.000632052 -0.000704268 0)
(-0.000311956 -0.000252474 0)
(-0.000112847 9.60644e-05 0)
(-1.26464e-05 0.000312354 0)
(1.64851e-05 0.00036312 0)
(8.5959e-06 0.000207424 0)
(-2.2703e-05 6.28771e-05 0)
(-0.000175387 0.000461936 0)
(-0.00053244 0.00104357 0)
(-0.00107886 0.00174029 0)
(-0.00181027 0.00250193 0)
(-0.00272562 0.0032894 0)
(-0.00382014 0.00407291 0)
(-0.00508611 0.00483047 0)
(-0.00651382 0.00554632 0)
(-0.00809194 0.00620961 0)
(-0.00980788 0.00681334 0)
(-0.0116482 0.00735345 0)
(-0.0135988 0.00782804 0)
(-0.0156455 0.00823682 0)
(-0.0177739 0.00858058 0)
(-0.0199697 0.00886082 0)
(-0.0222187 0.00907943 0)
(-0.0245073 0.0092385 0)
(-0.0268219 0.00934007 0)
(-0.0291491 0.00938611 0)
(-0.0314761 0.00937836 0)
(-0.0337901 0.0093183 0)
(-0.0360788 0.00920718 0)
(-0.0383299 0.00904599 0)
(-0.0405313 0.00883551 0)
(-0.0426711 0.00857634 0)
(-0.0447376 0.00826897 0)
(-0.0467192 0.00791384 0)
(-0.0486045 0.00751142 0)
(-0.0503821 0.00706225 0)
(-0.0520411 0.00656706 0)
(-0.0535708 0.0060268 0)
(-0.0549607 0.00544274 0)
(-0.0562008 0.00481651 0)
(-0.0572818 0.00415014 0)
(-0.0581946 0.00344615 0)
(-0.0589313 0.00270756 0)
(-0.0594844 0.00193791 0)
(-0.0598476 0.0011413 0)
(-0.0600155 0.000322362 0)
(-0.059984 -0.000513698 0)
(-0.0597501 -0.00136116 0)
(-0.0593123 -0.00221382 0)
(-0.0586706 -0.003065 0)
(-0.0578265 -0.00390765 0)
(-0.056783 -0.00473438 0)
(-0.0555449 -0.00553758 0)
(-0.0541188 -0.00630945 0)
(-0.0525129 -0.00704218 0)
(-0.0507371 -0.00772799 0)
(-0.0488032 -0.0083593 0)
(-0.0467244 -0.00892881 0)
(-0.0445156 -0.00942964 0)
(-0.0421931 -0.00985547 0)
(-0.0397747 -0.0102006 0)
(-0.0372792 -0.0104603 0)
(-0.0347265 -0.0106303 0)
(-0.0321372 -0.010708 0)
(-0.0295326 -0.0106912 0)
(-0.0269342 -0.0105793 0)
(-0.0243637 -0.0103729 0)
(-0.0218425 -0.0100738 0)
(-0.0193914 -0.00968522 0)
(-0.0170305 -0.00921162 0)
(-0.0147787 -0.00865901 0)
(-0.0126535 -0.00803473 0)
(-0.0106706 -0.00734758 0)
(-0.00884357 -0.0066078 0)
(-0.00718376 -0.00582713 0)
(-0.00569973 -0.00501885 0)
(-0.00439708 -0.00419789 0)
(-0.00327823 -0.00338096 0)
(-0.00234209 -0.00258672 0)
(-0.00158387 -0.00183602 0)
(-0.000994911 -0.00115224 0)
(-0.000562494 -0.000561656 0)
(-0.000269722 -9.393e-05 0)
(-9.52933e-05 0.000217431 0)
(-1.36984e-05 0.000334427 0)
(3.66192e-06 0.000210992 0)
(-3.06185e-05 0.000162741 0)
(-0.000224229 0.000762368 0)
(-0.000665284 0.00154503 0)
(-0.00132693 0.00244163 0)
(-0.00219784 0.00339981 0)
(-0.00327298 0.00437818 0)
(-0.00454416 0.00534473 0)
(-0.0060009 0.00627549 0)
(-0.00763125 0.00715306 0)
(-0.00942205 0.00796532 0)
(-0.0113592 0.00870432 0)
(-0.0134279 0.00936534 0)
(-0.015613 0.00994614 0)
(-0.0178991 0.0104463 0)
(-0.0202707 0.0108665 0)
(-0.0227126 0.0112085 0)
(-0.0252097 0.0114744 0)
(-0.0277471 0.0116665 0)
(-0.0303103 0.0117872 0)
(-0.032885 0.0118387 0)
(-0.0354573 0.0118231 0)
(-0.0380133 0.011742 0)
(-0.0405397 0.011597 0)
(-0.043023 0.0113892 0)
(-0.0454503 0.0111196 0)
(-0.0478086 0.0107889 0)
(-0.0500851 0.0103978 0)
(-0.0522672 0.00994692 0)
(-0.0543424 0.00943688 0)
(-0.0562986 0.00886846 0)
(-0.0581239 0.00824265 0)
(-0.0598065 0.00756076 0)
(-0.0613353 0.00682444 0)
(-0.0626994 0.00603583 0)
(-0.0638887 0.00519755 0)
(-0.0648936 0.00431281 0)
(-0.0657054 0.00338544 0)
(-0.0663161 0.00241989 0)
(-0.066719 0.0014213 0)
(-0.0669084 0.000395458 0)
(-0.0668796 -0.000651168 0)
(-0.0666297 -0.00171149 0)
(-0.0661569 -0.00277782 0)
(-0.0654612 -0.00384192 0)
(-0.0645442 -0.00489509 0)
(-0.0634092 -0.00592825 0)
(-0.0620612 -0.006932 0)
(-0.0605072 -0.0078968 0)
(-0.058756 -0.00881301 0)
(-0.0568181 -0.0096711 0)
(-0.0547061 -0.0104617 0)
(-0.0524341 -0.011176 0)
(-0.050018 -0.0118053 0)
(-0.0474753 -0.012342 0)
(-0.0448249 -0.0127791 0)
(-0.0420871 -0.0131105 0)
(-0.0392832 -0.0133313 0)
(-0.0364353 -0.0134379 0)
(-0.0335664 -0.0134278 0)
(-0.0306997 -0.0133002 0)
(-0.0278585 -0.0130556 0)
(-0.0250661 -0.0126963 0)
(-0.022345 -0.0122261 0)
(-0.0197171 -0.0116506 0)
(-0.017203 -0.010977 0)
(-0.0148219 -0.0102143 0)
(-0.0125911 -0.00937338 0)
(-0.0105258 -0.00846663 0)
(-0.00863851 -0.00750843 0)
(-0.00693927 -0.00651494 0)
(-0.00543485 -0.00550424 0)
(-0.00412874 -0.00449644 0)
(-0.00302087 -0.00351384 0)
(-0.0021074 -0.00258111 0)
(-0.00138063 -0.00172558 0)
(-0.000828843 -0.000977597 0)
(-0.000436203 -0.000370973 0)
(-0.000182565 5.66427e-05 0)
(-4.51795e-05 0.00026317 0)
(-1.32578e-06 0.000198608 0)
(-3.82526e-05 0.000287401 0)
(-0.000272147 0.00112872 0)
(-0.000796664 0.00214624 0)
(-0.00157342 0.00327046 0)
(-0.00258418 0.00444793 0)
(-0.00381969 0.00563588 0)
(-0.00526818 0.00680086 0)
(-0.00691611 0.00791759 0)
(-0.00874907 0.00896752 0)
(-0.0107519 0.00993762 0)
(-0.0129088 0.0108193 0)
(-0.0152036 0.0116073 0)
(-0.0176199 0.0122992 0)
(-0.0201412 0.0128946 0)
(-0.022751 0.0133942 0)
(-0.0254331 0.0137999 0)
(-0.0281715 0.014114 0)
(-0.0309504 0.0143392 0)
(-0.0337543 0.014478 0)
(-0.0365682 0.0145331 0)
(-0.039377 0.0145067 0)
(-0.0421662 0.0144007 0)
(-0.0449213 0.0142169 0)
(-0.0476282 0.0139567 0)
(-0.0502727 0.0136211 0)
(-0.0528411 0.0132111 0)
(-0.0553196 0.0127276 0)
(-0.0576948 0.0121712 0)
(-0.0599533 0.011543 0)
(-0.0620821 0.0108438 0)
(-0.0640684 0.010075 0)
(-0.0658997 0.00923826 0)
(-0.067564 0.00833571 0)
(-0.0690499 0.00737 0)
(-0.0703464 0.00634442 0)
(-0.0714434 0.00526292 0)
(-0.0723315 0.00413018 0)
(-0.0730023 0.00295166 0)
(-0.0734485 0.00173359 0)
(-0.073664 0.000482999 0)
(-0.073644 -0.000792314 0)
(-0.0733851 -0.0020838 0)
(-0.0728854 -0.0033822 0)
(-0.0721448 -0.00467763 0)
(-0.0711649 -0.00595965 0)
(-0.069949 -0.00721735 0)
(-0.0685024 -0.0084395 0)
(-0.0668323 -0.00961463 0)
(-0.0649479 -0.0107312 0)
(-0.0628603 -0.0117779 0)
(-0.0605826 -0.0127434 0)
(-0.0581296 -0.0136169 0)
(-0.0555182 -0.0143885 0)
(-0.0527667 -0.0150486 0)
(-0.0498952 -0.0155889 0)
(-0.0469252 -0.0160021 0)
(-0.0438793 -0.0162822 0)
(-0.040781 -0.0164248 0)
(-0.0376548 -0.0164269 0)
(-0.0345256 -0.0162873 0)
(-0.0314184 -0.0160066 0)
(-0.0283579 -0.0155874 0)
(-0.0253688 -0.0150343 0)
(-0.0224744 -0.0143537 0)
(-0.0196973 -0.0135542 0)
(-0.0170583 -0.0126467 0)
(-0.0145764 -0.0116438 0)
(-0.0122684 -0.0105604 0)
(-0.0101485 -0.00941362 0)
(-0.00822816 -0.0082225 0)
(-0.00651548 -0.00700839 0)
(-0.00501529 -0.0057949 0)
(-0.00372878 -0.004608 0)
(-0.00265333 -0.0034762 0)
(-0.00178244 -0.00243076 0)
(-0.0011057 -0.00150601 0)
(-0.000608581 -0.000739698 0)
(-0.000272333 -0.000173288 0)
(-7.71505e-05 0.000147611 0)
(-6.24077e-06 0.000169958 0)
(-4.56033e-05 0.000436237 0)
(-0.000318897 0.00156002 0)
(-0.000925647 0.00284636 0)
(-0.00181638 0.00422625 0)
(-0.00296606 0.00564603 0)
(-0.00436122 0.00706237 0)
(-0.00598635 0.00844116 0)
(-0.00782468 0.00975638 0)
(-0.0098592 0.0109889 0)
(-0.0120726 0.0121251 0)
(-0.0144472 0.0131561 0)
(-0.0169655 0.0140765 0)
(-0.0196096 0.0148837 0)
(-0.0223621 0.0155774 0)
(-0.0252053 0.0161585 0)
(-0.0281223 0.016629 0)
(-0.031096 0.0169917 0)
(-0.0341099 0.0172494 0)
(-0.0371478 0.0174051 0)
(-0.0401936 0.0174614 0)
(-0.0432317 0.0174211 0)
(-0.0462465 0.0172863 0)
(-0.049223 0.017059 0)
(-0.052146 0.0167406 0)
(-0.0550007 0.0163325 0)
(-0.0577725 0.0158358 0)
(-0.0604468 0.0152516 0)
(-0.0630095 0.0145807 0)
(-0.0654463 0.0138242 0)
(-0.0677434 0.0129836 0)
(-0.0698873 0.0120603 0)
(-0.0718649 0.0110565 0)
(-0.0736633 0.00997473 0)
(-0.0752705 0.00881829 0)
(-0.0766749 0.00759111 0)
(-0.0778657 0.00629796 0)
(-0.0788329 0.00494443 0)
(-0.0795678 0.00353701 0)
(-0.0800624 0.0020831 0)
(-0.0803102 0.000591007 0)
(-0.0803061 -0.000930062 0)
(-0.0800462 -0.00247003 0)
(-0.0795286 -0.00401801 0)
(-0.0787529 -0.00556238 0)
(-0.0777204 -0.00709086 0)
(-0.0764346 -0.00859067 0)
(-0.0749008 -0.0100486 0)
(-0.0731262 -0.0114512 0)
(-0.0711203 -0.012785 0)
(-0.0688946 -0.0140364 0)
(-0.0664626 -0.0151925 0)
(-0.0638397 -0.0162404 0)
(-0.0610434 -0.0171683 0)
(-0.058093 -0.017965 0)
(-0.0550095 -0.0186206 0)
(-0.0518153 -0.0191265 0)
(-0.0485344 -0.0194756 0)
(-0.0451916 -0.0196624 0)
(-0.0418129 -0.0196832 0)
(-0.0384246 -0.0195367 0)
(-0.0350534 -0.0192233 0)
(-0.0317258 -0.018746 0)
(-0.0284681 -0.0181097 0)
(-0.0253057 -0.0173221 0)
(-0.0222627 -0.0163932 0)
(-0.0193619 -0.0153353 0)
(-0.0166242 -0.0141633 0)
(-0.014068 -0.0128945 0)
(-0.0117093 -0.0115487 0)
(-0.00956111 -0.010148 0)
(-0.00763329 -0.00871708 0)
(-0.00593215 -0.0072831 0)
(-0.00446033 -0.00587575 0)
(-0.00321668 -0.00452738 0)
(-0.00219614 -0.00327319 0)
(-0.00138979 -0.00215138 0)
(-0.000784614 -0.00120348 0)
(-0.000363357 -0.0004745 0)
(-0.000109173 -1.3171e-05 0)
(-1.1027e-05 0.000125021 0)
(-5.26816e-05 0.00060857 0)
(-0.000364354 0.00205493 0)
(-0.00105167 0.00364386 0)
(-0.00205453 0.00530751 0)
(-0.00334132 0.00699273 0)
(-0.00489436 0.00865638 0)
(-0.00669437 0.0102643 0)
(-0.00872131 0.0117904 0)
(-0.0109554 0.0132154 0)
(-0.0133771 0.0145257 0)
(-0.0159669 0.0157122 0)
(-0.0187055 0.0167697 0)
(-0.021574 0.0176958 0)
(-0.0245535 0.0184903 0)
(-0.0276257 0.0191544 0)
(-0.0307725 0.0196906 0)
(-0.0339761 0.0201017 0)
(-0.0372192 0.020391 0)
(-0.0404849 0.0205617 0)
(-0.0437564 0.020617 0)
(-0.0470173 0.0205596 0)
(-0.0502515 0.020392 0)
(-0.053443 0.0201164 0)
(-0.0565761 0.0197345 0)
(-0.0596354 0.0192477 0)
(-0.0626053 0.0186573 0)
(-0.0654707 0.0179646 0)
(-0.0682167 0.0171707 0)
(-0.0708284 0.016277 0)
(-0.0732913 0.0152849 0)
(-0.0755911 0.0141965 0)
(-0.0777141 0.0130143 0)
(-0.0796468 0.0117414 0)
(-0.0813765 0.0103816 0)
(-0.082891 0.00893965 0)
(-0.0841789 0.00742106 0)
(-0.0852297 0.00583239 0)
(-0.086034 0.00418121 0)
(-0.0865834 0.00247612 0)
(-0.086871 0.000726752 0)
(-0.086891 -0.00105623 0)
(-0.0866394 -0.00286117 0)
(-0.0861137 -0.00467549 0)
(-0.0853133 -0.00648577 0)
(-0.0842393 -0.00827786 0)
(-0.0828949 -0.010037 0)
(-0.0812853 -0.0117479 0)
(-0.0794178 -0.013395 0)
(-0.0773019 -0.0149628 0)
(-0.0749493 -0.0164356 0)
(-0.0723737 -0.0177983 0)
(-0.0695911 -0.0190361 0)
(-0.0666194 -0.0201352 0)
(-0.0634787 -0.0210826 0)
(-0.0601907 -0.0218666 0)
(-0.056779 -0.0224772 0)
(-0.0532684 -0.022906 0)
(-0.0496852 -0.0231463 0)
(-0.0460567 -0.023194 0)
(-0.0424107 -0.0230469 0)
(-0.0387757 -0.0227054 0)
(-0.0351798 -0.0221727 0)
(-0.0316512 -0.0214545 0)
(-0.0282171 -0.0205591 0)
(-0.0249037 -0.019498 0)
(-0.0217356 -0.0182853 0)
(-0.0187357 -0.0169378 0)
(-0.0159244 -0.0154753 0)
(-0.0133197 -0.0139205 0)
(-0.0109363 -0.0122984 0)
(-0.00878593 -0.0106373 0)
(-0.00687666 -0.00896782 0)
(-0.00521284 -0.0073234 0)
(-0.00379494 -0.00574032 0)
(-0.00261957 -0.00425765 0)
(-0.00167945 -0.00291745 0)
(-0.000963175 -0.00176494 0)
(-0.000455042 -0.000848468 0)
(-0.000141063 -0.00021965 0)
(-1.56713e-05 6.39139e-05 0)
(-5.95013e-05 0.000803692 0)
(-0.000408463 0.00261191 0)
(-0.00117439 0.00453675 0)
(-0.00228703 0.00651205 0)
(-0.00370842 0.00848581 0)
(-0.00541678 0.0104157 0)
(-0.00738907 0.0122681 0)
(-0.00960193 0.0140174 0)
(-0.0120328 0.0156447 0)
(-0.0146598 0.0171366 0)
(-0.0174615 0.0184845 0)
(-0.020417 0.0196836 0)
(-0.023506 0.0207317 0)
(-0.0267084 0.0216291 0)
(-0.030005 0.0223774 0)
(-0.0333767 0.0229794 0)
(-0.0368051 0.0234385 0)
(-0.0402721 0.0237582 0)
(-0.0437601 0.0239422 0)
(-0.0472517 0.0239939 0)
(-0.0507299 0.0239162 0)
(-0.0541779 0.0237121 0)
(-0.0575793 0.0233837 0)
(-0.0609176 0.022933 0)
(-0.0641768 0.0223617 0)
(-0.0673408 0.0216713 0)
(-0.0703939 0.020863 0)
(-0.0733204 0.0199384 0)
(-0.0761049 0.0188988 0)
(-0.0787323 0.0177463 0)
(-0.0811877 0.0164832 0)
(-0.0834567 0.0151122 0)
(-0.0855253 0.0136372 0)
(-0.0873801 0.0120625 0)
(-0.0890084 0.0103936 0)
(-0.0903981 0.00863678 0)
(-0.0915382 0.00679966 0)
(-0.0924188 0.00489086 0)
(-0.0930308 0.00292021 0)
(-0.0933666 0.000898685 0)
(-0.0934203 -0.00116155 0)
(-0.0931871 -0.00324724 0)
(-0.0926641 -0.00534407 0)
(-0.0918502 -0.00743677 0)
(-0.0907462 -0.00950922 0)
(-0.089355 -0.0115446 0)
(-0.0876815 -0.0135256 0)
(-0.0857329 -0.0154345 0)
(-0.0835185 -0.0172534 0)
(-0.08105 -0.0189646 0)
(-0.0783414 -0.0205507 0)
(-0.0754087 -0.0219947 0)
(-0.0722705 -0.0232807 0)
(-0.0689472 -0.0243937 0)
(-0.0654614 -0.0253204 0)
(-0.0618373 -0.0260489 0)
(-0.0581011 -0.0265694 0)
(-0.0542802 -0.0268741 0)
(-0.0504031 -0.0269578 0)
(-0.0464994 -0.0268178 0)
(-0.0425989 -0.0264543 0)
(-0.0387319 -0.0258705 0)
(-0.0349283 -0.0250725 0)
(-0.0312173 -0.0240697 0)
(-0.0276273 -0.0228747 0)
(-0.024185 -0.0215033 0)
(-0.0209153 -0.0199745 0)
(-0.0178409 -0.0183105 0)
(-0.0149817 -0.0165368 0)
(-0.0123548 -0.0146817 0)
(-0.0099738 -0.0127767 0)
(-0.00784873 -0.0108562 0)
(-0.00598587 -0.0089574 0)
(-0.00438755 -0.00712057 0)
(-0.00305216 -0.0053887 0)
(-0.00197421 -0.00380769 0)
(-0.00114397 -0.00242636 0)
(-0.000547265 -0.00129638 0)
(-0.000172811 -0.000472131 0)
(-2.01872e-05 -1.32188e-05 0)
(-6.60747e-05 0.00102089 0)
(-0.000451195 0.00322925 0)
(-0.0012936 0.00552271 0)
(-0.0025133 0.00783723 0)
(-0.00406628 0.0101224 0)
(-0.00592675 0.0123373 0)
(-0.00806799 0.0144495 0)
(-0.0104634 0.0164342 0)
(-0.0130875 0.0182733 0)
(-0.0159162 0.0199544 0)
(-0.018926 0.0214694 0)
(-0.0220944 0.0228142 0)
(-0.0253996 0.0239872 0)
(-0.0288205 0.0249893 0)
(-0.0323368 0.0258227 0)
(-0.0359287 0.0264907 0)
(-0.0395769 0.0269971 0)
(-0.0432628 0.027346 0)
(-0.046968 0.0275413 0)
(-0.0506746 0.0275868 0)
(-0.0543651 0.0274859 0)
(-0.0580223 0.0272414 0)
(-0.061629 0.0268561 0)
(-0.0651684 0.026332 0)
(-0.0686239 0.0256709 0)
(-0.071979 0.0248745 0)
(-0.0752173 0.0239442 0)
(-0.0783226 0.0228818 0)
(-0.081279 0.0216889 0)
(-0.0840709 0.0203677 0)
(-0.0866828 0.018921 0)
(-0.0890997 0.017352 0)
(-0.0913071 0.0156649 0)
(-0.0932909 0.0138648 0)
(-0.0950379 0.0119577 0)
(-0.0965354 0.00995101 0)
(-0.0977718 0.00785312 0)
(-0.0987364 0.0056738 0)
(-0.0994198 0.0034241 0)
(-0.0998138 0.00111638 0)
(-0.0999115 -0.00123572 0)
(-0.0997078 -0.00361731 0)
(-0.0991991 -0.0060123 0)
(-0.0983839 -0.00840355 0)
(-0.0972623 -0.0107729 0)
(-0.0958367 -0.0131016 0)
(-0.0941117 -0.0153699 0)
(-0.0920941 -0.017558 0)
(-0.0897929 -0.0196456 0)
(-0.0872197 -0.0216127 0)
(-0.0843884 -0.0234396 0)
(-0.0813153 -0.025107 0)
(-0.078019 -0.0265967 0)
(-0.0745204 -0.0278917 0)
(-0.0708426 -0.0289765 0)