/*--------------------------------*- C++ -*----------------------------------*\
  =========                 |
  \\      /  F ield         | OpenFOAM: The Open Source CFD Toolbox
   \\    /   O peration     | Website:  https://openfoam.org
    \\  /    A nd           | Version:  7
     \\/     M anipulation  |
\*---------------------------------------------------------------------------*/
FoamFile
{
    version     2.0;
    format      ascii;
    class       volVectorField;
    location    "0.075";
    object      U;
}
// * * * * * * * * * * * * * * * * * * * * * * * * * * * * * * * * * * * * * //

dimensions      [0 1 -1 0 0 0 0];

internalField   nonuniform List<vector> 
6400
(
(8.056e-06 -4.36041e-06 0)
(1.98874e-05 -6.24093e-06 0)
(3.10919e-05 -4.95827e-06 0)
(2.96789e-05 -5.2328e-07 0)
(1.46127e-05 4.64669e-06 0)
(-1.61202e-05 9.8314e-06 0)
(-6.19246e-05 1.46543e-05 0)
(-0.000121607 1.89643e-05 0)
(-0.0001938 2.27464e-05 0)
(-0.000276999 2.59946e-05 0)
(-0.000369654 2.87143e-05 0)
(-0.000470279 3.09438e-05 0)
(-0.000577485 3.27302e-05 0)
(-0.000689959 3.41136e-05 0)
(-0.000806471 3.5136e-05 0)
(-0.000925892 3.58347e-05 0)
(-0.00104719 3.62344e-05 0)
(-0.00116942 3.6359e-05 0)
(-0.00129171 3.62326e-05 0)
(-0.00141328 3.58794e-05 0)
(-0.0015334 3.53279e-05 0)
(-0.00165145 3.46007e-05 0)
(-0.00176681 3.37129e-05 0)
(-0.00187897 3.26801e-05 0)
(-0.00198742 3.1515e-05 0)
(-0.00209172 3.02251e-05 0)
(-0.00219146 2.88201e-05 0)
(-0.00228627 2.73116e-05 0)
(-0.0023758 2.57081e-05 0)
(-0.00245973 2.40158e-05 0)
(-0.00253776 2.22419e-05 0)
(-0.00260962 2.03926e-05 0)
(-0.00267504 1.84704e-05 0)
(-0.00273379 1.64755e-05 0)
(-0.00278563 1.44115e-05 0)
(-0.00283036 1.22862e-05 0)
(-0.00286778 1.01078e-05 0)
(-0.00289772 7.88096e-06 0)
(-0.00292002 5.60735e-06 0)
(-0.00293452 3.28908e-06 0)
(-0.00294111 9.312e-07 0)
(-0.00293968 -1.45806e-06 0)
(-0.00293014 -3.86991e-06 0)
(-0.00291245 -6.2968e-06 0)
(-0.00288656 -8.73184e-06 0)
(-0.00285247 -1.11678e-05 0)
(-0.00281022 -1.35957e-05 0)
(-0.00275985 -1.60046e-05 0)
(-0.00270148 -1.8382e-05 0)
(-0.00263524 -2.07148e-05 0)
(-0.00256132 -2.2989e-05 0)
(-0.00247994 -2.51901e-05 0)
(-0.00239139 -2.73024e-05 0)
(-0.00229601 -2.93092e-05 0)
(-0.00219418 -3.1193e-05 0)
(-0.00208637 -3.29351e-05 0)
(-0.00197308 -3.45157e-05 0)
(-0.0018549 -3.5914e-05 0)
(-0.00173248 -3.7108e-05 0)
(-0.00160655 -3.80745e-05 0)
(-0.00147789 -3.87896e-05 0)
(-0.00134738 -3.92301e-05 0)
(-0.00121596 -3.93731e-05 0)
(-0.00108464 -3.91948e-05 0)
(-0.000954517 -3.86705e-05 0)
(-0.000826754 -3.77758e-05 0)
(-0.000702584 -3.6486e-05 0)
(-0.000583311 -3.47752e-05 0)
(-0.000470298 -3.26172e-05 0)
(-0.000364969 -2.9987e-05 0)
(-0.00026879 -2.68618e-05 0)
(-0.000183251 -2.32214e-05 0)
(-0.000109841 -1.90521e-05 0)
(-4.99936e-05 -1.43558e-05 0)
(-4.99696e-06 -9.17321e-06 0)
(2.417e-05 -3.63399e-06 0)
(3.71229e-05 1.94373e-06 0)
(3.47402e-05 6.82591e-06 0)
(2.12307e-05 9.37419e-06 0)
(6.27674e-06 6.27146e-06 0)
(1.15813e-05 -2.10619e-05 0)
(2.74345e-05 -2.12004e-05 0)
(2.7182e-05 -5.81932e-06 0)
(-1.3671e-06 1.95373e-05 0)
(-6.51901e-05 4.83378e-05 0)
(-0.000166717 7.75343e-05 0)
(-0.000305381 0.000105387 0)
(-0.000479179 0.000130928 0)
(-0.000685174 0.000153747 0)
(-0.000919933 0.000173706 0)
(-0.00117982 0.000190799 0)
(-0.00146118 0.000205105 0)
(-0.00176044 0.000216762 0)
(-0.00207419 0.000225943 0)
(-0.00239919 0.000232826 0)
(-0.00273239 0.000237592 0)
(-0.00307099 0.000240408 0)
(-0.00341237 0.000241433 0)
(-0.00375414 0.000240825 0)
(-0.0040941 0.000238733 0)
(-0.00443022 0.000235287 0)
(-0.00476065 0.000230608 0)
(-0.00508374 0.000224808 0)
(-0.00539795 0.000217992 0)
(-0.00570184 0.000210249 0)
(-0.00599415 0.000201656 0)
(-0.00627369 0.000192279 0)
(-0.0065394 0.000182181 0)
(-0.00679026 0.00017142 0)
(-0.00702535 0.000160044 0)
(-0.00724383 0.0001481 0)
(-0.00744489 0.000135625 0)
(-0.00762781 0.000122653 0)
(-0.0077919 0.000109215 0)
(-0.00793653 9.53438e-05 0)
(-0.00806111 8.10756e-05 0)
(-0.00816511 6.64441e-05 0)
(-0.00824804 5.14811e-05 0)
(-0.00830946 3.62181e-05 0)
(-0.00834898 2.06901e-05 0)
(-0.00836628 4.93641e-06 0)
(-0.00836108 -1.09991e-05 0)
(-0.00833318 -2.7069e-05 0)
(-0.00828242 -4.32239e-05 0)
(-0.00820875 -5.94101e-05 0)
(-0.00811218 -7.55688e-05 0)
(-0.00799284 -9.16356e-05 0)
(-0.00785091 -0.000107539 0)
(-0.0076867 -0.000123202 0)
(-0.00750064 -0.000138541 0)
(-0.00729326 -0.000153464 0)
(-0.00706524 -0.000167877 0)
(-0.00681741 -0.000181674 0)
(-0.00655071 -0.000194748 0)
(-0.00626626 -0.000206984 0)
(-0.00596537 -0.000218259 0)
(-0.00564947 -0.000228446 0)
(-0.00532021 -0.000237413 0)
(-0.0049794 -0.000245024 0)
(-0.00462906 -0.000251137 0)
(-0.00427139 -0.000255609 0)
(-0.00390879 -0.000258295 0)
(-0.00354386 -0.000259052 0)
(-0.00317937 -0.000257735 0)
(-0.00281831 -0.000254202 0)
(-0.00246383 -0.000248316 0)
(-0.00211924 -0.000239944 0)
(-0.00178802 -0.000228964 0)
(-0.00147378 -0.000215266 0)
(-0.00118019 -0.000198765 0)
(-0.00091099 -0.000179408 0)
(-0.000669873 -0.000157196 0)
(-0.000460379 -0.00013222 0)
(-0.000285725 -0.000104717 0)
(-0.00014853 -7.51826e-05 0)
(-5.03772e-05 -4.45829e-05 0)
(8.8055e-06 -1.47259e-05 0)
(3.18469e-05 1.1076e-05 0)
(2.68351e-05 2.67631e-05 0)
(9.39597e-06 2.12232e-05 0)
(7.33886e-06 -3.36972e-05 0)
(9.71173e-06 -2.42408e-05 0)
(-1.8266e-05 2.29345e-05 0)
(-9.10414e-05 8.90161e-05 0)
(-0.00021566 0.000163272 0)
(-0.000394797 0.000239051 0)
(-0.000628045 0.00031209 0)
(-0.000912816 0.000379917 0)
(-0.00124524 0.000441217 0)
(-0.00162066 0.000495351 0)
(-0.00203397 0.000542127 0)
(-0.0024799 0.000581621 0)
(-0.00295323 0.000614067 0)
(-0.00344887 0.000639813 0)
(-0.00396195 0.000659268 0)
(-0.00448784 0.000672855 0)
(-0.00502222 0.000681001 0)
(-0.00556106 0.000684132 0)
(-0.0061006 0.000682657 0)
(-0.00663739 0.000676967 0)
(-0.00716824 0.000667421 0)
(-0.00769026 0.000654346 0)
(-0.00820074 0.000638048 0)
(-0.00869726 0.000618814 0)
(-0.00917754 0.000596896 0)
(-0.00963954 0.000572518 0)
(-0.0100814 0.00054588 0)
(-0.0105013 0.000517162 0)
(-0.0108976 0.000486525 0)
(-0.011269 0.000454115 0)
(-0.011614 0.000420061 0)
(-0.0119314 0.000384482 0)
(-0.01222 0.000347483 0)
(-0.0124786 0.000309166 0)
(-0.0127064 0.00026963 0)
(-0.0129024 0.000228972 0)
(-0.0130658 0.000187289 0)
(-0.0131957 0.000144676 0)
(-0.0132915 0.000101235 0)
(-0.0133527 5.70697e-05 0)
(-0.0133787 1.22962e-05 0)
(-0.0133691 -3.29621e-05 0)
(-0.0133236 -7.85714e-05 0)
(-0.013242 -0.000124388 0)
(-0.0131243 -0.000170255 0)
(-0.0129705 -0.000216003 0)
(-0.0127807 -0.000261446 0)
(-0.0125554 -0.000306383 0)
(-0.0122951 -0.000350594 0)
(-0.0120005 -0.000393843 0)
(-0.0116724 -0.000435876 0)
(-0.0113119 -0.000476423 0)
(-0.0109204 -0.000515193 0)
(-0.0104994 -0.000551882 0)
(-0.0100507 -0.000586167 0)
(-0.00957636 -0.00061771 0)
(-0.00907862 -0.000646159 0)
(-0.0085601 -0.000671148 0)
(-0.00802365 -0.0006923 0)
(-0.00747244 -0.000709231 0)
(-0.00690989 -0.000721552 0)
(-0.00633976 -0.000728871 0)
(-0.00576607 -0.000730798 0)
(-0.00519313 -0.000726951 0)
(-0.00462552 -0.00071696 0)
(-0.00406809 -0.000700472 0)
(-0.00352589 -0.000677164 0)
(-0.00300419 -0.000646753 0)
(-0.00250838 -0.000609013 0)
(-0.00204394 -0.000563805 0)
(-0.00161633 -0.000511111 0)
(-0.00123086 -0.0004511 0)
(-0.000892476 -0.000384221 0)
(-0.000605546 -0.000311359 0)
(-0.000373433 -0.000234087 0)
(-0.000197968 -0.000155091 0)
(-7.87028e-05 -7.88509e-05 0)
(-1.18375e-05 -1.26331e-05 0)
(1.15218e-05 3.18793e-05 0)
(6.92305e-06 3.48229e-05 0)
(1.95612e-06 -3.61411e-05 0)
(-1.66874e-05 1.43192e-06 0)
(-8.47503e-05 9.48182e-05 0)
(-0.000212767 0.000216983 0)
(-0.000406479 0.000352264 0)
(-0.000668402 0.000490085 0)
(-0.000997815 0.00062352 0)
(-0.00139163 0.000748217 0)
(-0.00184529 0.000861605 0)
(-0.00235321 0.000962345 0)
(-0.00290922 0.00104988 0)
(-0.0035069 0.00112417 0)
(-0.00413975 0.00118551 0)
(-0.00480135 0.00123441 0)
(-0.00548551 0.00127153 0)
(-0.00618632 0.00129758 0)
(-0.00689818 0.0013133 0)
(-0.00761583 0.00131946 0)
(-0.00833437 0.0013168 0)
(-0.00904926 0.00130603 0)
(-0.0097563 0.00128782 0)
(-0.0104516 0.00126277 0)
(-0.0111316 0.00123148 0)
(-0.011793 0.00119447 0)
(-0.0124328 0.00115222 0)
(-0.0130483 0.00110517 0)
(-0.0136368 0.00105371 0)
(-0.0141961 0.000998183 0)
(-0.014724 0.000938915 0)
(-0.0152185 0.000876191 0)
(-0.0156777 0.000810265 0)
(-0.0161 0.000741371 0)
(-0.0164837 0.000669725 0)
(-0.0168275 0.000595532 0)
(-0.0171301 0.000518992 0)
(-0.0173901 0.000440296 0)
(-0.0176065 0.000359636 0)
(-0.0177782 0.000277202 0)
(-0.0179045 0.000193197 0)
(-0.0179844 0.000107832 0)
(-0.0180175 2.13316e-05 0)
(-0.0180031 -6.60614e-05 0)
(-0.0179409 -0.000154087 0)
(-0.0178306 -0.000242464 0)
(-0.0176722 -0.000330887 0)
(-0.0174659 -0.000419025 0)
(-0.0172118 -0.000506518 0)
(-0.0169105 -0.000592977 0)
(-0.0165628 -0.00067798 0)
(-0.0161696 -0.000761073 0)
(-0.015732 -0.00084177 0)
(-0.0152517 -0.000919552 0)
(-0.0147303 -0.000993867 0)
(-0.01417 -0.00106413 0)
(-0.013573 -0.00112973 0)
(-0.0129423 -0.00119003 0)
(-0.0122807 -0.00124436 0)
(-0.0115918 -0.00129202 0)
(-0.0108793 -0.00133232 0)
(-0.0101473 -0.00136452 0)
(-0.00940055 -0.0013879 0)
(-0.00864376 -0.00140174 0)
(-0.00788227 -0.00140531 0)
(-0.00712168 -0.00139792 0)
(-0.00636794 -0.0013789 0)
(-0.0056273 -0.00134763 0)
(-0.00490628 -0.00130355 0)
(-0.00421159 -0.00124621 0)
(-0.00355007 -0.00117529 0)
(-0.00292862 -0.00109064 0)
(-0.002354 -0.000992379 0)
(-0.00183273 -0.000881001 0)
(-0.0013708 -0.000757542 0)
(-0.000973385 -0.000623832 0)
(-0.000644423 -0.000482885 0)
(-0.00038607 -0.000339498 0)
(-0.00019797 -0.000201144 0)
(-7.63422e-05 -7.91354e-05 0)
(-1.35284e-05 9.56526e-06 0)
(2.19782e-06 3.75905e-05 0)
(-3.80914e-06 -2.18549e-05 0)
(-4.6511e-05 6.33956e-05 0)
(-0.000160349 0.000218484 0)
(-0.000349511 0.00041049 0)
(-0.000617227 0.000619385 0)
(-0.000964951 0.000831227 0)
(-0.00139124 0.00103648 0)
(-0.00189237 0.00122888 0)
(-0.00246306 0.00140455 0)
(-0.00309699 0.00156126 0)
(-0.00378716 0.00169796 0)
(-0.0045262 0.0018144 0)
(-0.00530662 0.00191087 0)
(-0.00612097 0.00198803 0)
(-0.00696199 0.00204676 0)
(-0.0078227 0.00208808 0)
(-0.00869646 0.00211309 0)
(-0.00957698 0.00212292 0)
(-0.0104584 0.00211867 0)
(-0.0113351 0.00210144 0)
(-0.0122022 0.00207226 0)
(-0.0130548 0.0020321 0)
(-0.0138887 0.00198185 0)
(-0.0146997 0.00192237 0)
(-0.0154842 0.00185441 0)
(-0.0162388 0.00177866 0)
(-0.0169604 0.00169575 0)
(-0.017646 0.00160625 0)
(-0.0182929 0.00151068 0)
(-0.0188988 0.0014095 0)
(-0.0194614 0.00130314 0)
(-0.0199785 0.00119197 0)
(-0.0204483 0.00107636 0)
(-0.0208689 0.000956655 0)
(-0.0212387 0.000833171 0)
(-0.0215563 0.000706231 0)
(-0.0218202 0.000576151 0)
(-0.0220294 0.00044325 0)
(-0.0221826 0.00030786 0)
(-0.022279 0.000170326 0)
(-0.0223178 3.10176e-05 0)
(-0.0222985 -0.000109671 0)
(-0.0222205 -0.000251315 0)
(-0.0220836 -0.000393458 0)
(-0.0218878 -0.000535606 0)
(-0.0216333 -0.000677223 0)
(-0.0213204 -0.000817729 0)
(-0.0209499 -0.000956499 0)
(-0.0205225 -0.00109285 0)
(-0.0200396 -0.00122607 0)
(-0.0195027 -0.00135536 0)
(-0.0189135 -0.00147991 0)
(-0.0182744 -0.00159884 0)
(-0.0175878 -0.00171121 0)
(-0.0168566 -0.00181606 0)
(-0.0160843 -0.00191236 0)
(-0.0152746 -0.00199907 0)
(-0.0144316 -0.0020751 0)
(-0.0135599 -0.00213932 0)
(-0.0126646 -0.00219062 0)
(-0.0117512 -0.00222786 0)
(-0.0108256 -0.00224991 0)
(-0.00989404 -0.00225566 0)
(-0.00896336 -0.00224405 0)
(-0.00804063 -0.00221408 0)
(-0.00713328 -0.00216482 0)
(-0.00624902 -0.00209549 0)
(-0.00539577 -0.00200546 0)
(-0.00458153 -0.00189435 0)
(-0.00381431 -0.00176208 0)
(-0.00310193 -0.001609 0)
(-0.00245185 -0.00143607 0)
(-0.00187088 -0.00124506 0)
(-0.0013649 -0.00103892 0)
(-0.000938418 -0.00082226 0)
(-0.000594169 -0.00060204 0)
(-0.000332386 -0.000388578 0)
(-0.000150108 -0.000196761 0)
(-4.22741e-05 -4.78326e-05 0)
(-3.13427e-06 2.553e-05 0)
(-9.30697e-06 8.35564e-06 0)
(-7.66064e-05 0.000163774 0)
(-0.000238107 0.000397559 0)
(-0.00049084 0.000673195 0)
(-0.000834518 0.000967619 0)
(-0.00126905 0.00126415 0)
(-0.00179184 0.00155097 0)
(-0.00239824 0.00182009 0)
(-0.0030822 0.00206633 0)
(-0.00383665 0.00228657 0)
(-0.00465386 0.00247922 0)
(-0.00552567 0.00264374 0)
(-0.00644377 0.00278038 0)
(-0.00739985 0.00288988 0)
(-0.0083858 0.00297335 0)
(-0.00939376 0.00303212 0)
(-0.0104162 0.00306764 0)
(-0.011446 0.00308144 0)
(-0.0124763 0.00307505 0)
(-0.013501 0.00304995 0)
(-0.0145142 0.00300757 0)
(-0.0155103 0.0029493 0)
(-0.0164843 0.0028764 0)
(-0.0174316 0.00279007 0)
(-0.0183478 0.00269138 0)
(-0.019229 0.00258135 0)
(-0.0200716 0.00246087 0)
(-0.020872 0.00233078 0)
(-0.0216272 0.00219182 0)
(-0.0223343 0.00204468 0)
(-0.0229906 0.00188997 0)
(-0.0235938 0.00172828 0)
(-0.0241415 0.00156012 0)
(-0.0246316 0.00138601 0)
(-0.0250624 0.00120643 0)
(-0.025432 0.00102185 0)
(-0.0257388 0.000832748 0)
(-0.0259815 0.000639588 0)
(-0.0261589 0.000442863 0)
(-0.0262698 0.000243088 0)
(-0.0263135 4.08027e-05 0)
(-0.0262892 -0.000163414 0)
(-0.0261964 -0.000368941 0)
(-0.0260349 -0.00057511 0)
(-0.0258047 -0.000781201 0)
(-0.0255061 -0.000986435 0)
(-0.0251394 -0.00118997 0)
(-0.0247055 -0.00139089 0)
(-0.0242056 -0.00158823 0)
(-0.0236409 -0.00178093 0)
(-0.0230134 -0.00196788 0)
(-0.0223253 -0.00214787 0)
(-0.021579 -0.00231966 0)
(-0.0207776 -0.0024819 0)
(-0.0199244 -0.00263322 0)
(-0.0190235 -0.00277214 0)
(-0.0180791 -0.00289717 0)
(-0.017096 -0.00300676 0)
(-0.0160796 -0.00309933 0)
(-0.0150358 -0.00317329 0)
(-0.0139707 -0.00322703 0)
(-0.0128913 -0.00325898 0)
(-0.0118047 -0.00326761 0)
(-0.0107187 -0.00325143 0)
(-0.00964126 -0.00320908 0)
(-0.00858091 -0.00313933 0)
(-0.00754633 -0.00304117 0)
(-0.00654641 -0.00291382 0)
(-0.00559015 -0.00275686 0)
(-0.00468645 -0.00257035 0)
(-0.00384401 -0.00235495 0)
(-0.00307108 -0.00211216 0)
(-0.00237521 -0.00184459 0)
(-0.00176297 -0.00155636 0)
(-0.0012396 -0.00125368 0)
(-0.000808647 -0.000945521 0)
(-0.000471376 -0.000644708 0)
(-0.000226234 -0.00036902 0)
(-7.1528e-05 -0.00014285 0)
(-8.35747e-06 -2.05912e-06 0)
(-1.43293e-05 5.39562e-05 0)
(-0.00010551 0.000302622 0)
(-0.00031434 0.000632631 0)
(-0.000630535 0.00100592 0)
(-0.00104998 0.00139745 0)
(-0.00157067 0.00178854 0)
(-0.00218852 0.00216561 0)
(-0.0028977 0.00251917 0)
(-0.00369126 0.0028429 0)
(-0.00456134 0.00313285 0)
(-0.00549947 0.00338689 0)
(-0.00649678 0.00360422 0)
(-0.00754422 0.00378496 0)
(-0.0086328 0.00392997 0)
(-0.00975365 0.00404055 0)
(-0.0108982 0.00411833 0)
(-0.0120581 0.00416515 0)
(-0.0132255 0.00418292 0)
(-0.014393 0.0041736 0)
(-0.0155536 0.00413912 0)
(-0.0167008 0.00408136 0)
(-0.0178284 0.00400211 0)
(-0.0189309 0.00390305 0)
(-0.0200029 0.00378577 0)
(-0.0210396 0.00365172 0)
(-0.0220365 0.00350223 0)
(-0.0229895 0.00333853 0)
(-0.0238947 0.00316174 0)
(-0.0247487 0.00297287 0)
(-0.0255481 0.00277286 0)
(-0.0262899 0.00256256 0)
(-0.0269715 0.00234274 0)
(-0.0275902 0.00211416 0)
(-0.0281437 0.0018775 0)
(-0.0286298 0.00163343 0)
(-0.0290466 0.00138261 0)
(-0.0293924 0.00112568 0)
(-0.0296656 0.000863299 0)
(-0.0298647 0.000596142 0)
(-0.0299887 0.000324914 0)
(-0.0300365 5.03596e-05 0)
(-0.0300075 -0.000226731 0)
(-0.029901 -0.00050551 0)
(-0.0297169 -0.000785068 0)
(-0.0294551 -0.00106442 0)
(-0.029116 -0.00134252 0)
(-0.0287 -0.0016182 0)
(-0.0282083 -0.00189025 0)
(-0.0276419 -0.00215735 0)
(-0.0270026 -0.00241807 0)
(-0.0262924 -0.00267091 0)
(-0.0255137 -0.00291426 0)
(-0.0246696 -0.00314643 0)
(-0.0237633 -0.00336564 0)
(-0.0227987 -0.00357001 0)
(-0.0217802 -0.0037576 0)
(-0.0207127 -0.00392641 0)
(-0.0196015 -0.00407438 0)
(-0.0184528 -0.0041994 0)
(-0.0172729 -0.00429938 0)
(-0.0160688 -0.0043722 0)
(-0.0148483 -0.00441579 0)
(-0.0136191 -0.00442815 0)
(-0.01239 -0.00440737 0)
(-0.0111698 -0.00435172 0)
(-0.00996783 -0.00425964 0)
(-0.00879359 -0.00412988 0)
(-0.00765685 -0.00396155 0)
(-0.00656741 -0.00375423 0)
(-0.00553498 -0.00350814 0)
(-0.00456903 -0.00322431 0)
(-0.00367853 -0.00290481 0)
(-0.00287178 -0.0025531 0)
(-0.00215608 -0.00217448 0)
(-0.00153755 -0.00177658 0)
(-0.00102081 -0.00137019 0)
(-0.000608474 -0.000970154 0)
(-0.000300767 -0.000596434 0)
(-9.96773e-05 -0.000275493 0)
(-1.31889e-05 -4.46991e-05 0)
(-1.88388e-05 0.000114033 0)
(-0.000132624 0.000478594 0)
(-0.000387135 0.00092257 0)
(-0.000765148 0.00140761 0)
(-0.00125869 0.00190763 0)
(-0.00186366 0.00240271 0)
(-0.00257424 0.002878 0)
(-0.00338328 0.00332285 0)
(-0.00428274 0.00373 0)
(-0.00526391 0.00409482 0)
(-0.00631754 0.00441469 0)
(-0.00743405 0.00468855 0)
(-0.00860376 0.00491646 0)
(-0.00981699 0.00509935 0)
(-0.0110642 0.00523874 0)
(-0.0123362 0.00533656 0)
(-0.0136241 0.00539501 0)
(-0.0149194 0.00541643 0)
(-0.016214 0.00540322 0)
(-0.0175003 0.00535776 0)
(-0.0187712 0.00528241 0)
(-0.0200201 0.0051794 0)
(-0.0212408 0.00505086 0)
(-0.0224276 0.00489879 0)
(-0.023575 0.00472502 0)
(-0.0246782 0.00453127 0)
(-0.0257327 0.00431912 0)
(-0.0267342 0.00408999 0)
(-0.0276787 0.00384522 0)
(-0.0285628 0.00358599 0)
(-0.0293831 0.00331342 0)
(-0.0301365 0.00302854 0)
(-0.0308202 0.00273231 0)
(-0.0314317 0.00242564 0)
(-0.0319686 0.00210941 0)
(-0.0324287 0.00178447 0)
(-0.0328101 0.00145168 0)
(-0.0331111 0.00111189 0)
(-0.0333301 0.000765984 0)
(-0.033466 0.000414893 0)
(-0.0335177 5.95834e-05 0)
(-0.0334843 -0.000298915 0)
(-0.0333653 -0.0006595 0)
(-0.0331604 -0.00102099 0)
(-0.0328697 -0.00138212 0)
(-0.0324934 -0.0017415 0)
(-0.0320324 -0.00209768 0)
(-0.0314875 -0.00244905 0)
(-0.0308603 -0.00279391 0)
(-0.0301525 -0.00313045 0)
(-0.0293664 -0.00345673 0)
(-0.0285047 -0.00377068 0)
(-0.0275707 -0.00407014 0)
(-0.0265681 -0.00435281 0)
(-0.0255011 -0.00461632 0)
(-0.0243746 -0.00485818 0)
(-0.0231938 -0.00507584 0)
(-0.0219648 -0.00526667 0)
(-0.020694 -0.00542804 0)
(-0.0193885 -0.00555726 0)
(-0.0180561 -0.00565169 0)
(-0.0167049 -0.00570873 0)
(-0.0153437 -0.00572588 0)
(-0.0139816 -0.0057008 0)
(-0.0126285 -0.00563134 0)
(-0.0112942 -0.00551564 0)
(-0.00998904 -0.00535221 0)
(-0.00872359 -0.00514006 0)
(-0.00750834 -0.00487879 0)
(-0.00635373 -0.00456879 0)
(-0.00526993 -0.00421145 0)
(-0.00426666 -0.00380945 0)
(-0.00335297 -0.00336705 0)
(-0.00253702 -0.00289058 0)
(-0.00182591 -0.00238899 0)
(-0.00122552 -0.00187453 0)
(-0.000740036 -0.00136361 0)
(-0.000371639 -0.000877686 0)
(-0.000125991 -0.000444399 0)
(-1.75425e-05 -0.000101435 0)
(-2.28769e-05 0.000187486 0)
(-0.000157763 0.000689767 0)
(-0.000455633 0.0012652 0)
(-0.000892966 0.00187603 0)
(-0.00145802 0.00249585 0)
(-0.00214455 0.00310413 0)
(-0.00294494 0.00368521 0)
(-0.00385055 0.00422767 0)
(-0.00485218 0.00472355 0)
(-0.00594013 0.00516768 0)
(-0.00710435 0.00555709 0)
(-0.00833456 0.0058905 0)
(-0.00962041 0.00616796 0)
(-0.0109516 0.00639049 0)
(-0.012318 0.00655985 0)
(-0.0137099 0.00667828 0)
(-0.0151177 0.00674834 0)
(-0.0165325 0.0067728 0)
(-0.0179456 0.00675454 0)
(-0.019349 0.00669641 0)
(-0.0207349 0.00660125 0)
(-0.0220964 0.00647176 0)
(-0.0234267 0.00631053 0)
(-0.0247197 0.00612 0)
(-0.0259697 0.00590243 0)
(-0.0271712 0.00565993 0)
(-0.0283194 0.00539446 0)
(-0.0294097 0.00510778 0)
(-0.0304379 0.00480154 0)
(-0.0314001 0.00447724 0)
(-0.0322928 0.00413627 0)
(-0.0331125 0.00377992 0)
(-0.0338563 0.0034094 0)
(-0.0345213 0.00302587 0)
(-0.035105 0.00263042 0)
(-0.0356051 0.00222414 0)
(-0.0360195 0.0018081 0)
(-0.0363463 0.00138338 0)
(-0.0365839 0.00095111 0)
(-0.036731 0.000512439 0)
(-0.0367863 6.85892e-05 0)
(-0.0367491 -0.000379148 0)
(-0.0366187 -0.000829393 0)
(-0.0363949 -0.00128067 0)
(-0.0360777 -0.00173138 0)
(-0.0356675 -0.00217982 0)
(-0.0351651 -0.00262414 0)
(-0.0345714 -0.00306238 0)
(-0.0338882 -0.00349241 0)
(-0.0331174 -0.00391197 0)
(-0.0322614 -0.00431866 0)
(-0.0313232 -0.00470992 0)
(-0.0303063 -0.00508306 0)
(-0.0292147 -0.00543527 0)
(-0.0280531 -0.00576359 0)
(-0.0268265 -0.00606496 0)
(-0.0255408 -0.00633625 0)
(-0.0242023 -0.00657424 0)
(-0.0228182 -0.00677568 0)
(-0.0213959 -0.00693731 0)
(-0.0199439 -0.00705589 0)
(-0.0184707 -0.00712829 0)
(-0.0169859 -0.00715149 0)
(-0.0154992 -0.00712266 0)
(-0.0140211 -0.00703927 0)
(-0.0125621 -0.00689912 0)
(-0.0111333 -0.00670051 0)
(-0.00974583 -0.00644231 0)
(-0.0084109 -0.00612415 0)
(-0.00713964 -0.00574661 0)
(-0.00594295 -0.00531142 0)
(-0.00483129 -0.0048218 0)
(-0.00381452 -0.00428275 0)
(-0.00290175 -0.00370152 0)
(-0.00210118 -0.00308812 0)
(-0.00142007 -0.00245597 0)
(-0.000864264 -0.0018226 0)
(-0.000437935 -0.00121041 0)
(-0.000150221 -0.000647502 0)
(-2.14215e-05 -0.00017113 0)
(-2.65268e-05 0.000273244 0)
(-0.000180962 0.000933968 0)
(-0.000519629 0.00165784 0)
(-0.00101332 0.00240829 0)
(-0.0016468 0.00315913 0)
(-0.00241172 0.0038897 0)
(-0.00329864 0.00458397 0)
(-0.00429734 0.00523006 0)
(-0.00539738 0.00581958 0)
(-0.00658804 0.00634702 0)
(-0.00785841 0.00680916 0)
(-0.00919744 0.00720464 0)
(-0.0105941 0.00753353 0)
(-0.0120376 0.00779702 0)
(-0.0135171 0.00799708 0)
(-0.0150223 0.0081363 0)
(-0.0165434 0.00821764 0)
(-0.0180706 0.00824433 0)
(-0.0195951 0.0082197 0)
(-0.0211082 0.00814711 0)
(-0.0226019 0.00802989 0)
(-0.0240685 0.00787123 0)
(-0.0255012 0.00767421 0)
(-0.0268933 0.00744172 0)
(-0.0282387 0.00717648 0)
(-0.0295318 0.00688101 0)
(-0.0307672 0.00655765 0)
(-0.0319402 0.00620854 0)
(-0.0330462 0.00583567 0)
(-0.0340812 0.00544086 0)
(-0.0350411 0.0050258 0)
(-0.0359226 0.00459207 0)
(-0.0367223 0.00414114 0)
(-0.0374372 0.00367442 0)
(-0.0380646 0.00319325 0)
(-0.0386021 0.00269896 0)
(-0.0390474 0.00219287 0)
(-0.0393985 0.00167631 0)
(-0.0396536 0.00115064 0)
(-0.0398114 0.00061727 0)
(-0.0398706 7.76962e-05 0)
(-0.0398302 -0.00046651 0)
(-0.0396898 -0.00101367 0)
(-0.0394488 -0.00156198 0)
(-0.0391075 -0.00210952 0)
(-0.0386662 -0.00265419 0)
(-0.0381257 -0.00319379 0)
(-0.0374872 -0.00372591 0)
(-0.0367523 -0.00424798 0)
(-0.0359232 -0.00475728 0)
(-0.0350025 -0.00525091 0)
(-0.0339934 -0.00572577 0)
(-0.0328995 -0.00617863 0)
(-0.0317252 -0.00660609 0)
(-0.0304754 -0.0070046 0)
(-0.0291555 -0.0073705 0)
(-0.0277718 -0.00770001 0)
(-0.026331 -0.0079893 0)
(-0.0248406 -0.00823447 0)
(-0.0233087 -0.00843164 0)
(-0.021744 -0.00857698 0)
(-0.020156 -0.00866676 0)
(-0.0185545 -0.00869742 0)
(-0.0169499 -0.00866566 0)
(-0.0153532 -0.00856852 0)
(-0.0137757 -0.00840346 0)
(-0.012229 -0.00816854 0)
(-0.010725 -0.00786251 0)
(-0.00927542 -0.00748501 0)
(-0.00789219 -0.00703676 0)
(-0.0065869 -0.00651983 0)
(-0.00537081 -0.00593788 0)
(-0.00425467 -0.00529657 0)
(-0.00324857 -0.00460389 0)
(-0.00236192 -0.00387072 0)
(-0.0016034 -0.00311134 0)
(-0.000980539 -0.00234405 0)
(-0.000499429 -0.00159172 0)
(-0.000172381 -0.000882462 0)
(-2.48666e-05 -0.000252629 0)
(-2.98491e-05 0.000370324 0)
(-0.00020237 0.00120899 0)
(-0.000579249 0.00209766 0)
(-0.00112622 0.00300125 0)
(-0.00182488 0.00389419 0)
(-0.00266483 0.00475605 0)
(-0.00363483 0.00557079 0)
(-0.00472311 0.00632639 0)
(-0.00591792 0.00701426 0)
(-0.00720747 0.00762873 0)
(-0.00857992 0.0081665 0)
(-0.0100234 0.00862622 0)
(-0.0115264 0.00900809 0)
(-0.0130771 0.00931347 0)
(-0.0146646 0.00954466 0)
(-0.0162778 0.0097046 0)
(-0.0179064 0.00979667 0)
(-0.0195403 0.00982456 0)
(-0.0211702 0.00979211 0)
(-0.0227869 0.00970319 0)
(-0.0243822 0.00956163 0)
(-0.025948 0.00937116 0)
(-0.0274769 0.00913532 0)
(-0.0289622 0.00885751 0)
(-0.0303973 0.00854091 0)
(-0.0317762 0.00818846 0)
(-0.0330936 0.00780292 0)
(-0.0343441 0.00738682 0)
(-0.0355231 0.00694249 0)
(-0.0366262 0.00647211 0)
(-0.0376494 0.00597768 0)
(-0.0385888 0.00546107 0)
(-0.0394411 0.00492403 0)
(-0.040203 0.00436826 0)
(-0.0408717 0.00379535 0)
(-0.0414445 0.00320689 0)
(-0.0419192 0.00260446 0)
(-0.0422935 0.00198963 0)
(-0.0425656 0.00136405 0)
(-0.042734 0.000729384 0)
(-0.0427974 8.74201e-05 0)
(-0.0427547 -0.000559971 0)
(-0.0426055 -0.00121079 0)
(-0.0423492 -0.00186291 0)
(-0.041986 -0.00251402 0)
(-0.0415162 -0.00316166 0)
(-0.0409407 -0.00380319 0)
(-0.0402608 -0.00443577 0)
(-0.0394781 -0.00505637 0)
(-0.0385949 -0.00566176 0)
(-0.037614 -0.00624849 0)
(-0.0365387 -0.00681293 0)
(-0.0353729 -0.00735126 0)
(-0.0341211 -0.00785945 0)
(-0.0327885 -0.00833334 0)
(-0.0313809 -0.0087686 0)
(-0.0299048 -0.00916081 0)
(-0.0283674 -0.00950546 0)
(-0.0267766 -0.009798 0)
(-0.0251408 -0.0100339 0)
(-0.0234693 -0.0102086 0)
(-0.0217719 -0.0103179 0)
(-0.0200591 -0.0103576 0)
(-0.0183419 -0.010324 0)
(-0.0166317 -0.0102135 0)
(-0.0149405 -0.0100233 0)
(-0.0132806 -0.00975129 0)
(-0.0116642 -0.00939596 0)
(-0.0101041 -0.00895696 0)
(-0.0086128 -0.00843514 0)
(-0.00720259 -0.00783281 0)
(-0.00588559 -0.00715402 0)
(-0.0046735 -0.00640496 0)
(-0.00357745 -0.00559423 0)
(-0.0026081 -0.00473336 0)
(-0.00177556 -0.00383725 0)
(-0.00108899 -0.00292465 0)
(-0.000556302 -0.00201862 0)
(-0.000192619 -0.00114694 0)
(-2.79327e-05 -0.000344856 0)
(-3.28719e-05 0.00047782 0)
(-0.000222162 0.00151273 0)
(-0.00063482 0.00258187 0)
(-0.00123209 0.00365173 0)
(-0.0019927 0.00469767 0)
(-0.00290434 0.00569976 0)
(-0.00395405 0.00664222 0)
(-0.0051285 0.00751313 0)
(-0.00641463 0.00830395 0)
(-0.00779953 0.00900903 0)
(-0.00927042 0.00962514 0)
(-0.0108147 0.0101511 0)
(-0.0124198 0.0105872 0)
(-0.0140738 0.0109353 0)
(-0.0157648 0.0111978 0)
(-0.0174815 0.0113781 0)
(-0.019213 0.0114802 0)
(-0.0209488 0.0115081 0)
(-0.0226791 0.0114663 0)
(-0.0243946 0.0113591 0)
(-0.0260864 0.011191 0)
(-0.0277463 0.010966 0)
(-0.0293666 0.0106884 0)
(-0.0309401 0.0103621 0)
(-0.0324602 0.00999055 0)
(-0.0339205 0.00957732 0)
(-0.0353153 0.00912553 0)
(-0.0366392 0.00863813 0)
(-0.0378874 0.00811782 0)
(-0.0390551 0.00756712 0)
(-0.0401381 0.00698838 0)
(-0.0411326 0.00638376 0)
(-0.0420348 0.00575533 0)
(-0.0428415 0.00510505 0)
(-0.0435496 0.0044348 0)
(-0.0441564 0.00374643 0)
(-0.0446594 0.00304179 0)
(-0.0450562 0.00232273 0)
(-0.0453451 0.00159116 0)
(-0.0455243 0.000849047 0)
(-0.0455925 9.84648e-05 0)
(-0.0455486 -0.000658398 0)
(-0.0453919 -0.00141921 0)
(-0.0451221 -0.00218147 0)
(-0.044739 -0.00294252 0)
(-0.0442433 -0.00369947 0)
(-0.0436356 -0.00444924 0)
(-0.0429173 -0.00518854 0)
(-0.0420902 -0.00591384 0)
(-0.0411566 -0.00662137 0)
(-0.0401194 -0.00730713 0)
(-0.038982 -0.00796691 0)
(-0.0377484 -0.00859624 0)
(-0.0364235 -0.00919049 0)
(-0.0350127 -0.00974481 0)
(-0.0335219 -0.0102542 0)
(-0.031958 -0.0107135 0)
(-0.0303286 -0.0111176 0)
(-0.0286418 -0.0114612 0)
(-0.0269066 -0.011739 0)
(-0.0251326 -0.0119459 0)
(-0.0233302 -0.012077 0)
(-0.0215103 -0.0121275 0)
(-0.0196844 -0.0120931 0)
(-0.0178646 -0.0119699 0)
(-0.0160633 -0.0117547 0)
(-0.0142936 -0.0114449 0)
(-0.0125683 -0.0110389 0)
(-0.0109009 -0.0105365 0)
(-0.00930448 -0.00993833 0)
(-0.00779236 -0.00924704 0)
(-0.00637746 -0.00846697 0)
(-0.00507243 -0.00760467 0)
(-0.00388953 -0.00666925 0)
(-0.00284063 -0.0056727 0)
(-0.00193729 -0.00463034 0)
(-0.00119023 -0.00356119 0)
(-0.000608974 -0.00248821 0)
(-0.000211153 -0.00143873 0)
(-3.06777e-05 -0.000446848 0)
(-3.56298e-05 0.000594927 0)
(-0.000240534 0.00184329 0)
(-0.000686771 0.00310784 0)
(-0.00133159 0.00435673 0)
(-0.00215112 0.00556637 0)
(-0.00313132 0.00671754 0)
(-0.00425755 0.00779493 0)
(-0.00551499 0.00878695 0)
(-0.00688927 0.00968529 0)
(-0.00836634 0.0104845 0)
(-0.00993245 0.0111816 0)
(-0.0115741 0.0117756 0)
(-0.0132782 0.0122672 0)
(-0.0150319 0.0126585 0)
(-0.0168229 0.0129524 0)
(-0.0186394 0.0131528 0)
(-0.0204699 0.013264 0)
(-0.0223038 0.0132907 0)
(-0.0241306 0.0132379 0)
(-0.0259407 0.0131105 0)
(-0.0277251 0.0129134 0)
(-0.0294752 0.0126514 0)
(-0.0311829 0.0123292 0)
(-0.0328408 0.0119511 0)
(-0.034442 0.0115213 0)
(-0.0359801 0.0110436 0)
(-0.0374489 0.0105217 0)
(-0.038843 0.00995892 0)
(-0.0401573 0.00935835 0)
(-0.0413868 0.00872288 0)
(-0.0425272 0.00805518 0)
(-0.0435745 0.00735776 0)
(-0.0445248 0.00663298 0)
(-0.0453747 0.00588308 0)
(-0.046121 0.00511025 0)
(-0.0467607 0.0043166 0)
(-0.0472914 0.00350427 0)
(-0.0477106 0.00267538 0)
(-0.0480164 0.00183213 0)
(-0.0482069 0.00097678 0)
(-0.0482807 0.000111718 0)
(-0.0482366 -0.000760544 0)
(-0.048074 -0.00163732 0)
(-0.0477923 -0.00251576 0)
(-0.0473916 -0.00339278 0)
(-0.0468722 -0.00426508 0)
(-0.0462349 -0.00512914 0)
(-0.0454811 -0.00598116 0)
(-0.0446126 -0.0068171 0)
(-0.0436317 -0.00763263 0)
(-0.0425414 -0.00842317 0)
(-0.0413453 -0.00918389 0)
(-0.0400476 -0.00990969 0)
(-0.0386532 -0.0105952 0)
(-0.0371676 -0.011235 0)
(-0.0355973 -0.0118233 0)
(-0.0339492 -0.0123542 0)
(-0.0322313 -0.0128217 0)
(-0.030452 -0.01322 0)
(-0.0286207 -0.0135431 0)
(-0.0267475 -0.0137851 0)
(-0.0248431 -0.0139403 0)
(-0.0229191 -0.0140035 0)
(-0.0209874 -0.0139697 0)
(-0.0190606 -0.0138346 0)
(-0.0171519 -0.0135944 0)
(-0.0152748 -0.0132463 0)
(-0.013443 -0.0127887 0)
(-0.0116705 -0.0122208 0)
(-0.00997138 -0.0115436 0)
(-0.00835969 -0.0107598 0)
(-0.00684929 -0.00987395 0)
(-0.00545386 -0.00889285 0)
(-0.00418675 -0.00782599 0)
(-0.0030611 -0.00668571 0)
(-0.00208984 -0.00548756 0)
(-0.00128513 -0.00425068 0)
(-0.000657999 -0.00299787 0)
(-0.000228233 -0.0017559 0)
(-3.31577e-05 -0.000557778 0)
(-3.81664e-05 0.000720961 0)
(-0.000257689 0.00219896 0)
(-0.000735588 0.00367322 0)
(-0.00142551 0.0051135 0)
(-0.00230125 0.00649733 0)
(-0.00334716 0.00780635 0)
(-0.00454705 0.00902588 0)
(-0.00588463 0.0101448 0)
(-0.00734424 0.0111553 0)
(-0.00891071 0.0120522 0)
(-0.0105693 0.0128329 0)
(-0.0123056 0.0134968 0)
(-0.0141058 0.014045 0)
(-0.0159564 0.01448 0)
(-0.0178446 0.0148053 0)
(-0.0197579 0.0150252 0)
(-0.0216845 0.0151446 0)
(-0.0236133 0.0151688 0)
(-0.0255336 0.0151033 0)
(-0.0274354 0.0149537 0)
(-0.0293092 0.0147254 0)
(-0.0311463 0.0144238 0)
(-0.0329383 0.0140541 0)
(-0.0346777 0.0136212 0)
(-0.0363572 0.0131298 0)
(-0.0379702 0.0125842 0)
(-0.0395105 0.0119885 0)
(-0.0409723 0.0113465 0)
(-0.0423504 0.0106616 0)
(-0.0436397 0.00993712 0)
(-0.0448358 0.0091761 0)
(-0.0459343 0.00838134 0)
(-0.0469314 0.00755553 0)
(-0.0478234 0.00670122 0)
(-0.0486072 0.00582087 0)
(-0.0492795 0.0049169 0)
(-0.0498378 0.00399171 0)
(-0.0502796 0.00304771 0)
(-0.0506026 0.0020874 0)
(-0.0508052 0.00111335 0)
(-0.0508856 0.000128246 0)