/*--------------------------------*- C++ -*----------------------------------*\
  =========                 |
  \\      /  F ield         | OpenFOAM: The Open Source CFD Toolbox
   \\    /   O peration     | Website:  https://openfoam.org
    \\  /    A nd           | Version:  7
     \\/     M anipulation  |
\*---------------------------------------------------------------------------*/
FoamFile
{
    version     2.0;
    format      ascii;
    class       surfaceScalarField;
    location    "1.475";
    object      phi;
}
// * * * * * * * * * * * * * * * * * * * * * * * * * * * * * * * * * * * * * //

dimensions      [0 3 -1 0 0 0 0];

internalField   nonuniform List<scalar> 
12640
(
3.33946e-10
-3.33912e-10
1.06605e-09
-7.3208e-10
1.82449e-09
-7.58476e-10
2.38178e-09
-5.57279e-10
2.6306e-09
-2.4881e-10
2.53372e-09
9.69026e-11
2.09159e-09
4.42117e-10
1.32303e-09
7.68557e-10
2.53197e-10
1.06983e-09
-1.09358e-09
1.34677e-09
-2.69747e-09
1.6039e-09
-4.54465e-09
1.84717e-09
-6.62738e-09
2.08272e-09
-8.94336e-09
2.31598e-09
-1.14944e-08
2.55109e-09
-1.42853e-08
2.79082e-09
-1.73217e-08
3.03641e-09
-2.06093e-08
3.28762e-09
-2.41523e-08
3.54293e-09
-2.79519e-08
3.79967e-09
-3.2006e-08
4.05408e-09
-3.63075e-08
4.30154e-09
-4.08442e-08
4.53669e-09
-4.55978e-08
4.7535e-09
-5.05432e-08
4.94541e-09
-5.56486e-08
5.10538e-09
-6.08746e-08
5.22608e-09
-6.61746e-08
5.29997e-09
-7.14941e-08
5.31949e-09
-7.67713e-08
5.27723e-09
-8.19375e-08
5.16619e-09
-8.69176e-08
4.98003e-09
-9.16309e-08
4.71337e-09
-9.59929e-08
4.36199e-09
-9.99162e-08
3.92326e-09
-1.03313e-07
3.39635e-09
-1.06095e-07
2.78252e-09
-1.0818e-07
2.08535e-09
-1.09491e-07
1.31102e-09
-1.0996e-07
4.68422e-10
-1.09527e-07
-4.32383e-10
-1.08151e-07
-1.37599e-09
-1.05805e-07
-2.34675e-09
-1.02479e-07
-3.32616e-09
-9.81844e-08
-4.29411e-09
-9.29551e-08
-5.22933e-09
-8.68452e-08
-6.10994e-09
-7.99309e-08
-6.91422e-09
-7.23096e-08
-7.62133e-09
-6.40974e-08
-8.21216e-09
-5.54274e-08
-8.67005e-09
-4.64458e-08
-8.98159e-09
-3.73085e-08
-9.13726e-09
-2.81766e-08
-9.13193e-09
-1.92115e-08
-8.96517e-09
-1.057e-08
-8.64141e-09
-2.40021e-09
-8.16984e-09
5.16394e-09
-7.56415e-09
1.20055e-08
-6.84158e-09
1.80282e-08
-6.02273e-09
2.31586e-08
-5.13035e-09
2.7347e-08
-4.18835e-09
3.05678e-08
-3.22083e-09
3.28188e-08
-2.25105e-09
3.41195e-08
-1.30066e-09
3.45085e-08
-3.8896e-10
3.4041e-08
4.67437e-10
3.27863e-08
1.25475e-09
3.08247e-08
1.96165e-09
2.82461e-08
2.57857e-09
2.51496e-08
3.09648e-09
2.16445e-08
3.5051e-09
1.7854e-08
3.79055e-09
1.39216e-08
3.93233e-09
1.00217e-08
3.89991e-09
6.37159e-09
3.65013e-09
3.24301e-09
3.12857e-09
9.66109e-10
2.27691e-09
-1.13197e-10
1.07932e-09
-1.13192e-10
7.41916e-10
-1.07581e-09
1.95999e-09
-1.95017e-09
3.03966e-09
-1.83813e-09
3.59241e-09
-1.11004e-09
3.39475e-09
-5.11346e-11
2.34644e-09
1.14522e-09
4.2312e-10
2.36547e-09
-2.3544e-09
3.54609e-09
-5.94581e-09
4.66123e-09
-1.03066e-08
5.70754e-09
-1.53975e-08
6.69482e-09
-2.11894e-08
7.6391e-09
-2.76645e-08
8.55787e-09
-3.48155e-08
9.46695e-09
-4.2643e-08
1.03786e-08
-5.11528e-08
1.13005e-08
-6.03518e-08
1.22354e-08
-7.02452e-08
1.3181e-08
-8.08329e-08
1.41306e-08
-9.21063e-08
1.50731e-08
-1.04046e-07
1.5994e-08
-1.1662e-07
1.68756e-08
-1.29781e-07
1.76974e-08
-1.43464e-07
1.84368e-08
-1.57589e-07
1.90696e-08
-1.72053e-07
1.957e-08
-1.86739e-07
1.99117e-08
-2.01507e-07
2.00681e-08
-2.16201e-07
2.00132e-08
-2.30645e-07
1.9722e-08
-2.44651e-07
1.91718e-08
-2.58014e-07
1.83429e-08
-2.7052e-07
1.72193e-08
-2.81948e-07
1.57902e-08
-2.92075e-07
1.40504e-08
-3.0068e-07
1.20015e-08
-3.0755e-07
9.65242e-09
-3.12485e-07
7.02027e-09
-3.15305e-07
4.13069e-09
-3.15855e-07
1.01851e-09
-3.1401e-07
-2.27679e-09
-3.09684e-07
-5.70237e-09
-3.02831e-07
-9.20025e-09
-2.9345e-07
-1.27068e-08
-2.81591e-07
-1.61532e-08
-2.67353e-07
-1.94675e-08
-2.50886e-07
-2.25769e-08
-2.32391e-07
-2.54093e-08
-2.12116e-07
-2.78966e-08
-1.90352e-07
-2.99761e-08
-1.67428e-07
-3.15939e-08
-1.43703e-07
-3.27062e-08
-1.19559e-07
-3.32819e-08
-9.53866e-08
-3.33039e-08
-7.15816e-08
-3.27702e-08
-4.85288e-08
-3.16942e-08
-2.65942e-08
-3.01045e-08
-6.1139e-09
-2.80444e-08
1.26142e-08
-2.55696e-08
2.9338e-08
-2.27465e-08
4.38571e-08
-1.96495e-08
5.60267e-08
-1.63579e-08
6.57588e-08
-1.29528e-08
7.30218e-08
-9.51406e-09
7.78386e-08
-6.11741e-09
8.02822e-08
-2.83255e-09
8.04712e-08
2.78396e-10
7.85645e-08
3.16146e-09
7.47564e-08
5.76973e-09
6.92734e-08
8.06163e-09
6.23726e-08
9.99728e-09
5.4344e-08
1.15337e-08
4.55158e-08
1.26187e-08
3.62639e-08
1.31842e-08
2.70237e-08
1.31401e-08
1.83003e-08
1.23735e-08
1.06679e-08
1.07609e-08
4.7412e-09
8.20362e-09
1.08514e-09
4.7354e-09
9.71945e-10
7.77783e-10
-1.85363e-09
1.84256e-09
-3.01491e-09
2.47109e-09
-2.46665e-09
2.21726e-09
-8.56181e-10
8.18232e-10
1.34787e-09
-1.85633e-09
3.81978e-09
-5.84357e-09
6.35271e-09
-1.11271e-08
8.82964e-09
-1.76636e-08
1.11977e-08
-2.5402e-08
1.3446e-08
-3.42962e-08
1.55889e-08
-4.43106e-08
1.76535e-08
-5.54227e-08
1.967e-08
-6.76219e-08
2.16662e-08
-8.09063e-08
2.3663e-08
-9.52784e-08
2.56726e-08
-1.1074e-07
2.76973e-08
-1.27289e-07
2.97296e-08
-1.44911e-07
3.17527e-08
-1.63579e-07
3.37412e-08
-1.83248e-07
3.56626e-08
-2.0385e-07
3.74778e-08
-2.25295e-07
3.91426e-08
-2.47467e-07
4.06084e-08
-2.70221e-07
4.18236e-08
-2.93385e-07
4.27346e-08
-3.1676e-07
4.32867e-08
-3.40118e-07
4.34261e-08
-3.63206e-07
4.31008e-08
-3.85746e-07
4.22624e-08
-4.07442e-07
4.0868e-08
-4.27981e-07
3.88818e-08
-4.47039e-07
3.62772e-08
-4.64287e-07
3.30381e-08
-4.79398e-07
2.91613e-08
-4.92053e-07
2.46571e-08
-5.01952e-07
1.95514e-08
-5.08818e-07
1.38857e-08
-5.12406e-07
7.71863e-09
-5.12514e-07
1.12683e-09
-5.08983e-07
-5.80781e-09
-5.01713e-07
-1.29724e-08
-4.90663e-07
-2.02506e-08
-4.75855e-07
-2.75139e-08
-4.57383e-07
-3.46256e-08
-4.35406e-07
-4.14441e-08
-4.10156e-07
-4.7827e-08
-3.81931e-07
-5.36347e-08
-3.51092e-07
-5.87352e-08
-3.1806e-07
-6.30082e-08
-2.83305e-07
-6.63493e-08
-2.47337e-07
-6.86742e-08
-2.10696e-07
-6.99223e-08
-1.73941e-07
-7.00592e-08
-1.37632e-07
-6.9079e-08
-1.02321e-07
-6.7005e-08
-6.85361e-08
-6.38898e-08
-3.6767e-08
-5.98135e-08
-7.45529e-09
-5.48814e-08
1.90182e-08
-4.92201e-08
4.23412e-08
-4.29725e-08
6.22765e-08
-3.62932e-08
7.86658e-08
-2.93422e-08
9.14309e-08
-2.22791e-08
1.00572e-07
-1.52586e-08
1.06165e-07
-8.4254e-09
1.08355e-07
-1.91174e-09
1.07353e-07
4.16396e-09
1.03426e-07
9.6962e-09
9.68986e-08
1.45891e-08
8.8145e-08
1.8751e-08
7.75924e-08
2.20863e-08
6.57246e-08
2.44865e-08
5.30885e-08
2.58204e-08
4.03012e-08
2.59274e-08
2.80545e-08
2.46203e-08
1.71075e-08
2.1708e-08
8.26e-09
1.70511e-08
2.30176e-09
1.06936e-08
3.27371e-09
5.52959e-10
-2.40659e-09
9.90387e-10
-3.45236e-09
5.85273e-10
-2.06151e-09
-1.10238e-09
8.31476e-10
-4.32938e-09
4.57489e-09
-9.22034e-09
8.71073e-09
-1.581e-08
1.29424e-08
-2.408e-08
1.70996e-08
-3.39853e-08
2.1103e-08
-4.54739e-08
2.49346e-08
-5.84985e-08
2.86136e-08
-7.30232e-08
3.21782e-08
-8.90249e-08
3.56717e-08
-1.06492e-07
3.91329e-08
-1.25419e-07
4.259e-08
-1.45803e-07
4.60571e-08
-1.67638e-07
4.95325e-08
-1.90907e-07
5.29987e-08
-2.15578e-07
5.6423e-08
-2.41596e-07
5.97594e-08
-2.68883e-07
6.29498e-08
-2.97332e-07
6.59261e-08
-3.26801e-07
6.8612e-08
-3.57117e-07
7.09249e-08
-3.88072e-07
7.27778e-08
-4.19419e-07
7.40818e-08
-4.5088e-07
7.47475e-08
-4.82142e-07
7.46881e-08
-5.12863e-07
7.38218e-08
-5.42674e-07
7.20741e-08
-5.71187e-07
6.93811e-08
-5.97998e-07
6.56922e-08
-6.22694e-07
6.09729e-08
-6.44863e-07
5.52072e-08
-6.64102e-07
4.84002e-08
-6.80024e-07
4.05796e-08
-6.9227e-07
3.17978e-08
-7.00517e-07
2.2132e-08
-7.04483e-07
1.16848e-08
-7.03947e-07
5.91178e-10
-6.98735e-07
-1.10206e-08
-6.88751e-07
-2.29558e-08
-6.73971e-07
-3.50308e-08
-6.54445e-07
-4.70397e-08
-6.30305e-07
-5.87656e-08
-6.01763e-07
-6.9986e-08
-5.69112e-07
-8.0478e-08
-5.32722e-07
-9.00246e-08
-4.93037e-07
-9.84203e-08
-4.50567e-07
-1.05478e-07
-4.05881e-07
-1.11036e-07
-3.59594e-07
-1.14961e-07
-3.1236e-07
-1.17157e-07
-2.64852e-07
-1.17567e-07
-2.17754e-07
-1.16177e-07
-1.71739e-07
-1.1302e-07
-1.27459e-07
-1.0817e-07
-8.55264e-08
-1.01746e-07
-4.65e-08
-9.39078e-08
-1.08723e-08
-8.48478e-08
2.09424e-08
-7.47871e-08
4.86162e-08
-6.39671e-08
7.19146e-08
-5.26406e-08
9.06995e-08
-4.1064e-08
1.0493e-07
-2.94887e-08
1.14659e-07
-1.81546e-08
1.20032e-07
-7.28483e-09
1.21279e-07
2.91652e-09
1.18711e-07
1.22641e-08
1.12713e-07
2.05875e-08
1.0374e-07
2.77242e-08
9.23168e-08
3.35093e-08
7.9039e-08
3.77643e-08
6.45745e-08
4.02848e-08
4.96677e-08
4.08342e-08
3.51407e-08
3.91472e-08
2.18917e-08
3.4957e-08
1.0889e-08
2.80537e-08
3.17867e-09
1.8404e-08
6.4524e-09
1.66422e-10
-2.57301e-09
-3.81462e-10
-2.90446e-09
-2.2838e-09
-1.59196e-10
-5.92065e-09
4.46833e-09
-1.15041e-08
1.01584e-08
-1.91267e-08
1.63333e-08
-2.88034e-08
2.26191e-08
-4.05048e-08
2.88009e-08
-5.41812e-08
3.47794e-08
-6.978e-08
4.05334e-08
-8.72558e-08
4.60894e-08
-1.06575e-07
5.14976e-08
-1.27717e-07
5.68135e-08
-1.50669e-07
6.20854e-08
-1.75425e-07
6.73458e-08
-2.01975e-07
7.26066e-08
-2.30299e-07
7.7857e-08
-2.60364e-07
8.30638e-08
-2.92113e-07
8.81721e-08
-3.25462e-07
9.31078e-08
-3.60292e-07
9.77801e-08
-3.9645e-07
1.02084e-07
-4.33743e-07
1.05905e-07
-4.71936e-07
1.09118e-07
-5.10754e-07
1.11595e-07
-5.49879e-07
1.13207e-07
-5.88957e-07
1.13825e-07
-6.27597e-07
1.13328e-07
-6.65375e-07
1.11601e-07
-7.01846e-07
1.08544e-07
-7.36541e-07
1.04076e-07
-7.68984e-07
9.81349e-08
-7.98694e-07
9.0683e-08
-8.25198e-07
8.17113e-08
-8.48039e-07
7.12412e-08
-8.66786e-07
5.93267e-08
-8.81044e-07
4.60555e-08
-8.90462e-07
3.15501e-08
-8.94744e-07
1.59669e-08
-8.93658e-07
-4.94074e-10
-8.87034e-07
-1.76446e-08
-8.74786e-07
-3.52048e-08
-8.56902e-07
-5.29143e-08
-8.33459e-07
-7.04829e-08
-8.04617e-07
-8.76074e-08
-7.70625e-07
-1.03978e-07
-7.31816e-07
-1.19286e-07
-6.8861e-07
-1.33231e-07
-6.41502e-07
-1.45528e-07
-5.91062e-07
-1.55918e-07
-5.37925e-07
-1.64173e-07
-4.82778e-07
-1.70108e-07
-4.26352e-07
-1.73583e-07
-3.69406e-07
-1.74513e-07
-3.12712e-07
-1.72871e-07
-2.57042e-07
-1.6869e-07
-2.03145e-07
-1.62066e-07
-1.51737e-07
-1.53154e-07
-1.03479e-07
-1.42165e-07
-5.89665e-08
-1.29361e-07
-1.87108e-08
-1.15043e-07
1.68689e-08
-9.95467e-08
4.74555e-08
-8.32272e-08
7.28403e-08
-6.64488e-08
9.29257e-08
-4.95742e-08
1.07725e-07
-3.29542e-08
1.17361e-07
-1.69209e-08
1.22061e-07
-1.7827e-09
1.22148e-07
1.21763e-08
1.18043e-07
2.46926e-08
1.10252e-07
3.55156e-08
9.93648e-08
4.43965e-08
8.60546e-08
5.10745e-08
7.1076e-08
5.52635e-08
5.52665e-08
5.66437e-08
3.95497e-08
5.4864e-08
2.49424e-08
4.95643e-08
1.25716e-08
4.04246e-08
3.72161e-09
2.7254e-08
1.0174e-08
-3.29439e-10
-2.24355e-09
-2.13116e-09
-1.10276e-09
-5.89846e-09
3.60811e-09
-1.1909e-08
1.04789e-08
-2.02953e-08
1.85446e-08
-3.1095e-08
2.7133e-08
-4.42872e-08
3.58113e-08
-5.98214e-08
4.43352e-08
-7.76384e-08
5.25963e-08
-9.76831e-08
6.05781e-08
-1.19912e-07
6.83186e-08
-1.44297e-07
7.58819e-08
-1.70818e-07
8.33351e-08
-1.99466e-07
9.07337e-08
-2.30231e-07
9.81103e-08
-2.63094e-07
1.0547e-07
-2.98024e-07
1.12787e-07
-3.34964e-07
1.20004e-07
-3.73832e-07
1.27039e-07
-4.14506e-07
1.33782e-07
-4.56828e-07
1.40102e-07
-5.00595e-07
1.45851e-07
-5.45557e-07
1.50867e-07
-5.9142e-07
1.54981e-07
-6.37843e-07
1.58018e-07
-6.84441e-07
1.59805e-07
-7.30787e-07
1.60172e-07
-7.7642e-07
1.58961e-07
-8.20849e-07
1.56029e-07
-8.63559e-07
1.51254e-07
-9.04021e-07
1.44539e-07
-9.41703e-07
1.35816e-07
-9.76072e-07
1.25052e-07
-1.00661e-06
1.12253e-07
-1.03283e-06
9.74625e-08
-1.05428e-06
8.0769e-08
-1.07052e-06
6.23033e-08
-1.08121e-06
4.22399e-08
-1.08604e-06
2.0796e-08
-1.08477e-06
-1.76615e-09
-1.07724e-06
-2.51748e-08
-1.06337e-06
-4.90806e-08
-1.04315e-06
-7.31347e-08
-1.01667e-06
-9.69607e-08
-9.84108e-07
-1.20167e-07
-9.45733e-07
-1.42354e-07
-9.01896e-07
-1.63123e-07
-8.53041e-07
-1.82087e-07
-7.99691e-07
-1.98877e-07
-7.42452e-07
-2.13157e-07
-6.81997e-07
-2.24629e-07
-6.19061e-07
-2.33043e-07
-5.54431e-07
-2.38213e-07
-4.88929e-07
-2.40015e-07
-4.234e-07
-2.384e-07
-3.58694e-07
-2.33396e-07
-2.9565e-07
-2.25111e-07
-2.35074e-07
-2.1373e-07
-1.77727e-07
-1.99513e-07
-1.24301e-07
-1.82786e-07
-7.54082e-08
-1.63936e-07
-3.15629e-08
-1.43392e-07
6.82863e-09
-1.21619e-07
3.94772e-08
-9.90974e-08
6.62161e-08
-7.6313e-08
8.70036e-08
-5.37417e-08
1.01922e-07
-3.18398e-08
1.11177e-07
-1.1037e-08
1.15087e-07
8.26638e-09
1.14082e-07
2.56968e-08
1.08698e-07
4.08997e-08
9.95669e-08
5.3528e-08
8.74144e-08
6.32269e-08
7.30593e-08
6.96186e-08
5.74119e-08
7.22911e-08
4.14806e-08
7.07953e-08
2.63865e-08
6.46584e-08
1.33955e-08
5.34156e-08
3.98337e-09
3.66661e-08
1.41574e-08
-9.02132e-10
-1.34143e-09
-4.1651e-09
2.16022e-09
-1.00951e-08
9.53808e-09
-1.88283e-08
1.92122e-08
-3.03929e-08
3.01091e-08
-4.47507e-08
4.14909e-08
-6.18306e-08
5.28912e-08
-8.15515e-08
6.40561e-08
-1.03839e-07
7.48834e-08
-1.28632e-07
8.53716e-08
-1.5589e-07
9.55767e-08
-1.85587e-07
1.05579e-07
-2.1771e-07
1.15458e-07
-2.52248e-07
1.25272e-07
-2.89189e-07
1.35051e-07
-3.28505e-07
1.44786e-07
-3.70148e-07
1.5443e-07
-4.14041e-07
1.63897e-07
-4.60068e-07
1.73067e-07
-5.08073e-07
1.81787e-07
-5.57851e-07
1.89881e-07
-6.09151e-07
1.9715e-07
-6.61667e-07
2.03383e-07
-7.15045e-07
2.0836e-07
-7.68883e-07
2.11856e-07
-8.22733e-07
2.13654e-07
-8.76105e-07
2.13544e-07
-9.28478e-07
2.11334e-07
-9.79302e-07
2.06853e-07
-1.02801e-06
1.99962e-07
-1.07403e-06
1.90555e-07
-1.11677e-06
1.78564e-07
-1.15569e-06
1.63968e-07
-1.19023e-06
1.46791e-07
-1.21987e-06
1.27109e-07
-1.24415e-06
1.05049e-07
-1.26264e-06
8.07899e-08
-1.27496e-06
5.45609e-08
-1.28081e-06
2.66432e-08
-1.27994e-06
-2.63294e-09
-1.27219e-06
-3.2923e-08
-1.25748e-06
-6.37964e-08
-1.23579e-06
-9.48207e-08
-1.20722e-06
-1.25533e-07
-1.17193e-06
-1.55453e-07
-1.1302e-06
-1.84091e-07
-1.08236e-06
-2.10956e-07
-1.02888e-06
-2.35572e-07
-9.70273e-07
-2.57482e-07
-9.07166e-07
-2.76264e-07
-8.40252e-07
-2.91542e-07
-7.70297e-07
-3.02999e-07
-6.98125e-07
-3.10384e-07
-6.24611e-07
-3.13529e-07
-5.50661e-07
-3.1235e-07
-4.77198e-07
-3.06859e-07
-4.05143e-07
-2.97166e-07
-3.35396e-07
-2.83478e-07
-2.68813e-07
-2.66095e-07
-2.06192e-07
-2.45407e-07
-1.48248e-07
-2.2188e-07
-9.55984e-08
-1.96042e-07
-4.87488e-08
-1.68468e-07
-8.07951e-09
-1.39767e-07
2.61617e-08
-1.10554e-07
5.38649e-08
-8.14449e-08
7.50591e-08
-5.3034e-08
8.99106e-08
-2.58885e-08
9.8719e-08
-5.41933e-10
1.01909e-07
2.25065e-08
1.00027e-07
4.27819e-08
9.373e-08
5.98251e-08
8.37822e-08
7.31747e-08
7.10508e-08
8.23501e-08
5.65062e-08
8.68357e-08
4.12295e-08
8.6072e-08
2.6432e-08
7.94559e-08
1.34917e-08
6.63559e-08
4.01989e-09
4.6138e-08
1.81772e-08
-1.53573e-09
1.94301e-10
-6.42502e-09
7.0495e-09
-1.47583e-08
1.78714e-08
-2.65032e-08
3.0957e-08
-4.15599e-08
4.51659e-08
-5.97978e-08
5.97288e-08
-8.10825e-08
7.41759e-08
-1.05294e-07
8.82677e-08
-1.32337e-07
1.01926e-07
-1.62144e-07
1.15178e-07
-1.94673e-07
1.28105e-07
-2.29901e-07
1.40808e-07
-2.67821e-07
1.53377e-07
-3.08421e-07
1.65872e-07
-3.51685e-07
1.78315e-07
-3.97577e-07
1.90677e-07
-4.4603e-07
2.02883e-07
-4.96941e-07
2.14809e-07
-5.50165e-07
2.26291e-07
-6.05506e-07
2.37128e-07
-6.62715e-07
2.4709e-07
-7.2149e-07
2.55925e-07
-7.81473e-07
2.63367e-07
-8.42255e-07
2.69142e-07
-9.03377e-07
2.72978e-07
-9.64334e-07
2.74611e-07
-1.02459e-06
2.73795e-07
-1.08356e-06
2.70306e-07
-1.14066e-06
2.63953e-07
-1.19528e-06
2.54581e-07
-1.2468e-06
2.42083e-07
-1.29464e-06
2.26398e-07
-1.33819e-06
2.07519e-07
-1.3769e-06
1.85499e-07
-1.41023e-06
1.60445e-07
-1.43771e-06
1.32528e-07
-1.4589e-06
1.01975e-07
-1.47341e-06
6.90712e-08
-1.48092e-06
3.41608e-08
-1.48121e-06
-2.34674e-09
-1.47406e-06
-4.00703e-08
-1.45939e-06
-7.84686e-08
-1.43717e-06
-1.17038e-07
-1.40747e-06
-1.55234e-07
-1.37044e-06
-1.92486e-07
-1.32632e-06
-2.28215e-07
-1.27543e-06
-2.61838e-07
-1.21822e-06
-2.92783e-07
-1.1552e-06
-3.20501e-07
-1.08699e-06
-3.44479e-07
-1.01428e-06
-3.64252e-07
-9.37856e-07
-3.79422e-07
-8.58574e-07
-3.89666e-07
-7.77349e-07
-3.94754e-07
-6.95145e-07
-3.94554e-07
-6.12954e-07
-3.8905e-07
-5.31782e-07
-3.78338e-07
-4.52622e-07
-3.62637e-07
-3.76438e-07
-3.4228e-07
-3.04136e-07
-3.1771e-07
-2.36546e-07
-2.8947e-07
-1.74401e-07
-2.58187e-07
-1.18316e-07
-2.24553e-07
-6.87763e-08
-1.89306e-07
-2.61236e-08
-1.53207e-07
9.45098e-09
-1.17019e-07
3.791e-08
-8.1493e-08
5.93695e-08
-4.73479e-08
7.40945e-08
-1.5267e-08
8.24946e-08
1.41064e-08
8.51136e-08
4.0163e-08
8.2623e-08
6.23156e-08
7.58145e-08
7.99833e-08
6.55944e-08
9.25701e-08
5.29845e-08
9.94457e-08
3.91286e-08
9.99279e-08
2.53125e-08
9.3272e-08
1.29986e-08
7.86697e-08
3.88278e-09
5.52538e-08
2.206e-08
-2.2192e-09
2.4135e-09
-8.87094e-09
1.37012e-08
-1.98054e-08
2.88058e-08
-3.48e-08
4.59516e-08
-5.36085e-08
6.39744e-08
-7.59933e-08
8.21136e-08
-1.01747e-07
9.99294e-08
-1.30703e-07
1.17224e-07
-1.62741e-07
1.33964e-07
-1.97783e-07
1.5022e-07
-2.35786e-07
1.66108e-07
-2.76731e-07
1.81753e-07
-3.20611e-07
1.97257e-07
-3.67418e-07
2.12679e-07
-4.17129e-07
2.28026e-07
-4.69696e-07
2.43244e-07
-5.25034e-07
2.58221e-07
-5.83016e-07
2.72791e-07
-6.43463e-07
2.86737e-07
-7.06139e-07
2.99804e-07
-7.70754e-07
3.11705e-07
-8.36958e-07
3.22128e-07
-9.04343e-07
3.30752e-07
-9.72451e-07
3.37249e-07
-1.04077e-06
3.41299e-07
-1.10876e-06
3.42595e-07
-1.17582e-06
3.40857e-07
-1.24135e-06
3.35834e-07
-1.30471e-06
3.27319e-07
-1.36528e-06
3.1515e-07
-1.42242e-06
2.99222e-07
-1.47551e-06
2.79485e-07
-1.52394e-06
2.55953e-07
-1.56715e-06
2.28707e-07
-1.60459e-06
1.97891e-07
-1.63578e-06
1.63716e-07
-1.66027e-06
1.26458e-07
-1.67765e-06
8.64558e-08
-1.68759e-06
4.41017e-08
-1.68988e-06
-6.10253e-11
-1.6842e-06
-4.57424e-08
-1.6705e-06
-9.21702e-08
-1.64871e-06
-1.38834e-07
-1.61884e-06
-1.851e-07
-1.58102e-06
-2.30311e-07
-1.53543e-06
-2.73797e-07
-1.48239e-06
-3.14881e-07
-1.42228e-06
-3.52895e-07
-1.35559e-06
-3.87188e-07
-1.28292e-06
-4.17148e-07
-1.20496e-06
-4.42212e-07
-1.1225e-06
-4.61887e-07
-1.0364e-06
-4.75762e-07
-9.47626e-07
-4.83529e-07
-8.57187e-07
-4.84993e-07
-7.66148e-07
-4.80089e-07
-6.756e-07
-4.68887e-07
-5.86637e-07
-4.516e-07
-5.00335e-07
-4.28581e-07
-4.17725e-07
-4.0032e-07
-3.39763e-07
-3.67432e-07
-2.67312e-07
-3.30638e-07
-2.01113e-07
-2.90752e-07
-1.41771e-07
-2.48648e-07
-8.97366e-08
-2.05241e-07
-4.52973e-08
-1.61459e-07
-8.57034e-09
-1.1822e-07
2.04976e-08
-7.64158e-08
4.2127e-08
-3.68964e-08
5.67006e-08
-4.67185e-10
6.47522e-08
3.21114e-08
6.69599e-08
6.01079e-08
6.41356e-08
8.28075e-08
5.72193e-08
9.94864e-08
4.72773e-08
1.09388e-07
3.55077e-08
1.11698e-07
2.32564e-08
1.05523e-07
1.20457e-08
8.98804e-08
3.61643e-09
6.3683e-08
2.56765e-08
-2.94694e-09
5.36044e-09
-1.14737e-08
2.2228e-08
-2.51721e-08
4.25042e-08
-4.36104e-08
6.439e-08
-6.63812e-08
8.67451e-08
-9.31282e-08
1.08861e-07
-1.23562e-07
1.30363e-07
-1.57466e-07
1.51128e-07
-1.94691e-07
1.71189e-07
-2.35145e-07
1.90675e-07
-2.78785e-07
2.09748e-07
-3.25592e-07
2.2856e-07
-3.75561e-07
2.47227e-07
-4.28685e-07
2.65803e-07
-4.84934e-07
2.84275e-07
-5.44247e-07
3.02558e-07
-6.06522e-07
3.20496e-07
-6.71603e-07
3.37872e-07
-7.3928e-07
3.54413e-07
-8.0928e-07
3.69804e-07
-8.8127e-07
3.83695e-07
-9.54858e-07
3.95716e-07
-1.02959e-06
4.05486e-07
-1.10497e-06
4.12626e-07
-1.18044e-06
4.16769e-07
-1.25541e-06
4.1757e-07
-1.32927e-06
4.14718e-07
-1.40138e-06
4.07942e-07
-1.47108e-06
3.97022e-07
-1.53773e-06
3.81796e-07
-1.60067e-06
3.62163e-07
-1.65928e-06
3.3809e-07
-1.71294e-06
3.09613e-07
-1.76107e-06
2.7684e-07
-1.80313e-06
2.39952e-07
-1.83861e-06
1.99199e-07
-1.86706e-06
1.54903e-07
-1.88805e-06
1.07451e-07
-1.90125e-06
5.72978e-08
-1.90628e-06
4.9722e-09
-1.90301e-06
-4.90118e-08
-1.89121e-06
-1.03979e-07
-1.87076e-06
-1.59276e-07
-1.84167e-06
-2.14199e-07
-1.80397e-06
-2.68009e-07
-1.75782e-06
-3.19947e-07
-1.70346e-06
-3.69242e-07
-1.64123e-06
-4.15122e-07
-1.57158e-06
-4.56833e-07
-1.49508e-06
-4.93654e-07
-1.41238e-06
-5.2491e-07
-1.32427e-06
-5.5e-07
-1.23162e-06
-5.68409e-07
-1.13542e-06
-5.7973e-07
-1.03673e-06
-5.83686e-07
-9.36671e-07
-5.80144e-07
-8.36433e-07
-5.69125e-07
-7.37214e-07
-5.50819e-07
-6.40212e-07
-5.25583e-07
-5.46592e-07
-4.9394e-07
-4.57456e-07
-4.56568e-07
-3.73811e-07
-4.14283e-07
-2.96546e-07
-3.68017e-07
-2.26404e-07
-3.1879e-07
-1.63964e-07
-2.67681e-07
-1.09626e-07
-2.15797e-07
-6.3604e-08
-1.64243e-07
-2.592e-08
-1.141e-07
3.59004e-09
-6.64065e-08
2.52716e-08
-2.21487e-08
3.96428e-08
1.77402e-08
4.73815e-08
5.23693e-08
4.93158e-08
8.08732e-08
4.64151e-08
1.02387e-07
3.97859e-08
1.16017e-07
3.06735e-08
1.2081e-07
2.04731e-08
1.15724e-07
1.07481e-08
9.96054e-08
3.25812e-09
7.11731e-08
2.89346e-08
-3.71257e-09
9.07301e-09
-1.42085e-08
3.27239e-08
-3.08027e-08
5.90984e-08
-5.28393e-08
8.64265e-08
-7.97369e-08
1.13643e-07
-1.11012e-07
1.40136e-07
-1.46289e-07
1.6564e-07
-1.85293e-07
1.90132e-07
-2.27847e-07
2.13742e-07
-2.73844e-07
2.36673e-07
-3.23237e-07
2.5914e-07
-3.76009e-07
2.81332e-07
-4.32157e-07
3.03374e-07
-4.91669e-07
3.25315e-07
-5.54511e-07
3.47117e-07
-6.20608e-07
3.68655e-07
-6.89838e-07
3.89725e-07
-7.62018e-07
4.10053e-07
-8.36907e-07
4.29302e-07
-9.14197e-07
4.47094e-07
-9.93517e-07
4.63015e-07
-1.07444e-06
4.76634e-07
-1.15646e-06
4.87513e-07
-1.23906e-06
4.95222e-07
-1.32164e-06
4.99352e-07
-1.40359e-06
4.99522e-07
-1.48427e-06
4.95397e-07
-1.56302e-06
4.8669e-07
-1.63917e-06
4.73174e-07
-1.71206e-06
4.54687e-07
-1.78104e-06
4.31139e-07
-1.84546e-06
4.02512e-07
-1.90472e-06
3.68867e-07
-1.95822e-06
3.30339e-07
-2.0054e-06
2.8714e-07
-2.04576e-06
2.39557e-07
-2.07881e-06
1.87951e-07
-2.10411e-06
1.32752e-07
-2.12127e-06
7.44614e-08
-2.12994e-06
1.36441e-08
-2.12987e-06
-4.90895e-08
-2.1208e-06
-1.13045e-07
-2.10259e-06
-1.7749e-07
-2.07514e-06
-2.41649e-07
-2.03844e-06
-3.04702e-07
-1.99259e-06
-3.65803e-07
-1.93774e-06
-4.24085e-07
-1.87419e-06
-4.78675e-07
-1.80232e-06
-5.28707e-07
-1.72263e-06
-5.73342e-07
-1.63576e-06
-6.11784e-07
-1.54245e-06
-6.43308e-07
-1.44358e-06
-6.67276e-07
-1.34014e-06
-6.83166e-07
-1.23324e-06
-6.90591e-07
-1.12406e-06
-6.89325e-07
-1.01387e-06
-6.79319e-07
-9.0397e-07
-6.60714e-07
-7.95701e-07
-6.33852e-07
-6.90372e-07
-5.9927e-07
-5.89243e-07
-5.57697e-07
-4.93491e-07
-5.10035e-07
-4.04171e-07
-4.57336e-07
-3.2219e-07
-4.00771e-07
-2.48277e-07
-3.41594e-07
-1.82968e-07
-2.81105e-07
-1.26592e-07
-2.20618e-07
-7.92659e-08
-1.61426e-07
-4.08942e-08
-1.04778e-07
-1.11783e-08
-5.18645e-08
1.03745e-08
-3.81266e-09
2.44376e-08
3.83062e-08
3.18517e-08
7.34591e-08
3.36131e-08
1.00626e-07
3.08655e-08
1.18765e-07
2.48974e-08
1.26778e-07
1.71456e-08
1.23476e-07
9.20457e-09
1.07546e-07
2.83884e-09
7.75388e-08
3.17734e-08
-4.51043e-09
1.35834e-08
-1.70517e-08
4.52652e-08
-3.66447e-08
7.86914e-08
-6.2396e-08
1.12178e-07
-9.35413e-08
1.44788e-07
-1.29463e-07
1.76058e-07
-1.69694e-07
2.0587e-07
-2.13903e-07
2.34341e-07
-2.61878e-07
2.61717e-07
-3.135e-07
2.88295e-07
-3.68716e-07
3.14356e-07
-4.2751e-07
3.40126e-07
-4.89879e-07
3.65744e-07
-5.5581e-07
3.91246e-07
-6.25259e-07
4.16565e-07
-6.98137e-07
4.41533e-07
-7.74301e-07
4.65889e-07
-8.53544e-07
4.89296e-07
-9.35594e-07
5.11352e-07
-1.02011e-06
5.31611e-07
-1.10669e-06
5.49593e-07
-1.19486e-06
5.64807e-07
-1.28411e-06
5.76761e-07
-1.37386e-06
5.84976e-07
-1.46352e-06
5.89003e-07
-1.55243e-06
5.88434e-07
-1.63994e-06
5.82911e-07
-1.72539e-06
5.72135e-07
-1.80809e-06
5.55876e-07
-1.88738e-06
5.33978e-07
-1.9626e-06
5.06359e-07
-2.03311e-06
4.73021e-07
-2.09829e-06
4.34043e-07
-2.15753e-06
3.89587e-07
-2.21029e-06
3.39894e-07
-2.25601e-06
2.85281e-07
-2.29421e-06
2.26144e-07
-2.3244e-06
1.62951e-07
-2.34618e-06
9.62401e-08
-2.35916e-06
2.662e-08
-2.36301e-06
-4.52429e-08
-2.35744e-06
-1.18609e-07
-2.34224e-06
-1.92687e-07
-2.31726e-06
-2.66632e-07
-2.28241e-06
-3.39551e-07
-2.2377e-06
-4.10515e-07
-2.18322e-06
-4.78563e-07
-2.11918e-06
-5.42719e-07
-2.04588e-06
-6.02003e-07
-1.96377e-06
-6.55454e-07
-1.87341e-06
-7.02145e-07
-1.77551e-06
-7.41212e-07
-1.67091e-06
-7.71876e-07
-1.5606e-06
-7.93476e-07
-1.44569e-06
-8.05493e-07
-1.32744e-06
-8.07579e-07
-1.20717e-06
-7.99585e-07
-1.08631e-06
-7.81576e-07
-9.66316e-07
-7.53847e-07
-8.48658e-07
-7.16928e-07
-7.34775e-07
-6.7158e-07
-6.2603e-07
-6.18779e-07
-5.23674e-07
-5.59692e-07
-4.28803e-07
-4.95643e-07
-3.42326e-07
-4.28071e-07
-2.64944e-07
-3.58488e-07
-1.97124e-07
-2.88438e-07
-1.39101e-07
-2.1945e-07
-9.08665e-08
-1.53013e-07
-5.21829e-08
-9.05482e-08
-2.25918e-08
-3.34037e-08
-1.4309e-09
1.71453e-08
1.21496e-08
5.98786e-08
1.9171e-08
9.36042e-08
2.08134e-08
1.17122e-07
1.84066e-08
1.29185e-07
1.34268e-08
1.28455e-07
7.49654e-09
1.13477e-07
2.38382e-09
8.26515e-08
3.41572e-08
-5.33431e-09
1.89177e-08
-1.99785e-08
5.99095e-08
-4.26443e-08
1.01357e-07
-7.21897e-08
1.41723e-07
-1.0766e-07
1.80258e-07
-1.483e-07
2.16698e-07
-1.93547e-07
2.51118e-07
-2.43012e-07
2.83807e-07
-2.96451e-07
3.15156e-07
-3.5373e-07
3.45573e-07
-4.1479e-07
3.75416e-07
-4.79616e-07
4.04952e-07
-5.48203e-07
4.34331e-07
-6.20534e-07
4.63577e-07
-6.96555e-07
4.92587e-07
-7.76165e-07
5.21143e-07
-8.59198e-07
5.48923e-07
-9.45424e-07
5.75522e-07
-1.03454e-06
6.0047e-07
-1.12618e-06
6.2325e-07
-1.21991e-06
6.43319e-07
-1.31522e-06
6.60125e-07
-1.41159e-06
6.73123e-07
-1.5084e-06
6.81791e-07
-1.60504e-06
6.85645e-07
-1.70086e-06
6.8425e-07
-1.79518e-06
6.77232e-07
-1.88733e-06
6.64284e-07
-1.97663e-06
6.45175e-07
-2.0624e-06
6.19753e-07
-2.144e-06
5.87951e-07
-2.22076e-06
5.49783e-07
-2.29206e-06
5.0535e-07
-2.35731e-06
4.54837e-07
-2.41593e-06
3.98507e-07
-2.46735e-06
3.36708e-07
-2.51107e-06
2.69862e-07
-2.54659e-06
1.98471e-07
-2.57346e-06
1.23106e-07
-2.59125e-06
4.44134e-08
-2.5996e-06
-3.68964e-08
-2.59817e-06
-1.20043e-07
-2.58667e-06
-2.04179e-07
-2.5649e-06
-2.88404e-07
-2.53269e-06
-3.71759e-07
-2.48997e-06
-4.53236e-07
-2.43675e-06
-5.31788e-07
-2.37313e-06
-6.06339e-07
-2.29933e-06
-6.75799e-07
-2.21571e-06
-7.39077e-07
-2.12274e-06
-7.95112e-07
-2.02106e-06
-8.42888e-07
-1.91147e-06
-8.81472e-07
-1.7949e-06
-9.1004e-07
-1.67248e-06
-9.27913e-07
-1.54547e-06
-9.34592e-07
-1.41526e-06
-9.29792e-07
-1.28338e-06
-9.13465e-07
-1.1514e-06
-8.85826e-07
-1.02096e-06
-8.47366e-07
-8.9369e-07
-7.98849e-07
-7.71163e-07
-7.41306e-07
-6.54849e-07
-6.76007e-07
-5.46065e-07
-6.04427e-07
-4.45937e-07
-5.28199e-07
-3.55361e-07
-4.49064e-07
-2.74982e-07
-3.68817e-07
-2.05174e-07
-2.89257e-07
-1.46046e-07
-2.12141e-07
-9.74374e-08
-1.39157e-07
-5.89388e-08
-7.19024e-08
-2.99073e-08
-1.18862e-08
-9.48886e-09
3.94602e-08
3.36125e-09
8.07541e-08
9.85937e-09
1.10624e-07
1.13784e-08
1.27666e-07
9.43641e-09
1.30397e-07
5.68777e-09
1.17225e-07
1.91261e-09
8.64267e-08
3.60698e-08
-6.177e-09
2.50948e-08
-2.2962e-08
7.66944e-08
-4.87442e-08
1.27139e-07
-8.2125e-08
1.75104e-07
-1.21954e-07
2.20087e-07
-1.67336e-07
2.62079e-07
-2.17613e-07
3.01394e-07
-2.72337e-07
3.38531e-07
-3.31232e-07
3.74051e-07
-3.94148e-07
4.08489e-07
-4.61022e-07
4.4229e-07
-5.31836e-07
4.75767e-07
-6.06586e-07
5.0908e-07
-6.85246e-07
5.42238e-07
-7.67756e-07
5.75096e-07
-8.53995e-07
6.07382e-07
-9.4378e-07
6.38708e-07
-1.03686e-06
6.68598e-07
-1.13289e-06
6.96509e-07
-1.2315e-06
7.21856e-07
-1.33221e-06
7.4403e-07
-1.43451e-06
7.62422e-07
-1.53782e-06
7.76436e-07
-1.64154e-06
7.85512e-07
-1.74503e-06
7.89133e-07
-1.84762e-06
7.86843e-07
-1.94864e-06
7.78252e-07
-2.04741e-06
7.63049e-07
-2.14324e-06
7.41004e-07
-2.23545e-06
7.11971e-07
-2.3234e-06
6.75894e-07
-2.40642e-06
6.32804e-07
-2.48389e-06
5.82818e-07
-2.55519e-06
5.26142e-07
-2.61975e-06
4.63064e-07
-2.677e-06
3.93954e-07
-2.72639e-06
3.19262e-07
-2.76744e-06
2.39515e-07
-2.79965e-06
1.55317e-07
-2.82258e-06
6.73439e-08
-2.83582e-06
-2.36565e-08
-2.83899e-06
-1.16869e-07
-2.83177e-06
-2.11404e-07
-2.81386e-06
-3.0631e-07
-2.78505e-06
-4.00574e-07
-2.74516e-06
-4.93121e-07
-2.69412e-06
-5.82828e-07
-2.63193e-06
-6.68528e-07
-2.55871e-06
-7.49024e-07
-2.47468e-06
-8.23104e-07
-2.38023e-06
-8.89566e-07
-2.27588e-06
-9.4724e-07
-2.16233e-06
-9.9502e-07
-2.04047e-06
-1.0319e-06
-1.91136e-06
-1.05702e-06
-1.77625e-06
-1.06969e-06
-1.63659e-06
-1.06946e-06
-1.49394e-06
-1.05611e-06
-1.35002e-06
-1.02975e-06
-1.20662e-06
-9.9077e-07
-1.06555e-06
-9.39914e-07
-9.28624e-07
-8.78232e-07
-7.97553e-07
-8.07077e-07
-6.73915e-07
-7.28065e-07
-5.59088e-07
-6.43026e-07
-4.54208e-07
-5.53944e-07
-3.60135e-07
-4.62891e-07
-2.77427e-07
-3.71965e-07
-2.06336e-07
-2.83232e-07
-1.46809e-07
-1.98684e-07
-9.85042e-08
-1.20208e-07
-6.08107e-08
-4.95797e-08
-3.28774e-08
1.15268e-08
-1.36386e-08
6.15154e-08
-1.84065e-09
9.88262e-08
3.93626e-09
1.21889e-07
5.25876e-09
1.29075e-07
3.82353e-09
1.18661e-07
1.43915e-09
8.8811e-08
3.7509e-08
-7.03022e-09
3.2125e-08
-2.59721e-08
9.56363e-08
-5.48826e-08
1.5605e-07
-9.21008e-08
2.12322e-07
-1.36278e-07
2.64265e-07
-1.86378e-07
3.12179e-07
-2.41648e-07
3.56665e-07
-3.01583e-07
3.98466e-07
-3.65873e-07
4.38341e-07
-4.34355e-07
4.76971e-07
-5.06959e-07
5.14895e-07
-5.83667e-07
5.52474e-07
-6.64468e-07
5.89882e-07
-7.49333e-07
6.27103e-07
-8.38187e-07
6.63951e-07
-9.30897e-07
7.00091e-07
-1.02726e-06
7.35067e-07
-1.12699e-06
7.68329e-07
-1.22974e-06
7.99261e-07
-1.33509e-06
8.27207e-07
-1.44256e-06
8.51495e-07
-1.55159e-06
8.7146e-07
-1.66162e-06
8.86461e-07
-1.772e-06
8.95898e-07
-1.8821e-06
8.99229e-07
-1.99123e-06
8.95975e-07
-2.09872e-06
8.85739e-07
-2.20387e-06
8.68204e-07
-2.30601e-06
8.43141e-07
-2.40445e-06
8.10413e-07
-2.49853e-06
7.69975e-07
-2.5876e-06
7.21874e-07
-2.67103e-06
6.66246e-07
-2.74821e-06
6.03316e-07
-2.81854e-06
5.33395e-07
-2.88146e-06
4.56877e-07
-2.93644e-06
3.74239e-07
-2.98295e-06
2.86032e-07
-3.02052e-06
1.92887e-07
-3.04868e-06
9.55051e-08
-3.06701e-06
-5.33354e-09
-3.07509e-06
-1.08791e-07
-3.07255e-06
-2.1394e-07
-3.05906e-06
-3.19797e-07
-3.03433e-06
-4.25304e-07
-2.99811e-06
-5.29338e-07
-2.95023e-06
-6.30713e-07
-2.89057e-06
-7.28186e-07
-2.81913e-06
-8.20466e-07
-2.736e-06
-9.06228e-07
-2.64143e-06
-9.84137e-07
-2.53581e-06
-1.05286e-06
-2.4197e-06
-1.11113e-06
-2.29388e-06
-1.15772e-06
-2.15933e-06
-1.19158e-06
-2.01724e-06
-1.21179e-06
-1.86902e-06
-1.21767e-06
-1.71631e-06
-1.20882e-06
-1.56089e-06
-1.18517e-06
-1.40469e-06
-1.14697e-06
-1.24974e-06
-1.09487e-06