/*--------------------------------*- C++ -*----------------------------------*\
  =========                 |
  \\      /  F ield         | OpenFOAM: The Open Source CFD Toolbox
   \\    /   O peration     | Website:  https://openfoam.org
    \\  /    A nd           | Version:  7
     \\/     M anipulation  |
\*---------------------------------------------------------------------------*/
FoamFile
{
    version     2.0;
    format      ascii;
    class       volVectorField;
    location    "1.475";
    object      U;
}
// * * * * * * * * * * * * * * * * * * * * * * * * * * * * * * * * * * * * * //

dimensions      [0 1 -1 0 0 0 0];

internalField   nonuniform List<vector> 
6400
(
(1.10463e-05 -1.10948e-05 0)
(5.3466e-05 -2.61961e-05 0)
(0.000117054 -2.86531e-05 0)
(0.000172751 -2.35124e-05 0)
(0.000206315 -1.51177e-05 0)
(0.000212789 -5.87207e-06 0)
(0.000191162 3.06448e-06 0)
(0.000142438 1.12035e-05 0)
(6.85334e-05 1.84306e-05 0)
(-2.84785e-05 2.48392e-05 0)
(-0.000146781 3.06162e-05 0)
(-0.000285006 3.5973e-05 0)
(-0.000442294 4.11147e-05 0)
(-0.000618258 4.62169e-05 0)
(-0.000812903 5.14134e-05 0)
(-0.00102651 5.6796e-05 0)
(-0.00125953 6.24147e-05 0)
(-0.00151244 6.82783e-05 0)
(-0.00178566 7.43619e-05 0)
(-0.00207942 8.06104e-05 0)
(-0.00239371 8.69419e-05 0)
(-0.00272818 9.32523e-05 0)
(-0.00308205 9.94184e-05 0)
(-0.00345412 0.000105299 0)
(-0.00384267 0.000110736 0)
(-0.00424543 0.000115558 0)
(-0.00465955 0.000119581 0)
(-0.00508158 0.00012261 0)
(-0.00550749 0.000124445 0)
(-0.00593261 0.000124881 0)
(-0.00635171 0.000123717 0)
(-0.00675901 0.000120764 0)
(-0.00714828 0.000115848 0)
(-0.00751287 0.000108821 0)
(-0.00784587 9.95708e-05 0)
(-0.00814022 8.80269e-05 0)
(-0.00838888 7.41735e-05 0)
(-0.008585 5.80558e-05 0)
(-0.0087221 3.97914e-05 0)
(-0.00879434 1.95718e-05 0)
(-0.0087966 -2.35576e-06 0)
(-0.00872481 -2.56556e-05 0)
(-0.00857613 -4.98991e-05 0)
(-0.0083491 -7.46042e-05 0)
(-0.00804382 -9.92321e-05 0)
(-0.00766203 -0.000123201 0)
(-0.00720723 -0.000145904 0)
(-0.00668467 -0.000166731 0)
(-0.00610132 -0.000185088 0)
(-0.00546575 -0.000200429 0)
(-0.00478797 -0.000212274 0)
(-0.00407923 -0.000220236 0)
(-0.00335167 -0.000224042 0)
(-0.00261804 -0.000223545 0)
(-0.00189133 -0.00021874 0)
(-0.00118435 -0.00020976 0)
(-0.000509371 -0.000196881 0)
(0.000122262 -0.000180507 0)
(0.000700435 -0.000161139 0)
(0.00121659 -0.000139371 0)
(0.0016639 -0.000115854 0)
(0.00203741 -9.12561e-05 0)
(0.00233413 -6.62412e-05 0)
(0.00255296 -4.14345e-05 0)
(0.00269461 -1.73992e-05 0)
(0.00276144 5.38257e-06 0)
(0.00275726 2.652e-05 0)
(0.00268707 4.57156e-05 0)
(0.00255689 6.27515e-05 0)
(0.00237356 7.74658e-05 0)
(0.00214463 8.97125e-05 0)
(0.0018784 9.92998e-05 0)
(0.00158408 0.000105904 0)
(0.00127225 0.000108948 0)
(0.00095547 0.000107447 0)
(0.000649332 9.98443e-05 0)
(0.000373451 8.39622e-05 0)
(0.000151755 5.71665e-05 0)
(1.19247e-05 1.85124e-05 0)
(-1.69283e-05 -1.69754e-05 0)
(2.66492e-05 -5.37751e-05 0)
(0.000105944 -0.000105152 0)
(0.000206046 -0.000105943 0)
(0.000277881 -7.54082e-05 0)
(0.000295163 -2.90117e-05 0)
(0.000246434 2.34778e-05 0)
(0.000127605 7.64045e-05 0)
(-6.09781e-05 0.000126921 0)
(-0.00031652 0.000173959 0)
(-0.000635378 0.000217517 0)
(-0.00101408 0.000258178 0)
(-0.00144982 0.000296781 0)
(-0.00194074 0.000334209 0)
(-0.00248585 0.000371248 0)
(-0.00308494 0.000408514 0)
(-0.00373833 0.000446407 0)
(-0.00444659 0.000485101 0)
(-0.00521028 0.00052455 0)
(-0.00602966 0.000564508 0)
(-0.00690442 0.000604545 0)
(-0.00783352 0.000644074 0)
(-0.00881492 0.000682369 0)
(-0.00984547 0.000718587 0)
(-0.0109207 0.000751786 0)
(-0.0120349 0.000780939 0)
(-0.0131806 0.000804953 0)
(-0.0143492 0.000822689 0)
(-0.0155303 0.000832986 0)
(-0.0167121 0.00083468 0)
(-0.0178812 0.000826643 0)
(-0.0190231 0.000807818 0)
(-0.0201219 0.000777255 0)
(-0.0211609 0.000734158 0)
(-0.0221225 0.000677923 0)
(-0.022989 0.000608193 0)
(-0.0237425 0.000524891 0)
(-0.0243654 0.000428269 0)
(-0.0248411 0.000318931 0)
(-0.0251545 0.000197875 0)
(-0.0252918 6.64818e-05 0)
(-0.025242 -7.35298e-05 0)
(-0.0249963 -0.000219937 0)
(-0.0245494 -0.000370224 0)
(-0.0238995 -0.000521572 0)
(-0.0230484 -0.00067091 0)
(-0.022002 -0.000815 0)
(-0.0207704 -0.000950527 0)
(-0.0193676 -0.00107421 0)
(-0.0178116 -0.0011829 0)
(-0.0161241 -0.00127372 0)
(-0.01433 -0.00134418 0)
(-0.0124571 -0.00139226 0)
(-0.010535 -0.00141653 0)
(-0.00859484 -0.00141621 0)
(-0.00666835 -0.00139123 0)
(-0.00478689 -0.00134224 0)
(-0.00298068 -0.00127061 0)
(-0.00127799 -0.00117838 0)
(0.000295664 -0.00106814 0)
(0.00171815 -0.000942967 0)
(0.00297128 -0.000806293 0)
(0.00404119 -0.000661731 0)
(0.00491854 -0.000512937 0)
(0.00559858 -0.000363465 0)
(0.00608099 -0.000216641 0)
(0.0063697 -7.54599e-05 0)
(0.00647245 5.74717e-05 0)
(0.00640044 0.00017995 0)
(0.00616786 0.000290135 0)
(0.00579159 0.000386433 0)
(0.00529098 0.000467327 0)
(0.00468784 0.000531119 0)
(0.00400678 0.000575597 0)
(0.00327578 0.000597641 0)
(0.0025271 0.000592816 0)
(0.00179842 0.000555157 0)
(0.00113289 0.000477624 0)
(0.000577444 0.000353769 0)
(0.000185411 0.000184689 0)
(1.87809e-05 1.1976e-05 0)
(2.99135e-05 -0.000118987 0)
(0.000107374 -0.000205766 0)
(0.000185121 -0.000186233 0)
(0.00020786 -0.00010044 0)
(0.000145551 2.17724e-05 0)
(-1.5901e-05 0.000159994 0)
(-0.000282215 0.000301432 0)
(-0.000653647 0.000439043 0)
(-0.00112737 0.000569754 0)
(-0.0016993 0.000693031 0)
(-0.00236539 0.000809841 0)
(-0.00312229 0.000921886 0)
(-0.00396766 0.00103106 0)
(-0.00490023 0.00113909 0)
(-0.00591958 0.00124731 0)
(-0.0070258 0.00135653 0)
(-0.00821919 0.00146702 0)
(-0.00949981 0.00157847 0)
(-0.0108671 0.00169003 0)
(-0.0123194 0.00180039 0)
(-0.0138541 0.00190782 0)
(-0.0154665 0.0020102 0)
(-0.0171505 0.00210513 0)
(-0.0188978 0.00218996 0)
(-0.020698 0.00226182 0)
(-0.0225385 0.00231773 0)
(-0.0244044 0.0023546 0)
(-0.0262785 0.00236938 0)
(-0.0281416 0.00235905 0)
(-0.0299724 0.00232079 0)
(-0.031748 0.00225204 0)
(-0.0334436 0.00215057 0)
(-0.0350339 0.00201468 0)
(-0.0364926 0.00184323 0)
(-0.0377933 0.00163575 0)
(-0.0389099 0.00139257 0)
(-0.0398177 0.0011149 0)
(-0.0404933 0.00080485 0)
(-0.0409157 0.000465505 0)
(-0.041067 0.000100913 0)
(-0.0409324 -0.000284053 0)
(-0.0405016 -0.000683348 0)
(-0.0397689 -0.0010903 0)
(-0.0387333 -0.00149757 0)
(-0.0373996 -0.00189726 0)
(-0.0357777 -0.00228117 0)
(-0.0338834 -0.002641 0)
(-0.0317379 -0.00296861 0)
(-0.0293678 -0.00325625 0)
(-0.0268043 -0.00349687 0)
(-0.0240833 -0.00368434 0)
(-0.0212442 -0.00381375 0)
(-0.0183292 -0.00388156 0)
(-0.0153826 -0.00388581 0)
(-0.0124493 -0.00382625 0)
(-0.00957402 -0.00370433 0)
(-0.00680028 -0.00352326 0)
(-0.00416901 -0.00328784 0)
(-0.0017177 -0.00300435 0)
(0.000520559 -0.00268025 0)
(0.00251789 -0.00232395 0)
(0.00425223 -0.00194446 0)
(0.00570768 -0.00155103 0)
(0.00687479 -0.00115282 0)
(0.00775047 -0.000758569 0)
(0.00833783 -0.000376403 0)
(0.00864582 -1.36143e-05 0)
(0.00868875 0.000323362 0)
(0.00848589 0.000628891 0)
(0.00806097 0.000897908 0)
(0.0074419 0.00112556 0)
(0.00666074 0.00130668 0)
(0.00575384 0.00143518 0)
(0.00476225 0.00150337 0)
(0.00373248 0.00150143 0)
(0.00271708 0.00141752 0)
(0.00177378 0.00123929 0)
(0.000962828 0.000957728 0)
(0.000357085 0.000577648 0)
(5.80683e-05 0.000152903 0)
(2.47001e-05 -0.000175974 0)
(7.23847e-05 -0.000274508 0)
(8.3978e-05 -0.000206252 0)
(7.65848e-06 -3.46892e-05 0)
(-0.000185236 0.000195189 0)
(-0.000508509 0.00045186 0)
(-0.000967631 0.000715047 0)
(-0.00156267 0.000973162 0)
(-0.00229065 0.00122085 0)
(-0.00314738 0.0014569 0)
(-0.00412872 0.00168263 0)
(-0.00523127 0.00190064 0)
(-0.00645266 0.00211387 0)
(-0.00779156 0.00232502 0)
(-0.00924738 0.0025361 0)
(-0.0108199 0.00274821 0)
(-0.012509 0.00296148 0)
(-0.0143137 0.00317501 0)
(-0.0162321 0.00338694 0)
(-0.018261 0.00359456 0)
(-0.0203951 0.00379439 0)
(-0.0226271 0.00398229 0)
(-0.024947 0.00415361 0)
(-0.0273423 0.00430324 0)
(-0.0297977 0.00442578 0)
(-0.032295 0.00451566 0)
(-0.0348133 0.00456722 0)
(-0.0373287 0.00457491 0)
(-0.0398152 0.00453343 0)
(-0.042244 0.00443789 0)
(-0.0445849 0.004284 0)
(-0.046806 0.00406825 0)
(-0.0488744 0.00378809 0)
(-0.050757 0.00344213 0)
(-0.0524211 0.00303029 0)
(-0.0538349 0.00255392 0)
(-0.0549683 0.00201594 0)
(-0.0557938 0.0014209 0)
(-0.0562872 0.000775025 0)
(-0.0564281 8.61548e-05 0)
(-0.0562006 -0.0006363 0)
(-0.0555938 -0.00138143 0)
(-0.0546029 -0.00213708 0)
(-0.0532287 -0.00289006 0)
(-0.0514786 -0.00362641 0)
(-0.0493663 -0.00433174 0)
(-0.046912 -0.00499159 0)
(-0.0441423 -0.00559186 0)
(-0.04109 -0.00611919 0)
(-0.0377933 -0.00656144 0)
(-0.0342955 -0.00690806 0)
(-0.0306442 -0.00715053 0)
(-0.0268905 -0.00728266 0)
(-0.0230876 -0.00730093 0)
(-0.0192901 -0.00720463 0)
(-0.0155526 -0.00699601 0)
(-0.0119285 -0.00668024 0)
(-0.00846847 -0.00626529 0)
(-0.00521973 -0.00576167 0)
(-0.00222456 -0.0051821 0)
(0.00048057 -0.004541 0)
(0.0028658 -0.00385403 0)
(0.00490855 -0.00313746 0)
(0.00659386 -0.00240766 0)
(0.00791454 -0.00168055 0)
(0.00887115 -0.000971168 0)
(0.00947172 -0.000293344 0)
(0.00973137 0.000340409 0)
(0.00967181 0.00091885 0)
(0.00932095 0.00143171 0)
(0.00871245 0.00186916 0)
(0.00788556 0.00222111 0)
(0.00688504 0.00247632 0)
(0.00576133 0.00262156 0)
(0.00457093 0.00264106 0)
(0.00337677 0.0025169 0)
(0.00224688 0.00223108 0)
(0.00125214 0.00177045 0)
(0.000484418 0.00113727 0)
(8.56508e-05 0.000377559 0)
(1.47318e-05 -0.000207184 0)
(1.31427e-05 -0.000276082 0)
(-7.55052e-05 -0.000122133 0)
(-0.000291233 0.000169065 0)
(-0.000657117 0.000538008 0)
(-0.00118437 0.000942933 0)
(-0.00187654 0.00135671 0)
(-0.00273248 0.0017637 0)
(-0.00374862 0.00215656 0)
(-0.0049206 0.00253361 0)
(-0.00624436 0.00289662 0)
(-0.0077167 0.00324908 0)
(-0.00933546 0.00359496 0)
(-0.0110994 0.00393778 0)
(-0.0130079 0.00428005 0)
(-0.0150604 0.0046229 0)
(-0.0172559 0.00496593 0)
(-0.0195924 0.00530724 0)
(-0.0220664 0.00564348 0)
(-0.0246724 0.00596997 0)
(-0.0274023 0.00628091 0)
(-0.0302453 0.00656953 0)
(-0.0331877 0.00682829 0)
(-0.0362122 0.00704907 0)
(-0.0392986 0.00722336 0)
(-0.0424231 0.00734248 0)
(-0.0455588 0.0073978 0)
(-0.0486756 0.00738098 0)
(-0.0517411 0.00728421 0)
(-0.0547202 0.00710048 0)
(-0.0575762 0.00682386 0)
(-0.0602713 0.00644976 0)
(-0.0627669 0.00597519 0)
(-0.0650246 0.00539899 0)
(-0.0670072 0.00472206 0)
(-0.0686788 0.0039475 0)
(-0.0700063 0.00308075 0)
(-0.0709596 0.00212961 0)
(-0.0715127 0.00110427 0)
(-0.0716443 1.72316e-05 0)
(-0.0713383 -0.00111657 0)
(-0.0705842 -0.00228069 0)
(-0.0693781 -0.00345671 0)
(-0.0677225 -0.00462487 0)
(-0.0656269 -0.00576446 0)
(-0.0631077 -0.00685426 0)
(-0.0601883 -0.0078731 0)
(-0.0568986 -0.00880035 0)
(-0.0532756 -0.00961652 0)
(-0.0493619 -0.0103038 0)
(-0.0452059 -0.0108469 0)
(-0.0408607 -0.011233 0)
(-0.0363833 -0.0114529 0)
(-0.0318334 -0.011501 0)
(-0.0272728 -0.0113759 0)
(-0.0227634 -0.0110802 0)
(-0.0183663 -0.010621 0)
(-0.0141405 -0.0100092 0)
(-0.0101414 -0.00925961 0)
(-0.00641961 -0.00839052 0)
(-0.00301952 -0.00742278 0)
(2.1363e-05 -0.00637933 0)
(0.00267343 -0.00528434 0)
(0.00491556 -0.00416245 0)
(0.00673545 -0.00303796 0)
(0.00812974 -0.00193421 0)
(0.00910393 -0.000873084 0)
(0.00967206 0.000125263 0)
(0.00985632 0.0010424 0)
(0.00968657 0.00186133 0)
(0.0091999 0.00256583 0)
(0.00844024 0.00313965 0)
(0.00745816 0.00356543 0)
(0.0063107 0.00382377 0)
(0.00506159 0.00389255 0)
(0.0037815 0.00374736 0)
(0.00254684 0.00336351 0)
(0.00143826 0.00272059 0)
(0.00056501 0.0018109 0)
(0.000102084 0.000658346 0)
(1.97274e-06 -0.000202363 0)
(-6.28352e-05 -0.000186571 0)
(-0.000278214 9.82951e-05 0)
(-0.000666001 0.000547482 0)
(-0.00124028 0.00108878 0)
(-0.00200758 0.00167171 0)
(-0.00296801 0.00226356 0)
(-0.00411819 0.00284562 0)
(-0.00545338 0.00340932 0)
(-0.00696882 0.00395295 0)
(-0.00866049 0.004479 0)
(-0.0105255 0.00499197 0)
(-0.012562 0.0054968 0)
(-0.014769 0.00599767 0)
(-0.0171458 0.00649728 0)
(-0.0196914 0.0069964 0)
(-0.022404 0.00749371 0)
(-0.0252802 0.00798578 0)
(-0.0283146 0.00846718 0)
(-0.0314991 0.00893074 0)
(-0.0348226 0.00936772 0)
(-0.0382707 0.00976815 0)
(-0.0418253 0.0101211 0)
(-0.0454648 0.0104148 0)
(-0.0491636 0.0106373 0)
(-0.0528925 0.0107766 0)
(-0.0566192 0.0108206 0)
(-0.060308 0.0107582 0)
(-0.0639206 0.0105791 0)
(-0.0674166 0.0102744 0)
(-0.0707541 0.00983658 0)
(-0.0738905 0.00926054 0)
(-0.0767829 0.00854329 0)
(-0.0793893 0.0076845 0)
(-0.0816692 0.00668671 0)
(-0.0835844 0.00555542 0)
(-0.0850996 0.00429928 0)
(-0.0861835 0.00293002 0)
(-0.0868094 0.00146249 0)
(-0.0869555 -8.55637e-05 0)
(-0.0866056 -0.00169361 0)
(-0.08575 -0.00333874 0)
(-0.0843851 -0.00499592 0)
(-0.0825144 -0.00663849 0)
(-0.0801484 -0.00823869 0)
(-0.0773048 -0.00976817 0)
(-0.0740084 -0.0111987 0)
(-0.0702912 -0.0125028 0)
(-0.0661919 -0.0136546 0)
(-0.0617558 -0.0146301 0)
(-0.0570342 -0.0154085 0)
(-0.0520837 -0.0159727 0)
(-0.0469654 -0.0163097 0)
(-0.0417438 -0.0164114 0)
(-0.036486 -0.0162748 0)
(-0.0312601 -0.0159027 0)
(-0.0261339 -0.0153033 0)
(-0.0211736 -0.0144903 0)
(-0.0164423 -0.0134828 0)
(-0.0119984 -0.0123041 0)
(-0.00789435 -0.010982 0)
(-0.0041755 -0.00954693 0)
(-0.000878869 -0.00803154 0)
(0.00196754 -0.00646953 0)
(0.00434538 -0.00489457 0)
(0.00624631 -0.0033395 0)
(0.00767198 -0.00183555 0)
(0.00863393 -0.000411918 0)
(0.00915322 0.000904334 0)
(0.00925999 0.00208806 0)
(0.00899293 0.00311535 0)
(0.0083988 0.00396266 0)
(0.00753204 0.00460559 0)
(0.00645441 0.0050178 0)
(0.00523509 0.00517023 0)
(0.003951 0.00503113 0)
(0.0026858 0.00456755 0)
(0.00152921 0.00374866 0)
(0.000604619 0.00255142 0)
(0.000109772 0.000970735 0)
(-1.26797e-05 -0.000154409 0)
(-0.000151073 1.24825e-05 0)
(-0.000514024 0.000481076 0)
(-0.0011005 0.00113105 0)
(-0.00191265 0.0018801 0)
(-0.00295058 0.00267115 0)
(-0.00420964 0.00346772 0)
(-0.00568325 0.00424941 0)
(-0.00736491 0.00500748 0)
(-0.00924914 0.00574095 0)
(-0.0113319 0.00645347 0)
(-0.0136104 0.00715072 0)
(-0.0160834 0.00783856 0)
(-0.0187501 0.00852164 0)
(-0.0216096 0.00920251 0)
(-0.0246606 0.00988116 0)
(-0.0279003 0.0105548 0)
(-0.0313237 0.0112179 0)
(-0.0349232 0.0118624 0)
(-0.0386881 0.0124781 0)
(-0.0426041 0.0130527 0)
(-0.0466528 0.0135724 0)
(-0.0508121 0.0140226 0)
(-0.0550555 0.0143875 0)
(-0.0593528 0.0146514 0)
(-0.0636698 0.0147985 0)
(-0.0679688 0.0148137 0)
(-0.0722094 0.0146829 0)
(-0.0763485 0.0143936 0)
(-0.0803413 0.013935 0)
(-0.0841418 0.0132989 0)
(-0.0877037 0.0124799 0)
(-0.0909813 0.0114756 0)
(-0.0939299 0.0102871 0)
(-0.096507 0.00891912 0)
(-0.098673 0.00738012 0)
(-0.100391 0.00568244 0)
(-0.10163 0.0038422 0)
(-0.102362 0.0018793 0)
(-0.102565 -0.000182959 0)
(-0.102223 -0.00231873 0)
(-0.101325 -0.00449799 0)
(-0.099868 -0.00668905 0)
(-0.0978549 -0.00885833 0)
(-0.0952961 -0.0109709 0)
(-0.092209 -0.0129913 0)
(-0.0886182 -0.014884 0)
(-0.0845558 -0.0166143 0)
(-0.0800609 -0.0181496 0)
(-0.0751796 -0.0194595 0)
(-0.0699645 -0.0205172 0)
(-0.0644742 -0.0213003 0)
(-0.0587725 -0.0217915 0)
(-0.0529277 -0.0219793 0)
(-0.0470112 -0.0218587 0)
(-0.0410966 -0.0214316 0)
(-0.035258 -0.0207068 0)
(-0.0295686 -0.0197001 0)
(-0.024099 -0.0184343 0)
(-0.0189157 -0.0169379 0)
(-0.0140797 -0.0152451 0)
(-0.00964462 -0.0133942 0)
(-0.00565558 -0.0114268 0)
(-0.00214826 -0.0093862 0)
(0.000852042 -0.0073163 0)
(0.00333094 -0.00526047 0)
(0.0052852 -0.00326048 0)
(0.00672266 -0.00135589 0)
(0.00766205 0.000416288 0)
(0.00813248 0.0020214 0)
(0.00817291 0.00342664 0)
(0.00783159 0.00460002 0)
(0.00716549 0.00550913 0)
(0.00623986 0.00611989 0)
(0.00512824 0.0063954 0)
(0.0039128 0.00629557 0)
(0.0026836 0.00577763 0)
(0.00153827 0.00479802 0)
(0.000610565 0.00331545 0)
(0.000110916 0.00129433 0)
(-2.87543e-05 -5.79823e-05 0)
(-0.000248916 0.00033571 0)
(-0.000776206 0.00104739 0)
(-0.00158317 0.00194508 0)
(-0.00265769 0.00293939 0)
(-0.00399199 0.00396928 0)
(-0.00557545 0.00499667 0)
(-0.00739747 0.00600131 0)
(-0.00944927 0.00697562 0)
(-0.0117243 0.00792029 0)
(-0.0142184 0.00884067 0)
(-0.016929 0.00974393 0)
(-0.019855 0.0106368 0)
(-0.0229961 0.0115242 0)
(-0.0263512 0.0124082 0)
(-0.0299185 0.0132875 0)
(-0.0336939 0.0141572 0)
(-0.037671 0.0150092 0)
(-0.0418399 0.0158322 0)
(-0.046187 0.0166122 0)
(-0.0506945 0.017333 0)
(-0.0553405 0.0179768 0)
(-0.0600986 0.0185245 0)
(-0.0649381 0.0189563 0)
(-0.069824 0.0192525 0)
(-0.0747177 0.0193936 0)
(-0.0795773 0.0193614 0)
(-0.084358 0.0191392 0)
(-0.089013 0.0187124 0)
(-0.093494 0.0180692 0)
(-0.097752 0.0172008 0)
(-0.101738 0.016102 0)
(-0.105405 0.0147717 0)
(-0.108706 0.0132127 0)
(-0.111598 0.0114324 0)
(-0.11404 0.00944264 0)
(-0.115994 0.00725962 0)
(-0.117429 0.00490403 0)
(-0.118315 0.00240086 0)
(-0.118631 -0.000221005 0)
(-0.11836 -0.00293044 0)
(-0.117488 -0.0056904 0)
(-0.116011 -0.00846277 0)
(-0.113932 -0.0112072 0)
(-0.111259 -0.0138816 0)
(-0.108007 -0.0164433 0)
(-0.104199 -0.0188493 0)
(-0.099866 -0.0210579 0)
(-0.0950457 -0.0230288 0)
(-0.0897835 -0.0247248 0)
(-0.084132 -0.0261126 0)
(-0.0781507 -0.0271637 0)
(-0.0719052 -0.0278554 0)
(-0.0654666 -0.028172 0)
(-0.0589103 -0.0281054 0)
(-0.0523149 -0.0276556 0)
(-0.0457607 -0.0268311 0)
(-0.0393281 -0.0256491 0)
(-0.0330958 -0.0241353 0)
(-0.027139 -0.022323 0)
(-0.0215276 -0.0202527 0)
(-0.0163246 -0.0179706 0)
(-0.0115841 -0.0155274 0)
(-0.0073506 -0.0129766 0)
(-0.00365725 -0.0103732 0)
(-0.000525515 -0.0077721 0)
(0.00203539 -0.00522675 0)
(0.00402863 -0.00278833 0)
(0.00546953 -0.000505128 0)
(0.00638521 0.00157742 0)
(0.00681395 0.00341631 0)
(0.00680452 0.00497 0)
(0.00641557 0.00619703 0)
(0.00571504 0.00705461 0)
(0.00478009 0.0074971 0)
(0.00369745 0.00747504 0)
(0.00256271 0.00693467 0)
(0.0014801 0.00581845 0)
(0.000590057 0.00406607 0)
(0.000107336 0.00161316 0)
(-4.60017e-05 9.13464e-05 0)
(-0.000354665 0.000794995 0)
(-0.00106007 0.00181464 0)
(-0.00210545 0.00301049 0)
(-0.0034626 0.00428946 0)
(-0.00511456 0.00558954 0)
(-0.00704382 0.00687362 0)
(-0.00923506 0.00812363 0)
(-0.0116768 0.00933474 0)
(-0.0143612 0.0105104 0)
(-0.0172836 0.0116585 0)
(-0.0204417 0.0127878 0)
(-0.0238349 0.0139061 0)
(-0.0274626 0.0150182 0)
(-0.031324 0.0161253 0)
(-0.0354165 0.0172243 0)
(-0.0397348 0.0183078 0)
(-0.0442707 0.0193644 0)
(-0.049012 0.0203789 0)
(-0.0539423 0.0213333 0)
(-0.0590405 0.0222069 0)
(-0.0642809 0.0229772 0)
(-0.0696332 0.0236208 0)
(-0.0750627 0.0241137 0)
(-0.0805306 0.0244319 0)
(-0.0859943 0.0245529 0)
(-0.0914083 0.0244552 0)
(-0.0967244 0.0241199 0)
(-0.101893 0.0235309 0)
(-0.106863 0.0226756 0)
(-0.111584 0.0215451 0)
(-0.116005 0.0201351 0)
(-0.120078 0.0184459 0)
(-0.123754 0.0164825 0)
(-0.126991 0.0142552 0)
(-0.129745 0.0117791 0)
(-0.13198 0.00907456 0)
(-0.133662 0.00616647 0)
(-0.134761 0.00308435 0)
(-0.135254 -0.000137797 0)
(-0.135122 -0.00345988 0)
(-0.134348 -0.00684252 0)
(-0.132929 -0.0102408 0)
(-0.130861 -0.0136073 0)
(-0.12815 -0.0168931 0)
(-0.124808 -0.020048 0)
(-0.120856 -0.0230219 0)
(-0.116321 -0.025765 0)
(-0.111239 -0.0282297 0)
(-0.105652 -0.0303709 0)
(-0.0996123 -0.032148 0)
(-0.0931791 -0.0335254 0)
(-0.0864189 -0.0344742 0)
(-0.0794048 -0.034973 0)
(-0.072216 -0.0350094 0)
(-0.0649357 -0.0345802 0)
(-0.0576507 -0.0336927 0)
(-0.0504488 -0.0323642 0)
(-0.0434174 -0.0306225 0)
(-0.0366411 -0.0285052 0)
(-0.0302 -0.0260586 0)
(-0.0241672 -0.0233368 0)
(-0.0186075 -0.0203999 0)
(-0.013575 -0.0173121 0)
(-0.00911219 -0.0141404 0)
(-0.00524883 -0.0109522 0)
(-0.00200115 -0.0078138 0)
(0.000628247 -0.00478932 0)
(0.00265041 -0.00193973 0)
(0.00408959 0.000677419 0)
(0.00498262 0.00300759 0)
(0.00537815 0.00499846 0)
(0.00533595 0.00659844 0)
(0.00492615 0.007755 0)
(0.00422905 0.00841285 0)
(0.00333537 0.0085123 0)
(0.00234545 0.00798791 0)
(0.00136881 0.00676783 0)
(0.000549529 0.00477349 0)
(0.000100477 0.00191518 0)
(-6.43573e-05 0.0002973 0)
(-0.000467232 0.00140019 0)
(-0.0013621 0.00279714 0)
(-0.00266058 0.00434448 0)
(-0.0043168 0.00594905 0)
(-0.00630365 0.00755117 0)
(-0.00859593 0.00911757 0)
(-0.0111731 0.0106346 0)
(-0.0140206 0.0121021 0)
(-0.0171291 0.0135274 0)
(-0.0204934 0.0149216 0)
(-0.0241115 0.0162956 0)
(-0.0279826 0.0176581 0)
(-0.0321067 0.0190138 0)
(-0.0364825 0.0203625 0)
(-0.0411066 0.0216987 0)
(-0.0459728 0.0230119 0)
(-0.0510707 0.0242869 0)
(-0.0563859 0.0255042 0)
(-0.0618991 0.0266411 0)
(-0.0675861 0.0276722 0)
(-0.0734178 0.0285702 0)
(-0.0793603 0.029307 0)
(-0.0853754 0.0298545 0)
(-0.0914208 0.0301848 0)
(-0.0974508 0.0302721 0)
(-0.103417 0.0300924 0)
(-0.109269 0.0296249 0)
(-0.114954 0.0288524 0)
(-0.120421 0.0277617 0)
(-0.125618 0.0263446 0)
(-0.130492 0.0245977 0)
(-0.134994 0.0225231 0)
(-0.139077 0.0201281 0)
(-0.142695 0.017426 0)
(-0.145807 0.0144351 0)
(-0.148372 0.0111795 0)
(-0.150357 0.00768823 0)
(-0.151731 0.00399533 0)
(-0.152465 0.000139674 0)
(-0.15254 -0.00383352 0)
(-0.151939 -0.00787937 0)
(-0.15065 -0.0119469 0)
(-0.148668 -0.0159825 0)
(-0.145994 -0.0199303 0)
(-0.142636 -0.0237331 0)
(-0.13861 -0.0273329 0)
(-0.133938 -0.0306723 0)
(-0.128654 -0.0336953 0)
(-0.122796 -0.0363485 0)
(-0.116413 -0.0385828 0)
(-0.109565 -0.0403547 0)
(-0.102316 -0.0416275 0)
(-0.0947423 -0.042373 0)
(-0.0869251 -0.0425727 0)
(-0.0789525 -0.0422192 0)
(-0.0709173 -0.0413164 0)
(-0.0629154 -0.039881 0)
(-0.0550431 -0.0379416 0)
(-0.0473957 -0.035539 0)
(-0.0400643 -0.0327251 0)
(-0.0331339 -0.0295616 0)
(-0.026681 -0.0261182 0)
(-0.0207712 -0.0224704 0)
(-0.0154577 -0.018698 0)
(-0.01078 -0.0148819 0)
(-0.00676284 -0.0111027 0)
(-0.00341561 -0.00743888 0)
(-0.000732638 -0.00396564 0)
(0.00130664 -0.000754133 0)
(0.00273695 0.00212818 0)
(0.00360636 0.00461685 0)
(0.00397528 0.00664896 0)
(0.00391574 0.00816121 0)
(0.00351089 0.00908778 0)
(0.00285498 0.00935808 0)
(0.00205245 0.00889472 0)
(0.00121711 0.00761196 0)
(0.000494512 0.00541454 0)
(9.14803e-05 0.00219166 0)
(-8.36986e-05 0.000563069 0)
(-0.000585624 0.00215951 0)
(-0.0016793 0.00400662 0)
(-0.00324266 0.0059609 0)
(-0.00521093 0.00793308 0)
(-0.00754604 0.00986939 0)
(-0.0102146 0.0117434 0)
(-0.0131903 0.0135486 0)
(-0.0164554 0.0152911 0)
(-0.019999 0.0169836 0)
(-0.0238152 0.0186412 0)
(-0.0279019 0.0202774 0)
(-0.0322588 0.0219017 0)
(-0.0368856 0.0235185 0)
(-0.0417809 0.0251256 0)
(-0.0469405 0.026715 0)
(-0.0523566 0.0282723 0)
(-0.0580173 0.029778 0)
(-0.0639056 0.0312078 0)
(-0.0699997 0.0325339 0)
(-0.0762723 0.033726 0)
(-0.0826912 0.034752 0)
(-0.0892194 0.035579 0)
(-0.0958157 0.0361748 0)
(-0.102435 0.0365081 0)
(-0.109029 0.0365498 0)
(-0.115548 0.0362741 0)
(-0.121938 0.0356584 0)
(-0.128148 0.0346848 0)
(-0.134123 0.0333403 0)
(-0.13981 0.0316173 0)
(-0.145159 0.0295136 0)
(-0.150118 0.0270331 0)
(-0.154639 0.0241856 0)
(-0.158677 0.0209869 0)
(-0.162189 0.0174586 0)
(-0.165134 0.013628 0)
(-0.167476 0.009528 0)
(-0.169181 0.00519696 0)
(-0.170221 0.000678126 0)
(-0.170569 -0.00398185 0)
(-0.170207 -0.0087294 0)
(-0.169118 -0.0135086 0)
(-0.167292 -0.0182601 0)
(-0.164725 -0.0229217 0)
(-0.161421 -0.0274289 0)
(-0.157388 -0.0317162 0)
(-0.152646 -0.0357179 0)
(-0.14722 -0.0393694 0)
(-0.141146 -0.0426082 0)
(-0.13447 -0.045376 0)
(-0.127247 -0.0476198 0)
(-0.119542 -0.0492939 0)
(-0.111429 -0.0503616 0)
(-0.102993 -0.0507968 0)
(-0.0943259 -0.0505857 0)
(-0.0855256 -0.0497276 0)
(-0.076696 -0.0482363 0)
(-0.0679433 -0.0461402 0)
(-0.0593737 -0.043482 0)
(-0.051091 -0.0403184 0)
(-0.0431933 -0.0367181 0)
(-0.0357706 -0.0327607 0)
(-0.0289019 -0.0285335 0)
(-0.0226531 -0.0241298 0)
(-0.0170751 -0.0196454 0)
(-0.0122028 -0.0151767 0)
(-0.00805408 -0.0108182 0)
(-0.00462973 -0.00666085 0)
(-0.00191388 -0.0027913 0)
(0.000125385 0.000708508 0)
(0.00153496 0.00376051 0)
(0.00237567 0.00628914 0)
(0.00272116 0.00821924 0)
(0.00265723 0.00947362 0)
(0.00228144 0.00997033 0)
(0.00170188 0.00962 0)
(0.00103604 0.00832382 0)
(0.00042966 0.00597191 0)
(8.12585e-05 0.00243655 0)
(-0.000103919 0.000891492 0)
(-0.000708907 0.00307977 0)
(-0.00200881 0.00545245 0)
(-0.00384611 0.00787058 0)
(-0.00613609 0.010253 0)
(-0.00882914 0.0125555 0)
(-0.0118832 0.0147621 0)
(-0.0152662 0.0168758 0)
(-0.0189567 0.018911 0)
(-0.0229423 0.0208874 0)
(-0.0272164 0.0228248 0)
(-0.031777 0.0247395 0)
(-0.0366237 0.0266422 0)
(-0.0417562 0.0285363 0)
(-0.0471727 0.0304177 0)
(-0.0528681 0.0322748 0)
(-0.0588333 0.0340891 0)
(-0.0650545 0.0358363 0)
(-0.0715125 0.037487 0)
(-0.0781827 0.0390081 0)
(-0.0850354 0.040364 0)
(-0.0920355 0.0415177 0)
(-0.0991435 0.042432 0)
(-0.106316 0.0430706 0)
(-0.113504 0.0433989 0)
(-0.12066 0.0433854 0)
(-0.127731 0.0430021 0)
(-0.134663 0.0422257 0)
(-0.141402 0.0410377 0)
(-0.147895 0.0394254 0)
(-0.154089 0.037382 0)
(-0.159931 0.0349067 0)
(-0.16537 0.0320052 0)
(-0.170358 0.0286894 0)
(-0.174849 0.0249775 0)
(-0.178799 0.0208938 0)
(-0.182165 0.0164687 0)
(-0.184909 0.0117381 0)
(-0.186996 0.00674385 0)
(-0.188393 0.00153282 0)
(-0.189071 -0.00384355 0)
(-0.189007 -0.00932789 0)
(-0.18818 -0.0148591 0)
(-0.186575 -0.0203722 0)
(-0.184182 -0.0257987 0)
(-0.180999 -0.0310674 0)
(-0.177028 -0.0361051 0)
(-0.172282 -0.0408378 0)
(-0.166781 -0.0451918 0)
(-0.160555 -0.0490951 0)
(-0.153643 -0.052479 0)
(-0.146098 -0.0552802 0)
(-0.13798 -0.0574425 0)
(-0.129363 -0.0589188 0)
(-0.120331 -0.0596735 0)
(-0.11098 -0.0596843 0)
(-0.101412 -0.0589437 0)
(-0.0917384 -0.0574607 0)
(-0.0820751 -0.0552613 0)
(-0.0725401 -0.0523887 0)
(-0.0632504 -0.048903 0)
(-0.0543191 -0.0448795 0)
(-0.0458514 -0.0404072 0)
(-0.0379419 -0.0355857 0)
(-0.0306715 -0.0305226 0)
(-0.024105 -0.02533 0)
(-0.0182894 -0.0201218 0)
(-0.013253 -0.0150103 0)
(-0.00900477 -0.0101044 0)
(-0.00553471 -0.00550811 0)
(-0.00281473 -0.00131979 0)
(-0.000799671 0.00236716 0)
(0.000571265 0.00546304 0)
(0.00137321 0.00787967 0)
(0.00169448 0.00952763 0)
(0.00163586 0.0103132 0)
(0.00130896 0.0101352 0)
(0.000834754 0.00888269 0)
(0.000358778 0.00643325 0)
(7.0538e-05 0.00264609 0)
(-0.000124888 0.00128491 0)
(-0.000836074 0.00416633 0)
(-0.00234769 0.00714173 0)
(-0.00446529 0.0100814 0)
(-0.00708337 0.0129166 0)
(-0.0101404 0.0156172 0)
(-0.0135853 0.0181806 0)
(-0.0173801 0.0206224 0)
(-0.0215 0.0229674 0)
(-0.0259306 0.0252435 0)
(-0.0306648 0.0274761 0)
(-0.0357003 0.0296849 0)
(-0.041037 0.0318812 0)
(-0.0466744 0.0340678 0)
(-0.0526101 0.0362378 0)
(-0.058838 0.038376 0)
(-0.0653477 0.040459 0)
(-0.0721235 0.0424574 0)
(-0.0791441 0.0443363 0)
(-0.0863826 0.0460571 0)
(-0.0938067 0.0475791 0)
(-0.101379 0.0488603 0)
(-0.109058 0.0498593 0)
(-0.116797 0.050536 0)
(-0.124549 0.050853 0)
(-0.132261 0.0507764 0)
(-0.13988 0.050277 0)
(-0.147352 0.0493303 0)
(-0.154624 0.047918 0)
(-0.16164 0.0460277 0)
(-0.168348 0.0436533 0)
(-0.174695 0.0407957 0)
(-0.18063 0.037462 0)
(-0.186104 0.0336661 0)
(-0.191069 0.0294283 0)
(-0.195482 0.0247752 0)
(-0.199297 0.0197396 0)
(-0.202476 0.0143604 0)
(-0.20498 0.00868212 0)
(-0.206773 0.00275495 0)
(-0.207826 -0.0033657 0)
(-0.208108 -0.00961896 0)
(-0.207596 -0.0159392 0)
(-0.206268 -0.0222564 0)
(-0.204111 -0.0284963 0)
(-0.201114 -0.0345813 0)
(-0.197275 -0.0404309 0)
(-0.192598 -0.0459629 0)
(-0.187096 -0.0510944 0)
(-0.180791 -0.0557435 0)
(-0.173716 -0.0598307 0)
(-0.165917 -0.0632809 0)
(-0.157449 -0.0660261 0)
(-0.148382 -0.0680073 0)
(-0.1388 -0.0691771 0)
(-0.128796 -0.0695023 0)
(-0.118479 -0.0689662 0)
(-0.107965 -0.0675702 0)
(-0.0973783 -0.0653356 0)
(-0.0868493 -0.0623038 0)
(-0.0765092 -0.0585364 0)
(-0.0664869 -0.0541143 0)
(-0.0569052 -0.049135 0)
(-0.0478765 -0.0437107 0)
(-0.0394994 -0.0379641 0)
(-0.0318554 -0.032025 0)
(-0.0250065 -0.0260264 0)
(-0.0189937 -0.0201008 0)
(-0.0138364 -0.0143774 0)
(-0.00953226 -0.00897991 0)
(-0.00605827 -0.00402541 0)
(-0.00337192 0.000375317 0)
(-0.00141291 0.00411672 0)
(-0.000104895 0.00709621 0)
(0.00064296 0.0092112 0)
(0.00093469 0.0103557 0)
(0.000885606 0.010417 0)
(0.000620417 0.00927296 0)
(0.000284827 0.00679028 0)
(5.9877e-05 0.0028183 0)
(-0.000146438 0.00174515 0)
(-0.000965989 0.00542304 0)
(-0.00269277 0.00907917 0)
(-0.00509422 0.0125981 0)
(-0.00804348 0.0159284 0)
(-0.0114668 0.0190582 0)
(-0.0153041 0.0220019 0)
(-0.0195114 0.0247905 0)
(-0.0240603 0.0274616 0)
(-0.0289348 0.0300523 0)
(-0.0341271 0.0325948 0)
(-0.0396348 0.035112 0)
(-0.0454576 0.0376165 0)
(-0.0515948 0.0401096 0)
(-0.0580434 0.0425815 0)
(-0.0647964 0.0450127 0)
(-0.0718419 0.0473748 0)
(-0.0791623 0.0496329 0)
(-0.0867342 0.0517462 0)
(-0.0945288 0.0536708 0)
(-0.102511 0.0553606 0)
(-0.110643 0.056769 0)
(-0.118879 0.0578504 0)
(-0.127174 0.0585614 0)
(-0.135475 0.058862 0)
(-0.143732 0.0587163 0)
(-0.151891 0.0580939 0)
(-0.159896 0.0569699 0)
(-0.167693 0.0553257 0)
(-0.175229 0.0531497 0)
(-0.182448 0.0504367 0)
(-0.1893 0.0471886 0)
(-0.195732 0.0434142 0)
(-0.201694 0.039129 0)
(-0.20714 0.0343553 0)
(-0.212023 0.0291216 0)
(-0.216299 0.0234629 0)
(-0.219926 0.0174206 0)
(-0.222865 0.0110415 0)
(-0.225079 0.00437876 0)
(-0.226533 -0.00250919 0)
(-0.227196 -0.00955819 0)
(-0.22704 -0.0166988 0)
(-0.226039 -0.0238567 0)
(-0.224174 -0.0309526 0)
(-0.221428 -0.0379031 0)
(-0.217792 -0.0446211 0)
(-0.213261 -0.0510167 0)
(-0.207841 -0.0569982 0)
(-0.201545 -0.0624734 0)
(-0.194397 -0.0673518 0)
(-0.186433 -0.0715462 0)
(-0.177701 -0.074975 0)
(-0.168266 -0.0775657 0)
(-0.158204 -0.0792571 0)
(-0.14761 -0.0800024 0)
(-0.13659 -0.0797727 0)
(-0.125265 -0.0785587 0)
(-0.113768 -0.0763738 0)
(-0.102239 -0.0732548 0)
(-0.0908242 -0.0692623 0)
(-0.0796694 -0.0644804 0)
(-0.0689165 -0.0590144 0)
(-0.0586983 -0.0529884 0)
(-0.0491342 -0.0465407 0)
(-0.0403255 -0.0398202 0)
(-0.0323527 -0.0329809 0)
(-0.0252728 -0.026178 0)
(-0.0191184 -0.0195638 0)
(-0.0138973 -0.0132845 0)
(-0.0095933 -0.00747878 0)
(-0.00616783 -0.00227721 0)
(-0.00356191 0.00219666 0)
(-0.00169832 0.00582415 0)
(-0.000483767 0.00848837 0)
(0.000189267 0.0100705 0)
(0.000440192 0.0104463 0)
(0.000398123 0.00948286 0)
(0.000209917 0.00703772 0)
(4.96716e-05 0.00295254 0)
(-0.000168362 0.00227337 0)
(-0.00109736 0.00685209 0)
(-0.00304054 0.011267 0)
(-0.0057265 0.0154225 0)
(-0.00900665 0.0192894 0)