/*--------------------------------*- C++ -*----------------------------------*\
  =========                 |
  \\      /  F ield         | OpenFOAM: The Open Source CFD Toolbox
   \\    /   O peration     | Website:  https://openfoam.org
    \\  /    A nd           | Version:  7
     \\/     M anipulation  |
\*---------------------------------------------------------------------------*/
FoamFile
{
    version     2.0;
    format      ascii;
    class       surfaceScalarField;
    location    "1.075";
    object      phi;
}
// * * * * * * * * * * * * * * * * * * * * * * * * * * * * * * * * * * * * * //

dimensions      [0 3 -1 0 0 0 0];

internalField   nonuniform List<scalar> 
12640
(
2.73745e-10
-2.74027e-10
7.5255e-10
-4.78768e-10
1.13888e-09
-3.86359e-10
1.27741e-09
-1.38501e-10
1.10394e-09
1.73432e-10
6.02904e-10
5.01036e-10
-2.12779e-10
8.15671e-10
-1.31822e-09
1.10547e-09
-2.68315e-09
1.36494e-09
-4.27623e-09
1.59308e-09
-6.06782e-09
1.7916e-09
-8.03131e-09
1.9635e-09
-1.01436e-08
2.11233e-09
-1.23853e-08
2.24173e-09
-1.47403e-08
2.35496e-09
-1.71951e-08
2.45481e-09
-1.97386e-08
2.54349e-09
-2.23611e-08
2.62253e-09
-2.50539e-08
2.69274e-09
-2.78082e-08
2.75429e-09
-3.0615e-08
2.80682e-09
-3.34644e-08
2.84939e-09
-3.6345e-08
2.88065e-09
-3.92439e-08
2.8989e-09
-4.21461e-08
2.9022e-09
-4.50345e-08
2.88841e-09
-4.78898e-08
2.85532e-09
-5.06906e-08
2.80075e-09
-5.34132e-08
2.72258e-09
-5.6032e-08
2.61885e-09
-5.85199e-08
2.48787e-09
-6.08481e-08
2.32824e-09
-6.29871e-08
2.13896e-09
-6.49066e-08
1.91947e-09
-6.65763e-08
1.66975e-09
-6.79666e-08
1.39032e-09
-6.9049e-08
1.08233e-09
-6.97966e-08
7.47618e-10
-7.01853e-08
3.88673e-10
-7.0194e-08
8.7593e-12
-6.98057e-08
-3.88388e-10
-6.90076e-08
-7.9806e-10
-6.77925e-08
-1.21514e-09
-6.61586e-08
-1.6339e-09
-6.41104e-08
-2.04817e-09
-6.16589e-08
-2.45143e-09
-5.8822e-08
-2.83694e-09
-5.56241e-08
-3.19793e-09
-5.20964e-08
-3.52771e-09
-4.82765e-08
-3.81988e-09
-4.42079e-08
-4.06854e-09
-3.99395e-08
-4.2684e-09
-3.55245e-08
-4.41499e-09
-3.10198e-08
-4.50477e-09
-2.64844e-08
-4.53532e-09
-2.1979e-08
-4.50538e-09
-1.75641e-08
-4.41495e-09
-1.32989e-08
-4.26525e-09
-9.24009e-09
-4.05878e-09
-5.44086e-09
-3.79923e-09
-1.94949e-09
-3.49136e-09
1.19145e-09
-3.14094e-09
3.946e-09
-2.75455e-09
6.2854e-09
-2.3394e-09
8.18868e-09
-1.90329e-09
9.64302e-09
-1.45436e-09
1.0644e-08
-1.00102e-09
1.11959e-08
-5.51922e-10
1.13119e-08
-1.15985e-10
1.10144e-08
2.9751e-10
1.03358e-08
6.78617e-10
9.31947e-09
1.01628e-09
8.0218e-09
1.29767e-09
6.51463e-09
1.50717e-09
4.88958e-09
1.62504e-09
3.26335e-09
1.62622e-09
1.7832e-09
1.48014e-09
6.31685e-10
1.15151e-09
1.6386e-11
6.15298e-10
1.63858e-11
4.8301e-10
-7.56994e-10
1.10415e-09
-1.09993e-09
1.39497e-09
-6.77159e-10
1.08113e-09
1.75348e-10
1.95032e-11
1.23513e-09
-1.83809e-09
2.35863e-09
-4.48593e-09
3.46352e-09
-7.88007e-09
4.49961e-09
-1.19586e-08
5.44342e-09
-1.66524e-08
6.28697e-09
-2.18925e-08
7.03174e-09
-2.76138e-08
7.68478e-09
-3.37574e-08
8.25589e-09
-4.02713e-08
8.75566e-09
-4.71105e-08
9.19416e-09
-5.4236e-08
9.58022e-09
-6.16133e-08
9.9208e-09
-6.92114e-08
1.02207e-08
-7.70012e-08
1.04825e-08
-8.49535e-08
1.07066e-08
-9.30383e-08
1.08916e-08
-1.01223e-07
1.10341e-08
-1.09472e-07
1.11293e-08
-1.17744e-07
1.11712e-08
-1.25995e-07
1.11529e-08
-1.34173e-07
1.10671e-08
-1.42224e-07
1.09061e-08
-1.50086e-07
1.06623e-08
-1.57692e-07
1.03287e-08
-1.64972e-07
9.89861e-09
-1.7185e-07
9.36656e-09
-1.7825e-07
8.72818e-09
-1.84092e-07
7.9806e-09
-1.89295e-07
7.12263e-09
-1.9378e-07
6.15497e-09
-1.9747e-07
5.08042e-09
-2.00292e-07
3.90403e-09
-2.02178e-07
2.63317e-09
-2.03067e-07
1.27766e-09
-2.02908e-07
-1.50183e-10
-2.0166e-07
-1.63597e-09
-1.99295e-07
-3.16261e-09
-1.95799e-07
-4.71123e-09
-1.91172e-07
-6.26108e-09
-1.8543e-07
-7.78992e-09
-1.78607e-07
-9.27447e-09
-1.70754e-07
-1.06908e-08
-1.61937e-07
-1.20149e-08
-1.52241e-07
-1.32234e-08
-1.41767e-07
-1.42938e-08
-1.3063e-07
-1.52055e-08
-1.18958e-07
-1.59399e-08
-1.06892e-07
-1.64816e-08
-9.45784e-08
-1.68181e-08
-8.21726e-08
-1.69411e-08
-6.98318e-08
-1.68461e-08
-5.77138e-08
-1.6533e-08
-4.59732e-08
-1.60059e-08
-3.47585e-08
-1.52735e-08
-2.42092e-08
-1.43485e-08
-1.44529e-08
-1.32476e-08
-5.60285e-09
-1.1991e-08
2.24455e-09
-1.0602e-08
9.01139e-09
-9.10624e-09
1.46399e-08
-7.53176e-09
1.90936e-08
-5.9081e-09
2.23587e-08
-4.26614e-09
2.44447e-08
-2.63792e-09
2.53854e-08
-1.05668e-09
2.52402e-08
4.42749e-10
2.40955e-08
1.82336e-09
2.20671e-08
3.04462e-09
1.93038e-08
4.06105e-09
1.59907e-08
4.82028e-09
1.23547e-08
5.26102e-09
8.66823e-09
5.31267e-09
5.24906e-09
4.89931e-09
2.44863e-09
3.95193e-09
6.12078e-10
2.45185e-09
6.28453e-10
3.97942e-10
-1.15496e-09
6.86058e-10
-1.38801e-09
3.46828e-10
-3.37991e-10
-9.27888e-10
1.45008e-09
-3.30774e-09
3.61496e-09
-6.85978e-09
5.91071e-09
-1.1576e-08
8.17971e-09
-1.74035e-08
1.03272e-08
-2.42626e-08
1.23025e-08
-3.20605e-08
1.40849e-08
-4.07014e-08
1.56726e-08
-5.00925e-08
1.70759e-08
-6.01474e-08
1.83109e-08
-7.07882e-08
1.93964e-08
-8.19449e-08
2.03509e-08
-9.35552e-08
2.11905e-08
-1.05563e-07
2.19282e-08
-1.17915e-07
2.25727e-08
-1.30561e-07
2.31287e-08
-1.43451e-07
2.35966e-08
-1.56532e-07
2.39726e-08
-1.69748e-07
2.42499e-08
-1.83037e-07
2.44184e-08
-1.96331e-07
2.44656e-08
-2.09556e-07
2.43776e-08
-2.22628e-07
2.41394e-08
-2.35457e-07
2.37353e-08
-2.47946e-07
2.31505e-08
-2.59987e-07
2.23706e-08
-2.71472e-07
2.1383e-08
-2.82282e-07
2.01771e-08
-2.92299e-07
1.87449e-08
-3.014e-07
1.70818e-08
-3.09464e-07
1.51864e-08
-3.16371e-07
1.30618e-08
-3.22005e-07
1.0715e-08
-3.26259e-07
8.15799e-09
-3.29034e-07
5.40742e-09
-3.30241e-07
2.48493e-09
-3.29808e-07
-5.82906e-10
-3.27679e-07
-3.76495e-09
-3.23817e-07
-7.02529e-09
-3.18204e-07
-1.03241e-08
-3.10847e-07
-1.36182e-08
-3.01775e-07
-1.68612e-08
-2.91045e-07
-2.00052e-08
-2.78734e-07
-2.3001e-08
-2.6495e-07
-2.57994e-08
-2.49821e-07
-2.83525e-08
-2.335e-07
-3.06147e-08
-2.16161e-07
-3.25438e-08
-1.97999e-07
-3.41024e-08
-1.79222e-07
-3.52587e-08
-1.60052e-07
-3.59877e-08
-1.40722e-07
-3.6272e-08
-1.21465e-07
-3.61025e-08
-1.0252e-07
-3.54785e-08
-8.41173e-08
-3.44083e-08
-6.64816e-08
-3.29092e-08
-4.98233e-08
-3.10068e-08
-3.43362e-08
-2.87347e-08
-2.0193e-08
-2.61342e-08
-7.54228e-09
-2.32527e-08
3.49489e-09
-2.01434e-08
1.28274e-08
-1.68642e-08
2.03961e-08
-1.34768e-08
2.61759e-08
-1.0046e-08
3.01772e-08
-6.63933e-09
3.24479e-08
-3.32731e-09
3.30743e-08
-1.8365e-10
3.21837e-08
2.71389e-09
2.99471e-08
5.28126e-09
2.65815e-08
7.4267e-09
2.23535e-08
9.04822e-09
1.75823e-08
1.00322e-08
1.26398e-08
1.02552e-08
7.94685e-09
9.59228e-09
3.96004e-09
7.93875e-09
1.14902e-09
5.26286e-09
1.77747e-09
1.43495e-10
-1.29845e-09
-2.11502e-10
-1.033e-09
-1.54809e-09
9.98625e-10
-4.15914e-09
4.06111e-09
-8.20389e-09
7.65971e-09
-1.37409e-08
1.14477e-08
-2.07549e-08
1.51937e-08
-2.91815e-08
1.87539e-08
-3.89264e-08
2.20474e-08
-4.98794e-08
2.50378e-08
-6.19252e-08
2.77184e-08
-7.49504e-08
3.0101e-08
-8.88477e-08
3.22082e-08
-1.03518e-07
3.40668e-08
-1.18871e-07
3.57037e-08
-1.34823e-07
3.7143e-08
-1.51299e-07
3.84035e-08
-1.68224e-07
3.94981e-08
-1.85528e-07
4.0433e-08
-2.03139e-07
4.12076e-08
-2.20982e-07
4.18154e-08
-2.38976e-07
4.22441e-08
-2.57035e-07
4.24769e-08
-2.75063e-07
4.24934e-08
-2.92956e-07
4.22705e-08
-3.106e-07
4.17837e-08
-3.27873e-07
4.1008e-08
-3.44641e-07
3.99193e-08
-3.60766e-07
3.84951e-08
-3.76099e-07
3.67158e-08
-3.90487e-07
3.45652e-08
-4.03774e-07
3.2032e-08
-4.15802e-07
2.911e-08
-4.26415e-07
2.57993e-08
-4.3546e-07
2.21067e-08
-4.42791e-07
1.80461e-08
-4.48272e-07
1.36392e-08
-4.5178e-07
8.91568e-09
-4.53209e-07
3.91304e-09
-4.52468e-07
-1.32321e-09
-4.49493e-07
-6.74011e-09
-4.44241e-07
-1.22774e-08
-4.36697e-07
-1.78685e-08
-4.26873e-07
-2.34416e-08
-4.14814e-07
-2.89203e-08
-4.00594e-07
-3.42255e-08
-3.84318e-07
-3.92765e-08
-3.66125e-07
-4.3993e-08
-3.46181e-07
-4.82968e-08
-3.24682e-07
-5.21134e-08
-3.01852e-07
-5.53742e-08
-2.77936e-07
-5.80181e-08
-2.53201e-07
-5.99935e-08
-2.27929e-07
-6.12594e-08
-2.02414e-07
-6.1787e-08
-1.76956e-07
-6.1561e-08
-1.51854e-07
-6.05799e-08
-1.27407e-07
-5.88563e-08
-1.03898e-07
-5.64175e-08
-8.16004e-08
-5.33046e-08
-6.07632e-08
-4.9572e-08
-4.1611e-08
-4.52864e-08
-2.43383e-08
-4.05254e-08
-9.10535e-09
-3.53763e-08
3.96503e-09
-2.99346e-08
1.47908e-08
-2.43026e-08
2.33331e-08
-1.85882e-08
2.95985e-08
-1.29048e-08
3.36414e-08
-7.37013e-09
3.55652e-08
-2.10747e-09
3.55253e-08
2.75375e-09
3.37306e-08
7.07601e-09
3.04456e-08
1.07117e-08
2.59927e-08
1.35012e-08
2.07526e-08
1.52723e-08
1.51641e-08
1.58437e-08
9.72041e-09
1.50359e-08
4.96483e-09
1.26943e-08
1.49111e-09
8.73658e-09
3.26858e-09
-1.99724e-10
-1.09876e-09
-1.40155e-09
1.68881e-10
-3.9983e-09
3.59537e-09
-8.2273e-09
8.29012e-09
-1.42101e-08
1.36425e-08
-2.19784e-08
1.9216e-08
-3.14972e-08
2.47125e-08
-4.26852e-08
2.99419e-08
-5.54325e-08
3.47946e-08
-6.96132e-08
3.92186e-08
-8.50962e-08
4.32015e-08
-1.01752e-07
4.67568e-08
-1.19457e-07
4.99127e-08
-1.38094e-07
5.2704e-08
-1.57556e-07
5.51657e-08
-1.77742e-07
5.73294e-08
-1.98558e-07
5.92193e-08
-2.19912e-07
6.08518e-08
-2.41712e-07
6.22335e-08
-2.63867e-07
6.33623e-08
-2.86279e-07
6.42272e-08
-3.08844e-07
6.48093e-08
-3.31451e-07
6.50838e-08
-3.53978e-07
6.50204e-08
-3.76293e-07
6.45855e-08
-3.98253e-07
6.37439e-08
-4.19705e-07
6.246e-08
-4.40485e-07
6.06995e-08
-4.60421e-07
5.84311e-08
-4.79333e-07
5.56276e-08
-4.97036e-07
5.22679e-08
-5.13341e-07
4.83373e-08
-5.28061e-07
4.38296e-08
-5.41009e-07
3.87475e-08
-5.52006e-07
3.31035e-08
-5.6088e-07
2.69208e-08
-5.67475e-07
2.0234e-08
-5.71648e-07
1.30887e-08
-5.73277e-07
5.54202e-09
-5.72263e-07
-2.3375e-09
-5.68532e-07
-1.04708e-08
-5.62041e-07
-1.87689e-08
-5.52776e-07
-2.71337e-08
-5.40757e-07
-3.54598e-08
-5.26042e-07
-4.36361e-08
-5.0872e-07
-5.15474e-08
-4.88919e-07
-5.90769e-08
-4.66804e-07
-6.61082e-08
-4.42573e-07
-7.25282e-08
-4.16456e-07
-7.82295e-08
-3.88718e-07
-8.31129e-08
-3.59646e-07
-8.70902e-08
-3.29553e-07
-9.00863e-08
-2.9877e-07
-9.20416e-08
-2.67644e-07
-9.29139e-08
-2.36525e-07
-9.26798e-08
-2.05769e-07
-9.13358e-08
-1.75726e-07
-8.88991e-08
-1.46736e-07
-8.54075e-08
-1.19122e-07
-8.09189e-08
-9.31827e-08
-7.5511e-08
-6.919e-08
-6.92791e-08
-4.73801e-08
-6.23353e-08
-2.79505e-08
-5.48059e-08
-1.1055e-08
-4.68301e-08
3.19996e-09
-3.85575e-08
1.47587e-08
-3.0147e-08
2.3619e-08
-2.17651e-08
2.98345e-08
-1.35856e-08
3.35169e-08
-5.78985e-09
3.48376e-08
1.43299e-09
3.40298e-08
7.8839e-09
3.1389e-08
1.33525e-08
2.72747e-08
1.76155e-08
2.211e-08
2.0437e-08
1.63815e-08
2.15722e-08
1.06395e-08
2.07779e-08
5.50175e-09
1.78321e-08
1.66969e-09
1.25686e-08
4.93829e-09
-5.89599e-10
-5.0916e-10
-2.76851e-09
2.34777e-09
-6.80832e-09
7.63521e-09
-1.28636e-08
1.43455e-08
-2.0997e-08
2.17759e-08
-3.11976e-08
2.94165e-08
-4.33988e-08
3.69138e-08
-5.74959e-08
4.4039e-08
-7.33595e-08
5.06582e-08
-9.08477e-08
5.67068e-08
-1.09815e-07
6.21683e-08
-1.30116e-07
6.70586e-08
-1.51615e-07
7.14116e-08
-1.74181e-07
7.52699e-08
-1.97692e-07
7.86764e-08
-2.22031e-07
8.1669e-08
-2.47089e-07
8.42771e-08
-2.72756e-07
8.6519e-08
-2.98924e-07
8.84012e-08
-3.2548e-07
8.99182e-08
-3.52306e-07
9.10533e-08
-3.79277e-07
9.17799e-08
-4.06256e-07
9.20633e-08
-4.33098e-07
9.18622e-08
-4.59644e-07
9.11315e-08
-4.85724e-07
8.98239e-08
-5.11156e-07
8.78922e-08
-5.35748e-07
8.52918e-08
-5.59299e-07
8.1982e-08
-5.816e-07
7.79286e-08
-6.02438e-07
7.31052e-08
-6.21596e-07
6.74954e-08
-6.3886e-07
6.10937e-08
-6.54019e-07
5.3907e-08
-6.66872e-07
4.59557e-08
-6.77225e-07
3.72747e-08
-6.84905e-07
2.79135e-08
-6.89753e-07
1.7937e-08
-6.91636e-07
7.42508e-09
-6.90446e-07
-3.52761e-09
-6.86105e-07
-1.48125e-08
-6.78566e-07
-2.63078e-08
-6.67819e-07
-3.78807e-08
-6.5389e-07
-4.93886e-08
-6.36845e-07
-6.06813e-08
-6.16788e-07
-7.16042e-08
-5.93865e-07
-8.20002e-08
-5.68259e-07
-9.17135e-08
-5.40195e-07
-1.00592e-07
-5.09932e-07
-1.08493e-07
-4.77763e-07
-1.15282e-07
-4.44013e-07
-1.2084e-07
-4.09032e-07
-1.25067e-07
-3.73192e-07
-1.27881e-07
-3.36881e-07
-1.29225e-07
-3.00497e-07
-1.29064e-07
-2.64439e-07
-1.27393e-07
-2.29107e-07
-1.24231e-07
-1.94887e-07
-1.19628e-07
-1.62148e-07
-1.13658e-07
-1.31237e-07
-1.06423e-07
-1.02466e-07
-9.80494e-08
-7.61143e-08
-8.86872e-08
-5.24146e-08
-7.85056e-08
-3.1553e-08
-6.76917e-08
-1.36625e-08
-5.64481e-08
1.18074e-09
-4.49903e-08
1.29606e-08
-3.3545e-08
2.17236e-08
-2.23487e-08
2.75813e-08
-1.16476e-08
3.07119e-08
-1.6976e-09
3.13614e-08
7.23442e-09
2.98444e-08
1.48694e-08
2.65447e-08
2.09152e-08
2.19152e-08
2.50665e-08
1.64788e-08
2.70086e-08
1.08316e-08
2.64251e-08
5.65217e-09
2.30115e-08
1.72399e-09
1.64968e-08
6.66228e-09
-1.00461e-09
4.95447e-10
-4.24266e-09
5.58584e-09
-9.85035e-09
1.32429e-08
-1.7883e-08
2.23781e-08
-2.83285e-08
3.22214e-08
-4.11202e-08
4.22083e-08
-5.61505e-08
5.19441e-08
-7.32835e-08
6.1172e-08
-9.23664e-08
6.97412e-08
-1.13239e-07
7.75793e-08
-1.3574e-07
8.46693e-08
-1.59712e-07
9.1031e-08
-1.85006e-07
9.67055e-08
-2.11479e-07
1.01743e-07
-2.38997e-07
1.06194e-07
-2.67431e-07
1.10103e-07
-2.96655e-07
1.13502e-07
-3.26547e-07
1.16411e-07
-3.56981e-07
1.18835e-07
-3.87826e-07
1.20764e-07
-4.18946e-07
1.22173e-07
-4.50193e-07
1.23027e-07
-4.81411e-07
1.23281e-07
-5.12428e-07
1.2288e-07
-5.43064e-07
1.21767e-07
-5.73121e-07
1.19881e-07
-6.02393e-07
1.17164e-07
-6.30662e-07
1.1356e-07
-6.577e-07
1.0902e-07
-6.83272e-07
1.03501e-07
-7.0714e-07
9.69733e-08
-7.29064e-07
8.94196e-08
-7.48806e-07
8.08363e-08
-7.66136e-07
7.12362e-08
-7.80829e-07
6.06493e-08
-7.92679e-07
4.9124e-08
-8.01492e-07
3.67273e-08
-8.07101e-07
2.35455e-08
-8.09359e-07
9.6837e-09
-8.08152e-07
-4.73456e-09
-8.03396e-07
-1.95685e-08
-7.95043e-07
-3.46611e-08
-7.83082e-07
-4.98415e-08
-7.67544e-07
-6.49272e-08
-7.48499e-07
-7.97263e-08
-7.26062e-07
-9.40414e-08
-7.00389e-07
-1.07672e-07
-6.71682e-07
-1.20421e-07
-6.40182e-07
-1.32093e-07
-6.06169e-07
-1.42505e-07
-5.69963e-07
-1.51488e-07
-5.31916e-07
-1.58888e-07
-4.92409e-07
-1.64574e-07
-4.51848e-07
-1.68442e-07
-4.10658e-07
-1.70415e-07
-3.69275e-07
-1.70447e-07
-3.28143e-07
-1.68526e-07
-2.877e-07
-1.64674e-07
-2.48379e-07
-1.58949e-07
-2.10593e-07
-1.51444e-07
-1.74731e-07
-1.42285e-07
-1.4115e-07
-1.3163e-07
-1.10168e-07
-1.1967e-07
-8.20554e-08
-1.06618e-07
-5.70329e-08
-9.27142e-08
-3.52628e-08
-7.82182e-08
-1.68459e-08
-6.34072e-08
-1.81732e-09
-4.85735e-08
9.85634e-09
-3.40223e-08
1.82795e-08
-2.00707e-08
2.3629e-08
-7.04712e-09
2.61554e-08
4.70795e-09
2.61835e-08
1.48414e-08
2.41122e-08
2.29864e-08
2.04155e-08
2.87632e-08
1.56439e-08
3.17802e-08
1.04296e-08
3.16393e-08
5.49747e-09
2.79436e-08
1.68648e-09
2.03078e-08
8.34875e-09
-1.43332e-09
1.92878e-09
-5.78176e-09
9.93428e-09
-1.30417e-08
2.05028e-08
-2.31589e-08
3.24953e-08
-3.60359e-08
4.50985e-08
-5.15407e-08
5.77131e-08
-6.95159e-08
6.99193e-08
-8.97884e-08
8.14445e-08
-1.12178e-07
9.21304e-08
-1.36502e-07
1.01904e-07
-1.62584e-07
1.10751e-07
-1.90253e-07
1.187e-07
-2.19348e-07
1.25801e-07
-2.49717e-07
1.32111e-07
-2.81212e-07
1.3769e-07
-3.13696e-07
1.42586e-07
-3.47031e-07
1.46836e-07
-3.81079e-07
1.50459e-07
-4.15701e-07
1.53457e-07
-4.50751e-07
1.55813e-07
-4.86073e-07
1.57495e-07
-5.21502e-07
1.58456e-07
-5.56859e-07
1.58638e-07
-5.91955e-07
1.57975e-07
-6.26582e-07
1.56394e-07
-6.60524e-07
1.53823e-07
-6.93549e-07
1.5019e-07
-7.25416e-07
1.45427e-07
-7.55873e-07
1.39477e-07
-7.84664e-07
1.32291e-07
-8.11527e-07
1.23836e-07
-8.36201e-07
1.14094e-07
-8.5843e-07
1.03065e-07
-8.77961e-07
9.07678e-08
-8.94557e-07
7.72446e-08
-9.07991e-07
6.25585e-08
-9.1806e-07
4.6796e-08
-9.24581e-07
3.00665e-08
-9.27399e-07
1.25021e-08
-9.26391e-07
-5.74293e-09
-9.21466e-07
-2.44935e-08
-9.12571e-07
-4.35555e-08
-8.99695e-07
-6.27181e-08
-8.82866e-07
-8.17564e-08
-8.62157e-07
-1.00435e-07
-8.37688e-07
-1.1851e-07
-8.09623e-07
-1.35738e-07
-7.7817e-07
-1.51873e-07
-7.43585e-07
-1.66678e-07
-7.06164e-07
-1.79926e-07
-6.66246e-07
-1.91407e-07
-6.24203e-07
-2.0093e-07
-5.80444e-07
-2.08333e-07
-5.35403e-07
-2.13483e-07
-4.89538e-07
-2.1628e-07
-4.43321e-07
-2.16664e-07
-3.97232e-07
-2.14615e-07
-3.51752e-07
-2.10154e-07
-3.07354e-07
-2.03346e-07
-2.64497e-07
-1.94301e-07
-2.23612e-07
-1.83169e-07
-1.85101e-07
-1.70142e-07
-1.49323e-07
-1.55448e-07
-1.16589e-07
-1.39351e-07
-8.71573e-08
-1.22146e-07
-6.12233e-08
-1.04152e-07
-3.89168e-08
-8.57137e-08
-2.02972e-08
-6.71931e-08
-5.34985e-09
-4.89697e-08
6.01629e-09
-3.14368e-08
1.39704e-08
-1.50012e-08
1.87608e-08
-8.24205e-11
2.07152e-08
1.28869e-08
2.02415e-08
2.34602e-08
1.78278e-08
3.11769e-08
1.40451e-08
3.55629e-08
9.55272e-09
3.61317e-08
5.10766e-09
3.23887e-08
1.58248e-09
2.3833e-08
9.93123e-09
-1.8696e-09
3.7984e-09
-7.36025e-09
1.54249e-08
-1.6328e-08
2.94706e-08
-2.86038e-08
4.47711e-08
-4.39977e-08
6.04924e-08
-6.2305e-08
7.60204e-08
-8.33123e-08
9.09266e-08
-1.06804e-07
1.04936e-07
-1.32567e-07
1.17894e-07
-1.60397e-07
1.29734e-07
-1.90099e-07
1.40453e-07
-2.21487e-07
1.50089e-07
-2.54391e-07
1.58704e-07
-2.88646e-07
1.66366e-07
-3.24099e-07
1.73142e-07
-3.60599e-07
1.79087e-07
-3.98001e-07
1.84238e-07
-4.36154e-07
1.88613e-07
-4.74907e-07
1.92209e-07
-5.14097e-07
1.95004e-07
-5.53556e-07
1.96953e-07
-5.93099e-07
1.98e-07
-6.32531e-07
1.9807e-07
-6.71641e-07
1.97085e-07
-7.10203e-07
1.94957e-07
-7.4798e-07
1.91599e-07
-7.84718e-07
1.86928e-07
-8.20155e-07
1.80864e-07
-8.5402e-07
1.73342e-07
-8.86034e-07
1.64306e-07
-9.15918e-07
1.5372e-07
-9.43392e-07
1.41567e-07
-9.68178e-07
1.27852e-07
-9.90011e-07
1.12601e-07
-1.00863e-06
9.58682e-08
-1.02381e-06
7.77338e-08
-1.03532e-06
5.83041e-08
-1.04296e-06
3.7713e-08
-1.04658e-06
1.61209e-08
-1.04604e-06
-6.28596e-09
-1.04124e-06
-2.92973e-08
-1.03211e-06
-5.26804e-08
-1.01865e-06
-7.61831e-08
-1.00087e-06
-9.95366e-08
-9.78842e-07
-1.2246e-07
-9.5269e-07
-1.44663e-07
-9.22576e-07
-1.65852e-07
-8.88714e-07
-1.85735e-07
-8.51364e-07
-2.04027e-07
-8.10835e-07
-2.20456e-07
-7.67476e-07
-2.34765e-07
-7.2168e-07
-2.46727e-07
-6.73874e-07
-2.56139e-07
-6.24519e-07
-2.62838e-07
-5.74101e-07
-2.66698e-07
-5.23126e-07
-2.6764e-07
-4.72111e-07
-2.6563e-07
-4.21576e-07
-2.60688e-07
-3.72038e-07
-2.52884e-07
-3.23999e-07
-2.4234e-07
-2.77936e-07
-2.29231e-07
-2.34298e-07
-2.1378e-07
-1.93489e-07
-1.96257e-07
-1.55864e-07
-1.76976e-07
-1.21723e-07
-1.56287e-07
-9.12985e-08
-1.34576e-07
-6.47555e-08
-1.12257e-07
-4.21825e-08
-8.97661e-08
-2.35892e-08
-6.75629e-08
-8.90375e-09
-4.61223e-08
2.02975e-09
-2.59347e-08
9.45169e-09
-7.50437e-09
1.36877e-08
8.65089e-09
1.51488e-08
2.19991e-08
1.4332e-08
3.19936e-08
1.18228e-08
3.80721e-08
8.29877e-09
3.96557e-08
4.53803e-09
3.61494e-08
1.43055e-09
2.69405e-08
1.13618e-08
-2.30992e-09
6.1083e-09
-8.96177e-09
2.20768e-08
-1.96723e-08
4.01811e-08
-3.41549e-08
5.92537e-08
-5.21231e-08
7.84605e-08
-7.32943e-08
9.71916e-08
-9.73945e-08
1.15027e-07
-1.24161e-07
1.31703e-07
-1.53348e-07
1.4708e-07
-1.84722e-07
1.61108e-07
-2.18069e-07
1.738e-07
-2.53192e-07
1.85212e-07
-2.89906e-07
1.95418e-07
-3.28041e-07
2.04501e-07
-3.67432e-07
2.12534e-07
-4.07923e-07
2.19578e-07
-4.49357e-07
2.25672e-07
-4.91575e-07
2.30832e-07
-5.34415e-07
2.35049e-07
-5.77702e-07
2.38291e-07
-6.21252e-07
2.40503e-07
-6.64867e-07
2.41615e-07
-7.08334e-07
2.41538e-07
-7.51427e-07
2.40177e-07
-7.93901e-07
2.37431e-07
-8.35499e-07
2.33198e-07
-8.75952e-07
2.2738e-07
-9.14977e-07
2.19889e-07
-9.52285e-07
2.10649e-07
-9.87579e-07
1.996e-07
-1.02056e-06
1.86704e-07
-1.05094e-06
1.71943e-07
-1.07841e-06
1.55326e-07
-1.1027e-06
1.36892e-07
-1.12354e-06
1.16705e-07
-1.14067e-06
9.48622e-08
-1.15386e-06
7.14916e-08
-1.16289e-06
4.67514e-08
-1.1676e-06
2.08309e-08
-1.16784e-06
-6.05129e-09
-1.16349e-06
-3.36491e-08
-1.15448e-06
-6.16904e-08
-1.14078e-06
-8.98809e-08
-1.12241e-06
-1.17907e-07
-1.09943e-06
-1.45441e-07
-1.07195e-06
-1.72144e-07
-1.04013e-06
-1.97672e-07
-1.00418e-06
-2.21683e-07
-9.64366e-07
-2.4384e-07
-9.20999e-07
-2.63823e-07
-8.74437e-07
-2.81328e-07
-8.25084e-07
-2.96079e-07
-7.73387e-07
-3.07837e-07
-7.19826e-07
-3.16398e-07
-6.64916e-07
-3.21608e-07
-6.09194e-07
-3.23362e-07
-5.53212e-07
-3.21611e-07
-4.97534e-07
-3.16367e-07
-4.42718e-07
-3.077e-07
-3.89314e-07
-2.95745e-07
-3.37849e-07
-2.80696e-07
-2.8882e-07
-2.62809e-07
-2.42681e-07
-2.42396e-07
-1.99839e-07
-2.19819e-07
-1.60637e-07
-1.95489e-07
-1.25354e-07
-1.69859e-07
-9.41936e-08
-1.43417e-07
-6.72798e-08
-1.1668e-07
-4.46525e-08
-9.01902e-08
-2.6264e-08
-6.45108e-08
-1.19774e-08
-4.02213e-08
-1.56499e-09
-1.79168e-08
5.29194e-09
1.79395e-09
9.0032e-09
1.82878e-08
1.00702e-08
3.09267e-08
9.08696e-09
3.90553e-08
6.74351e-09
4.19992e-08
3.83008e-09
3.90628e-08
1.24382e-09
2.95267e-08
1.26056e-08
-2.75202e-09
8.86034e-09
-1.0575e-08
2.98998e-08
-2.30478e-08
5.26539e-08
-3.97651e-08
7.5971e-08
-6.03413e-08
9.90368e-08
-8.44134e-08
1.21264e-07
-1.11643e-07
1.42257e-07
-1.41719e-07
1.61779e-07
-1.74356e-07
1.79717e-07
-2.09296e-07
1.96047e-07
-2.46303e-07
2.10807e-07
-2.85164e-07
2.24073e-07
-3.25686e-07
2.3594e-07
-3.67687e-07
2.46502e-07
-4.10998e-07
2.55845e-07
-4.55454e-07
2.64034e-07
-5.00892e-07
2.71109e-07
-5.47145e-07
2.77084e-07
-5.94039e-07
2.81943e-07
-6.4139e-07
2.85642e-07
-6.89003e-07
2.88117e-07
-7.36667e-07
2.89278e-07
-7.84154e-07
2.89025e-07
-8.31223e-07
2.87246e-07
-8.77614e-07
2.83822e-07
-9.23054e-07
2.78638e-07
-9.67256e-07
2.71583e-07
-1.00992e-06
2.62557e-07
-1.05075e-06
2.51475e-07
-1.08942e-06
2.38274e-07
-1.12563e-06
2.2291e-07
-1.15906e-06
2.05369e-07
-1.1894e-06
1.85666e-07
-1.21635e-06
1.63846e-07
-1.23963e-06
1.39987e-07
-1.25898e-06
1.14204e-07
-1.27413e-06
8.6645e-08
-1.28487e-06
5.74927e-08
-1.291e-06
2.69649e-08
-1.29237e-06
-4.6874e-09
-1.28883e-06
-3.71824e-08
-1.28032e-06
-7.02088e-08
-1.26677e-06
-1.0343e-07
-1.24819e-06
-1.36486e-07
-1.22463e-06
-1.69003e-07
-1.19618e-06
-2.0059e-07
-1.163e-06
-2.30852e-07
-1.12529e-06
-2.59394e-07
-1.0833e-06
-2.85825e-07
-1.03736e-06
-3.09771e-07
-9.87806e-07
-3.30877e-07
-9.35067e-07
-3.48818e-07
-8.796e-07
-3.63305e-07
-8.21904e-07
-3.74094e-07
-7.62519e-07
-3.80993e-07
-7.02012e-07
-3.83869e-07
-6.40974e-07
-3.82649e-07
-5.80008e-07
-3.77333e-07
-5.19721e-07
-3.67988e-07
-4.60711e-07
-3.54754e-07
-4.0356e-07
-3.37847e-07
-3.48819e-07
-3.1755e-07
-2.96999e-07
-2.94215e-07
-2.4856e-07
-2.68258e-07
-2.03901e-07
-2.40149e-07
-1.63349e-07
-2.10411e-07
-1.27155e-07
-1.79611e-07
-9.54848e-08
-1.4835e-07
-6.84138e-08
-1.17261e-07
-4.5925e-08
-8.69996e-08
-2.7905e-08
-5.82413e-08
-1.41438e-08
-3.1678e-08
-4.33384e-09
-8.01603e-09
1.9295e-09
1.20245e-08
5.14781e-09
2.77084e-08
5.9199e-09
3.82832e-08
4.94285e-09
4.29762e-08
3.01372e-09
4.0992e-08
1.03134e-09
3.15091e-08
1.3637e-08
-3.19416e-09
1.20545e-08
-1.21911e-08
3.88968e-08
-2.6433e-08
6.68958e-08
-4.5396e-08
9.4934e-08
-6.85941e-08
1.22235e-07
-9.55822e-08
1.48252e-07
-1.25956e-07
1.72631e-07
-1.59354e-07
1.95177e-07
-1.9545e-07
2.15814e-07
-2.33959e-07
2.34555e-07
-2.74623e-07
2.51471e-07
-3.17215e-07
2.66666e-07
-3.61531e-07
2.80255e-07
-4.07381e-07
2.92352e-07
-4.54589e-07
3.03053e-07
-5.02985e-07
3.1243e-07
-5.52399e-07
3.20524e-07
-6.02659e-07
3.27343e-07
-6.53582e-07
3.32866e-07
-7.04976e-07
3.37037e-07
-7.56636e-07
3.39776e-07
-8.08339e-07
3.40981e-07
-8.59847e-07
3.40533e-07
-9.10904e-07
3.38303e-07
-9.6124e-07
3.34157e-07
-1.01057e-06
3.27964e-07
-1.05858e-06
3.19599e-07
-1.10498e-06
3.08951e-07
-1.14943e-06
2.95928e-07
-1.19161e-06
2.80458e-07
-1.2312e-06
2.62498e-07
-1.26787e-06
2.42034e-07
-1.30129e-06
2.19085e-07
-1.33115e-06
1.93706e-07
-1.35715e-06
1.65987e-07
-1.379e-06
1.36058e-07
-1.39644e-06
1.04088e-07
-1.40923e-06
7.02833e-08
-1.41716e-06
3.48894e-08
-1.42003e-06
-1.81117e-09
-1.41771e-06
-3.95021e-08
-1.41009e-06
-7.78326e-08
-1.3971e-06
-1.16424e-07
-1.37871e-06
-1.54872e-07
-1.35496e-06
-1.92752e-07
-1.32593e-06
-2.29624e-07
-1.29174e-06
-2.65037e-07
-1.25259e-06
-2.98541e-07
-1.20873e-06
-3.29688e-07
-1.16046e-06
-3.58047e-07
-1.10813e-06
-3.83205e-07
-1.05217e-06
-4.04781e-07
-9.93035e-07
-4.22435e-07
-9.31256e-07
-4.35873e-07
-8.67389e-07
-4.44861e-07
-8.02032e-07
-4.49225e-07
-7.35814e-07
-4.48868e-07
-6.6938e-07
-4.43766e-07
-6.03387e-07
-4.3398e-07
-5.38489e-07
-4.19653e-07
-4.75324e-07
-4.01012e-07
-4.14505e-07
-3.78369e-07
-3.56606e-07
-3.52114e-07
-3.02148e-07
-3.22715e-07
-2.51591e-07
-2.90706e-07
-2.05321e-07
-2.56681e-07
-1.63643e-07
-2.2129e-07
-1.26769e-07
-1.85224e-07
-9.48206e-08
-1.4921e-07
-6.7815e-08
-1.14005e-07
-4.56689e-08
-8.03875e-08
-2.81943e-08
-4.91526e-08
-1.50992e-08
-2.11111e-08
-5.98794e-09
2.91322e-09
-3.61992e-10
2.20824e-08
2.37884e-09
3.55424e-08
2.93564e-09
4.24194e-08
2.10942e-09
4.18182e-08
7.99146e-10
3.28194e-08
1.44361e-08
-3.63467e-09
1.56892e-08
-1.38022e-08
4.90643e-08
-2.98093e-08
8.29029e-08
-5.1014e-08
1.16139e-07
-7.68301e-08
1.48051e-07
-1.0673e-07
1.78151e-07
-1.40242e-07
2.06143e-07
-1.76953e-07
2.31887e-07
-2.16498e-07
2.55359e-07
-2.58561e-07
2.76618e-07
-3.02865e-07
2.95775e-07
-3.49166e-07
3.12968e-07
-3.97251e-07
3.2834e-07
-4.46922e-07
3.42024e-07
-4.97999e-07
3.5413e-07
-5.50305e-07
3.64736e-07
-6.03667e-07
3.73885e-07
-6.57906e-07
3.81582e-07
-7.12835e-07
3.87795e-07
-7.68255e-07
3.92457e-07
-8.23951e-07
3.95473e-07
-8.79694e-07
3.96724e-07
-9.35236e-07
3.96074e-07
-9.90309e-07
3.93376e-07
-1.04463e-06
3.8848e-07
-1.0979e-06
3.81237e-07
-1.14982e-06
3.71511e-07
-1.20004e-06
3.59178e-07
-1.24825e-06
3.44137e-07
-1.2941e-06
3.26311e-07
-1.33726e-06
3.05653e-07
-1.37738e-06
2.8215e-07
-1.41412e-06
2.55826e-07
-1.44715e-06
2.26742e-07
-1.47617e-06
1.95002e-07
-1.50086e-06
1.60748e-07
-1.52094e-06
1.2417e-07
-1.53615e-06
8.54949e-08
-1.54626e-06
4.49953e-08
-1.55105e-06
2.98342e-09
-1.55036e-06
-4.01904e-08
-1.54406e-06
-8.41381e-08
-1.53204e-06
-1.28439e-07
-1.51427e-06
-1.72644e-07
-1.49074e-06
-2.16279e-07
-1.46152e-06
-2.58851e-07
-1.4267e-06
-2.99855e-07
-1.38646e-06
-3.38781e-07
-1.34102e-06
-3.75123e-07
-1.29069e-06
-4.08384e-07
-1.2358e-06
-4.38092e-07
-1.17678e-06
-4.63803e-07
-1.11409e-06
-4.85118e-07
-1.04828e-06
-5.01686e-07
-9.7992e-07
-5.13221e-07
-9.0964e-07
-5.19505e-07
-8.38105e-07
-5.20403e-07
-7.66006e-07
-5.15865e-07
-6.94053e-07
-5.05934e-07
-6.22956e-07
-4.90749e-07
-5.5342e-07
-4.70548e-07
-4.86125e-07
-4.45664e-07
-4.21713e-07
-4.16526e-07
-3.60778e-07
-3.83651e-07
-3.03847e-07
-3.47637e-07
-2.51373e-07
-3.09154e-07
-2.03725e-07
-2.68939e-07
-1.61171e-07
-2.27777e-07
-1.23883e-07
-1.86498e-07
-9.1922e-08
-1.45966e-07
-6.52394e-08
-1.0707e-07
-4.3675e-08
-7.0717e-08
-2.69565e-08
-3.78296e-08
-1.47007e-08
-9.34259e-09
-6.41518e-09
1.37969e-08
-1.50068e-09
3.06279e-08
7.46267e-10
4.01725e-08
1.13007e-09
4.14344e-08
5.50954e-10
3.33985e-08
1.49871e-08
-4.07173e-09
1.97609e-08
-1.54005e-08
6.03931e-08
-3.31589e-08
1.00661e-07
-5.65876e-08
1.39567e-07
-8.5001e-08
1.76464e-07
-1.17789e-07
2.10939e-07
-1.54414e-07
2.42769e-07
-1.94411e-07
2.71883e-07
-2.37374e-07
2.98323e-07
-2.82959e-07
3.22203e-07
-3.30868e-07
3.43683e-07
-3.80843e-07
3.62942e-07
-4.32658e-07
3.80155e-07
-4.86112e-07
3.95478e-07
-5.41019e-07
4.09036e-07
-5.97198e-07
4.20915e-07
-6.54473e-07
4.3116e-07
-7.12661e-07
4.39771e-07
-7.71572e-07
4.46706e-07
-8.31001e-07
4.51886e-07
-8.90728e-07
4.552e-07
-9.50515e-07
4.56511e-07
-1.01011e-06
4.55666e-07
-1.06923e-06
4.52499e-07
-1.12759e-06
4.46841e-07
-1.18488e-06
4.3853e-07
-1.24078e-06
4.27413e-07
-1.29496e-06
4.13355e-07
-1.34707e-06
3.96245e-07
-1.39676e-06
3.76001e-07
-1.44368e-06
3.52572e-07
-1.48747e-06
3.25944e-07
-1.52779e-06
2.96144e-07
-1.56429e-06
2.63239e-07
-1.59663e-06
2.27344e-07
-1.62449e-06
1.88614e-07
-1.64758e-06
1.47254e-07
-1.6656e-06
1.03513e-07
-1.67829e-06
5.76869e-08
-1.68542e-06
1.01164e-08
-1.6868e-06
-3.88161e-08
-1.68225e-06
-8.86867e-08
-1.67165e-06
-1.39034e-07
-1.65493e-06
-1.89365e-07
-1.63205e-06
-2.39156e-07
-1.60305e-06
-2.8786e-07
-1.56798e-06
-3.34916e-07
-1.52701e-06
-3.79753e-07
-1.48034e-06
-4.218e-07
-1.42822e-06
-4.60495e-07
-1.37102e-06
-4.95297e-07
-1.30913e-06
-5.25696e-07
-1.24302e-06
-5.51222e-07
-1.17325e-06
-5.71463e-07
-1.1004e-06
-5.86069e-07
-1.02513e-06
-5.9477e-07
-9.48152e-07
-5.97384e-07
-8.70194e-07
-5.93823e-07
-7.92022e-07
-5.84106e-07
-7.14411e-07
-5.6836e-07
-6.38133e-07
-5.46826e-07
-5.63943e-07
-5.19854e-07
-4.92562e-07
-4.87907e-07
-4.24663e-07
-4.5155e-07
-3.60852e-07
-4.11447e-07
-3.0166e-07
-3.68347e-07
-2.47524e-07
-3.23074e-07
-1.98784e-07
-2.76517e-07
-1.55667e-07
-2.29615e-07
-1.18286e-07
-1.83347e-07
-8.66353e-08
-1.38721e-07
-6.0588e-08
-9.67643e-08
-3.9896e-08
-5.85215e-08
-2.41923e-08
-2.50463e-08
-1.29931e-08
2.59765e-09
-5.70171e-09
2.33365e-08
-1.61283e-09
3.60836e-08
8.22513e-11
3.97393e-08
2.88681e-10
3.31921e-08
1.52757e-08
-4.50337e-09
2.42643e-08
-1.6978e-08
7.28678e-08
-3.64636e-08
1.20147e-07
-6.20854e-08
1.65189e-07
-9.30597e-08
2.07439e-07
-1.28695e-07
2.46574e-07
-1.68389e-07
2.82463e-07
-2.11624e-07
3.15118e-07
-2.57957e-07
3.44656e-07
-3.07013e-07
3.71259e-07
-3.58475e-07
3.95145e-07
-4.1207e-07
4.16537e-07
-4.67564e-07
4.35649e-07
-5.24749e-07
4.52663e-07
-5.83436e-07
4.67722e-07
-6.43441e-07
4.80921e-07
-7.04587e-07
4.92306e-07
-7.66688e-07
5.01872e-07
-8.2955e-07
5.09568e-07
-8.92966e-07
5.15302e-07
-9.56712e-07
5.18945e-07
-1.02054e-06
5.20344e-07
-1.0842e-06
5.19325e-07
-1.14741e-06
5.15703e-07
-1.20986e-06
5.09293e-07
-1.27125e-06
4.99915e-07
-1.33123e-06
4.874e-07
-1.38948e-06
4.71602e-07
-1.44563e-06
4.524e-07
-1.49933e-06
4.29702e-07
-1.55022e-06
4.03456e-07
-1.59792e-06
3.73644e-07
-1.64207e-06
3.40296e-07
-1.68232e-06
3.03483e-07
-1.7183e-06
2.63326e-07
-1.74968e-06
2.19994e-07
-1.77613e-06
1.73703e-07
-1.79734e-06
1.24723e-07
-1.81302e-06
7.33705e-08
-1.82292e-06
2.00107e-08
-1.82679e-06
-3.49432e-08
-1.82444e-06
-9.10335e-08
-1.81572e-06
-1.4776e-07
-1.8005e-06
-2.04586e-07
-1.77871e-06
-2.60938e-07
-1.75036e-06
-3.16218e-07
-1.71547e-06
-3.69805e-07
-1.67415e-06
-4.21065e-07
-1.62659e-06
-4.6936e-07
-1.57303e-06
-5.14058e-07
-1.51378e-06
-5.54544e-07
-1.44925e-06
-5.90232e-07
-1.37989e-06
-6.20578e-07
-1.30626e-06
-6.45095e-07
-1.22897e-06
-6.63363e-07
-1.14869e-06
-6.75048e-07
-1.06616e-06
-6.79908e-07