/*--------------------------------*- C++ -*----------------------------------*\
  =========                 |
  \\      /  F ield         | OpenFOAM: The Open Source CFD Toolbox
   \\    /   O peration     | Website:  https://openfoam.org
    \\  /    A nd           | Version:  7
     \\/     M anipulation  |
\*---------------------------------------------------------------------------*/
FoamFile
{
    version     2.0;
    format      ascii;
    class       volVectorField;
    location    "1.075";
    object      U;
}
// * * * * * * * * * * * * * * * * * * * * * * * * * * * * * * * * * * * * * //

dimensions      [0 1 -1 0 0 0 0];

internalField   nonuniform List<vector> 
6400
(
(1.03842e-05 -1.04852e-05 0)
(4.12382e-05 -1.9244e-05 0)
(7.84325e-05 -1.75634e-05 0)
(0.000101513 -1.07319e-05 0)
(0.000100917 -2.03576e-06 0)
(7.40338e-05 6.92585e-06 0)
(2.11075e-05 1.52836e-05 0)
(-5.61702e-05 2.27586e-05 0)
(-0.000155497 2.92681e-05 0)
(-0.00027434 3.48409e-05 0)
(-0.000410222 3.95715e-05 0)
(-0.000560874 4.35788e-05 0)
(-0.0007243 4.69871e-05 0)
(-0.000898798 4.99151e-05 0)
(-0.00108295 5.24652e-05 0)
(-0.00127559 5.47218e-05 0)
(-0.00147573 5.67512e-05 0)
(-0.00168257 5.85995e-05 0)
(-0.00189537 6.02913e-05 0)
(-0.00211344 6.18331e-05 0)
(-0.00233608 6.32163e-05 0)
(-0.00256255 6.44178e-05 0)
(-0.002792 6.5402e-05 0)
(-0.00302347 6.6124e-05 0)
(-0.00325583 6.65319e-05 0)
(-0.00348781 6.6569e-05 0)
(-0.00371796 6.61761e-05 0)
(-0.00394464 6.52931e-05 0)
(-0.00416604 6.38616e-05 0)
(-0.0043802 6.18265e-05 0)
(-0.004585 5.91378e-05 0)
(-0.00477819 5.57531e-05 0)
(-0.00495744 5.1639e-05 0)
(-0.00512034 4.67729e-05 0)
(-0.00526446 4.11452e-05 0)
(-0.00538739 3.47601e-05 0)
(-0.0054868 2.76374e-05 0)
(-0.00556046 1.98145e-05 0)
(-0.00560632 1.13464e-05 0)
(-0.00562255 2.30717e-06 0)
(-0.00560762 -7.20956e-06 0)
(-0.00556033 -1.70943e-05 0)
(-0.00547987 -2.72184e-05 0)
(-0.00536586 -3.74382e-05 0)
(-0.00521842 -4.75963e-05 0)
(-0.00503815 -5.75245e-05 0)
(-0.00482621 -6.70482e-05 0)
(-0.00458429 -7.59898e-05 0)
(-0.00431462 -8.41733e-05 0)
(-0.00401996 -9.14293e-05 0)
(-0.00370356 -9.76004e-05 0)
(-0.00336914 -0.000102546 0)
(-0.00302079 -0.000106146 0)
(-0.00266293 -0.000108305 0)
(-0.00230022 -0.00010896 0)
(-0.00193748 -0.000108078 0)
(-0.00157957 -0.000105657 0)
(-0.00123129 -0.000101733 0)
(-0.000897313 -9.63714e-05 0)
(-0.000582053 -8.96722e-05 0)
(-0.000289584 -8.1762e-05 0)
(-2.35569e-05 -7.2793e-05 0)
(0.000212871 -6.29371e-05 0)
(0.000417098 -5.23803e-05 0)
(0.000587129 -4.13217e-05 0)
(0.000721604 -2.99658e-05 0)
(0.000819829 -1.85207e-05 0)
(0.00088179 -7.19674e-06 0)
(0.000908178 3.79226e-06 0)
(0.000900405 1.42244e-05 0)
(0.00086065 2.38616e-05 0)
(0.000791924 3.243e-05 0)
(0.00069818 3.95947e-05 0)
(0.000584497 4.4916e-05 0)
(0.000457358 4.77842e-05 0)
(0.000325061 4.73446e-05 0)
(0.000198149 4.24412e-05 0)
(8.97114e-05 3.15847e-05 0)
(1.58741e-05 1.37408e-05 0)
(-5.0825e-06 -5.04896e-06 0)
(1.93865e-05 -4.13889e-05 0)
(6.64762e-05 -6.61452e-05 0)
(0.000108712 -5.05991e-05 0)
(0.000112187 -1.32602e-05 0)
(5.91658e-05 3.38635e-05 0)
(-5.72461e-05 8.36336e-05 0)
(-0.00023809 0.000132021 0)
(-0.000480765 0.000176903 0)
(-0.000780898 0.000217343 0)
(-0.0011331 0.000253111 0)
(-0.00153175 0.000284389 0)
(-0.0019714 0.000311586 0)
(-0.00244706 0.000335212 0)
(-0.00295431 0.000355793 0)
(-0.00348926 0.000373817 0)
(-0.00404857 0.000389703 0)
(-0.00462933 0.000403781 0)
(-0.00522896 0.000416279 0)
(-0.00584506 0.000427324 0)
(-0.00647534 0.000436944 0)
(-0.00711746 0.000445076 0)
(-0.00776894 0.000451581 0)
(-0.00842704 0.000456249 0)
(-0.00908873 0.000458819 0)
(-0.0097506 0.000458992 0)
(-0.0104088 0.000456439 0)
(-0.0110592 0.000450823 0)
(-0.0116969 0.000441807 0)
(-0.012317 0.000429068 0)
(-0.0129138 0.000412309 0)
(-0.0134817 0.000391271 0)
(-0.0140144 0.000365747 0)
(-0.0145056 0.000335588 0)
(-0.0149489 0.000300719 0)
(-0.015338 0.000261143 0)
(-0.0156664 0.000216955 0)
(-0.0159283 0.000168343 0)
(-0.0161178 0.000115601 0)
(-0.0162298 5.91264e-05 0)
(-0.0162599 -5.74729e-07 0)
(-0.0162043 -6.28872e-05 0)
(-0.0160602 -0.000127101 0)
(-0.0158259 -0.000192408 0)
(-0.0155008 -0.000257917 0)
(-0.0150855 -0.00032267 0)
(-0.0145821 -0.000385655 0)
(-0.0139939 -0.00044583 0)
(-0.0133255 -0.000502148 0)
(-0.0125832 -0.000553579 0)
(-0.0117743 -0.000599139 0)
(-0.0109075 -0.000637915 0)
(-0.00999261 -0.000669094 0)
(-0.0090403 -0.00069199 0)
(-0.00806217 -0.00070606 0)
(-0.00707039 -0.00071093 0)
(-0.00607747 -0.000706407 0)
(-0.0050961 -0.000692488 0)
(-0.00413882 -0.000669363 0)
(-0.00321781 -0.000637414 0)
(-0.00234465 -0.000597207 0)
(-0.00153009 -0.000549478 0)
(-0.000783788 -0.000495112 0)
(-0.00011418 -0.000435126 0)
(0.000471723 -0.000370642 0)
(0.000968467 -0.000302865 0)
(0.00137226 -0.000233065 0)
(0.00168108 -0.000162559 0)
(0.00189472 -9.27043e-05 0)
(0.00201491 -2.49047e-05 0)
(0.00204533 3.93726e-05 0)
(0.00199178 9.85579e-05 0)
(0.00186232 0.000150912 0)
(0.00166744 0.000194436 0)
(0.00142044 0.000226743 0)
(0.00113773 0.000244907 0)
(0.000839299 0.000245356 0)
(0.000548686 0.000223985 0)
(0.000292301 0.000176635 0)
(0.000101599 0.000101847 0)
(1.35393e-05 1.57542e-05 0)
(1.8211e-05 -7.94048e-05 0)
(5.16378e-05 -0.000108683 0)
(5.6593e-05 -5.64463e-05 0)
(-2.95036e-06 4.21665e-05 0)
(-0.000146857 0.000163874 0)
(-0.000383641 0.000293272 0)
(-0.000715002 0.00042092 0)
(-0.00113807 0.0005412 0)
(-0.00164723 0.000651269 0)
(-0.00223535 0.000750058 0)
(-0.00289476 0.000837611 0)
(-0.00361779 0.000914633 0)
(-0.00439725 0.000982165 0)
(-0.00522654 0.00104137 0)
(-0.00609974 0.00109335 0)
(-0.0070116 0.00113911 0)
(-0.00795739 0.00117941 0)
(-0.00893279 0.00121479 0)
(-0.00993374 0.00124554 0)
(-0.0109562 0.00127171 0)
(-0.0119961 0.0012931 0)
(-0.0130492 0.00130934 0)
(-0.0141107 0.00131986 0)
(-0.0151755 0.00132397 0)
(-0.0162378 0.00132088 0)
(-0.0172914 0.00130974 0)
(-0.0183293 0.00128966 0)
(-0.0193441 0.00125978 0)
(-0.0203274 0.00121928 0)
(-0.0212707 0.00116742 0)
(-0.0221648 0.00110357 0)
(-0.0230003 0.00102725 0)
(-0.0237674 0.000938141 0)
(-0.0244564 0.000836137 0)
(-0.0250576 0.000721345 0)
(-0.0255614 0.000594121 0)
(-0.025959 0.000455077 0)
(-0.0262419 0.000305102 0)
(-0.0264028 0.000145361 0)
(-0.026435 -2.26996e-05 0)
(-0.0263334 -0.000197359 0)
(-0.0260943 -0.00037664 0)
(-0.0257153 -0.00055833 0)
(-0.0251961 -0.000740009 0)
(-0.0245382 -0.000919093 0)
(-0.0237447 -0.00109288 0)
(-0.0228213 -0.00125859 0)
(-0.0217752 -0.00141346 0)
(-0.0206158 -0.00155477 0)
(-0.0193546 -0.00167994 0)
(-0.0180046 -0.00178657 0)
(-0.0165806 -0.00187255 0)
(-0.0150988 -0.00193607 0)
(-0.0135765 -0.00197572 0)
(-0.0120319 -0.00199052 0)
(-0.0104838 -0.00197995 0)
(-0.00895112 -0.00194399 0)
(-0.00745272 -0.00188312 0)
(-0.00600692 -0.00179834 0)
(-0.00463118 -0.0016911 0)
(-0.00334175 -0.00156333 0)
(-0.00215336 -0.00141736 0)
(-0.00107894 -0.00125588 0)
(-0.000129313 -0.00108188 0)
(0.000686975 -0.000898601 0)
(0.00136388 -0.000709497 0)
(0.00189799 -0.000518173 0)
(0.00228869 -0.000328384 0)
(0.00253829 -0.000144029 0)
(0.00265209 3.08052e-05 0)
(0.00263863 0.000191772 0)
(0.00250976 0.000334157 0)
(0.00228095 0.000452716 0)
(0.00197148 0.000541505 0)
(0.00160477 0.000593727 0)
(0.00120858 0.000601784 0)
(0.000814416 0.000557815 0)
(0.000456411 0.000455139 0)
(0.000176703 0.000292489 0)
(3.12818e-05 8.91866e-05 0)
(1.14914e-05 -0.000103411 0)
(1.28755e-05 -0.000111315 0)
(-4.78001e-05 4.07344e-06 0)
(-0.000201234 0.000191068 0)
(-0.000465362 0.000415091 0)
(-0.000848273 0.000652282 0)
(-0.00135115 0.000887036 0)
(-0.00197037 0.00110978 0)
(-0.00269927 0.00131529 0)
(-0.00352943 0.00150128 0)
(-0.00445164 0.00166744 0)
(-0.00545667 0.00181468 0)
(-0.00653561 0.00194454 0)
(-0.0076802 0.00205886 0)
(-0.00888285 0.00215945 0)
(-0.0101366 0.00224792 0)
(-0.0114352 0.00232555 0)
(-0.0127727 0.00239321 0)
(-0.0141433 0.00245135 0)
(-0.0155414 0.00249997 0)
(-0.0169611 0.00253869 0)
(-0.0183963 0.00256677 0)
(-0.0198402 0.00258317 0)
(-0.0212856 0.00258661 0)
(-0.0227247 0.00257563 0)
(-0.0241485 0.00254868 0)
(-0.0255477 0.00250418 0)
(-0.0269121 0.00244058 0)
(-0.0282307 0.00235644 0)
(-0.029492 0.00225046 0)
(-0.0306839 0.00212159 0)
(-0.031794 0.00196904 0)
(-0.0328097 0.00179237 0)
(-0.0337184 0.00159149 0)
(-0.0345077 0.00136677 0)
(-0.0351655 0.00111899 0)
(-0.0356806 0.000849443 0)
(-0.0360424 0.000559908 0)
(-0.0362418 0.000252674 0)
(-0.0362708 -6.9465e-05 0)
(-0.0361232 -0.00040323 0)
(-0.0357947 -0.000744883 0)
(-0.0352828 -0.00109028 0)
(-0.0345875 -0.0014349 0)
(-0.0337111 -0.00177398 0)
(-0.0326581 -0.00210253 0)
(-0.0314358 -0.00241547 0)
(-0.0300541 -0.00270772 0)
(-0.028525 -0.00297435 0)
(-0.0268631 -0.00321064 0)
(-0.0250853 -0.00341226 0)
(-0.0232104 -0.00357534 0)
(-0.021259 -0.00369662 0)
(-0.019253 -0.00377351 0)
(-0.0172157 -0.00380423 0)
(-0.0151708 -0.00378781 0)
(-0.0131426 -0.00372418 0)
(-0.0111548 -0.00361419 0)
(-0.00923107 -0.00345957 0)
(-0.00739367 -0.00326298 0)
(-0.00566357 -0.00302786 0)
(-0.00405983 -0.00275845 0)
(-0.0025993 -0.00245966 0)
(-0.00129625 -0.00213699 0)
(-0.000162057 -0.00179643 0)
(0.00079502 -0.00144439 0)
(0.0015701 -0.00108763 0)
(0.00216184 -0.000733188 0)
(0.00257265 -0.000388417 0)
(0.00280879 -6.1002e-05 0)
(0.00288059 0.000240945 0)
(0.00280255 0.000508749 0)
(0.00259359 0.000732994 0)
(0.00227713 0.000903357 0)
(0.00188132 0.00100852 0)
(0.0014391 0.00103642 0)
(0.000987362 0.000975057 0)
(0.000565949 0.000814419 0)
(0.000226346 0.000550691 0)
(4.23619e-05 0.000197674 0)
(2.25232e-06 -0.000102471 0)
(-3.93972e-05 -5.22835e-05 0)
(-0.000185209 0.000157074 0)
(-0.000455133 0.000459871 0)
(-0.000862159 0.000811434 0)
(-0.00141227 0.00118014 0)
(-0.00210495 0.00154463 0)
(-0.00293516 0.00189142 0)
(-0.00389494 0.00221282 0)
(-0.00497462 0.00250527 0)
(-0.00616377 0.002768 0)
(-0.00745185 0.003002 0)
(-0.00882865 0.00320932 0)
(-0.0102845 0.00339241 0)
(-0.0118106 0.00355378 0)
(-0.0133985 0.00369564 0)
(-0.0150404 0.00381975 0)
(-0.016729 0.00392727 0)
(-0.018457 0.00401876 0)
(-0.0202171 0.00409412 0)
(-0.0220018 0.00415268 0)
(-0.023803 0.00419322 0)
(-0.0256122 0.00421411 0)
(-0.0274201 0.00421334 0)
(-0.0292166 0.00418868 0)
(-0.0309905 0.00413775 0)
(-0.0327302 0.00405817 0)
(-0.0344228 0.00394759 0)
(-0.036055 0.00380389 0)
(-0.0376125 0.0036252 0)
(-0.0390808 0.00341 0)
(-0.0404449 0.00315725 0)
(-0.0416896 0.00286643 0)
(-0.0428 0.00253762 0)
(-0.0437612 0.00217155 0)
(-0.0445594 0.00176967 0)
(-0.0451811 0.00133416 0)
(-0.0456144 0.000867964 0)
(-0.0458487 0.000374815 0)
(-0.0458749 -0.000140807 0)
(-0.0456863 -0.000673693 0)
(-0.0452779 -0.00121796 0)
(-0.0446476 -0.0017671 0)
(-0.0437955 -0.00231411 0)
(-0.0427246 -0.00285159 0)
(-0.0414409 -0.00337183 0)
(-0.0399531 -0.00386703 0)
(-0.0382729 -0.0043294 0)
(-0.0364148 -0.00475137 0)
(-0.034396 -0.00512574 0)
(-0.0322363 -0.00544587 0)
(-0.0299579 -0.00570586 0)
(-0.027585 -0.0059007 0)
(-0.0251433 -0.00602642 0)
(-0.02266 -0.00608022 0)
(-0.0201632 -0.00606059 0)
(-0.0176812 -0.00596735 0)
(-0.0152424 -0.00580171 0)
(-0.0128746 -0.00556625 0)
(-0.0106042 -0.00526493 0)
(-0.0084564 -0.00490298 0)
(-0.00645408 -0.00448684 0)
(-0.00461765 -0.00402402 0)
(-0.00296455 -0.00352297 0)
(-0.00150893 -0.00299298 0)
(-0.000261256 -0.00244401 0)
(0.000771914 -0.00188658 0)
(0.00158821 -0.00133176 0)
(0.00218965 -0.000791062 0)
(0.0025828 -0.000276509 0)
(0.00277894 0.000199297 0)
(0.00279424 0.000623033 0)
(0.00264982 0.000980506 0)
(0.00237184 0.00125651 0)
(0.00199166 0.00143484 0)
(0.00154579 0.00149858 0)
(0.00107516 0.00143101 0)
(0.000624425 0.0012174 0)
(0.000252924 0.000848312 0)
(4.80045e-05 0.00032639 0)
(-8.0985e-06 -7.16193e-05 0)
(-9.92552e-05 8.0954e-05 0)
(-0.000343237 0.000419603 0)
(-0.000745885 0.000867764 0)
(-0.00131303 0.00137241 0)
(-0.00204714 0.00189532 0)
(-0.00294495 0.00241017 0)
(-0.00399925 0.00290001 0)
(-0.00520041 0.00335498 0)
(-0.00653736 0.00377033 0)
(-0.00799846 0.00414486 0)
(-0.00957202 0.00447972 0)
(-0.0112467 0.00477738 0)
(-0.0130118 0.00504092 0)
(-0.0148573 0.00527348 0)
(-0.0167735 0.00547785 0)
(-0.0187516 0.00565619 0)
(-0.0207828 0.0058099 0)
(-0.0228584 0.00593954 0)
(-0.0249697 0.00604483 0)
(-0.0271074 0.00612469 0)
(-0.0292619 0.00617734 0)
(-0.0314227 0.00620041 0)
(-0.0335786 0.00619107 0)
(-0.0357174 0.00614619 0)
(-0.0378259 0.0060625 0)
(-0.0398902 0.00593669 0)
(-0.0418951 0.00576562 0)
(-0.0438249 0.0055464 0)
(-0.0456632 0.00527659 0)
(-0.047393 0.00495426 0)
(-0.0489971 0.00457816 0)
(-0.0504582 0.00414779 0)
(-0.0517593 0.00366349 0)
(-0.0528837 0.00312656 0)
(-0.0538155 0.00253927 0)
(-0.0545402 0.00190494 0)
(-0.0550442 0.00122792 0)
(-0.0553158 0.000513656 0)
(-0.0553453 -0.0002314 0)
(-0.0551253 -0.000999796 0)
(-0.0546506 -0.00178317 0)
(-0.053919 -0.00257235 0)
(-0.052931 -0.00335749 0)
(-0.0516903 -0.00412819 0)
(-0.0502038 -0.00487374 0)
(-0.0484813 -0.00558324 0)
(-0.0465361 -0.00624588 0)
(-0.0443845 -0.00685113 0)
(-0.0420459 -0.007389 0)
(-0.0395425 -0.00785027 0)
(-0.0368991 -0.00822671 0)
(-0.0341427 -0.00851133 0)
(-0.0313023 -0.00869856 0)
(-0.0284085 -0.00878444 0)
(-0.0254928 -0.00876674 0)
(-0.0225872 -0.00864508 0)
(-0.0197238 -0.008421 0)
(-0.0169342 -0.00809795 0)
(-0.0142487 -0.00768126 0)
(-0.0116961 -0.00717809 0)
(-0.00930296 -0.00659729 0)
(-0.00709296 -0.00594924 0)
(-0.00508668 -0.00524572 0)
(-0.00330102 -0.00449971 0)
(-0.00174881 -0.00372519 0)
(-0.000438483 -0.00293702 0)
(0.000626193 -0.00215081 0)
(0.00144639 -0.00138287 0)
(0.00202838 -0.000650138 0)
(0.00238373 2.96842e-05 0)
(0.00252939 0.000638089 0)
(0.00248776 0.00115561 0)
(0.00228677 0.00156174 0)
(0.0019599 0.00183495 0)
(0.00154629 0.00195298 0)
(0.00109005 0.00189364 0)
(0.000639896 0.00163612 0)
(0.000261183 0.00116315 0)
(4.98175e-05 0.000463962 0)
(-1.88966e-05 -8.27434e-06 0)
(-0.00016337 0.000296362 0)
(-0.000514103 0.000803489 0)
(-0.00106089 0.00142878 0)
(-0.00180094 0.00211283 0)
(-0.00273209 0.00281227 0)
(-0.00384743 0.00349686 0)
(-0.00513687 0.00414695 0)
(-0.00658866 0.00475098 0)
(-0.0081901 0.00530335 0)
(-0.00992822 0.00580263 0)
(-0.0117902 0.0062502 0)
(-0.0137638 0.00664904 0)
(-0.0158372 0.00700284 0)
(-0.0179995 0.00731533 0)
(-0.0202401 0.00758982 0)
(-0.0225489 0.00782882 0)
(-0.0249161 0.00803386 0)
(-0.0273316 0.00820541 0)
(-0.0297855 0.00834288 0)
(-0.0322669 0.00844468 0)
(-0.0347646 0.00850834 0)
(-0.0372665 0.00853065 0)
(-0.0397595 0.00850787 0)
(-0.0422294 0.00843587 0)
(-0.0446611 0.0083104 0)
(-0.0470386 0.0081272 0)
(-0.0493446 0.00788226 0)
(-0.0515615 0.00757196 0)
(-0.0536706 0.00719329 0)
(-0.055653 0.00674395 0)
(-0.0574895 0.00622256 0)
(-0.0591608 0.00562873 0)
(-0.0606482 0.00496323 0)
(-0.0619334 0.00422804 0)
(-0.0629991 0.00342645 0)
(-0.0638292 0.00256309 0)
(-0.0644092 0.00164396 0)
(-0.0647264 0.000676412 0)
(-0.0647704 -0.00033087 0)
(-0.0645332 -0.00136795 0)
(-0.0640094 -0.00242375 0)
(-0.0631966 -0.00348614 0)
(-0.0620956 -0.00454219 0)
(-0.0607104 -0.00557826 0)
(-0.0590484 -0.00658032 0)
(-0.0571204 -0.00753415 0)
(-0.0549409 -0.00842562 0)
(-0.0525273 -0.00924099 0)
(-0.0499009 -0.00996721 0)
(-0.0470855 -0.0105922 0)
(-0.044108 -0.0111052 0)
(-0.0409981 -0.011497 0)
(-0.0377871 -0.0117602 0)
(-0.0345085 -0.0118894 0)
(-0.0311969 -0.0118816 0)
(-0.0278876 -0.011736 0)
(-0.0246159 -0.0114544 0)
(-0.021417 -0.011041 0)
(-0.0183247 -0.0105027 0)
(-0.0153714 -0.00984845 0)
(-0.0125869 -0.00908975 0)
(-0.00999846 -0.00824004 0)
(-0.00762973 -0.00731467 0)
(-0.00550048 -0.00633063 0)
(-0.0036261 -0.00530633 0)
(-0.0020172 -0.00426139 0)
(-0.000679308 -0.00321647 0)
(0.000387465 -0.00219311 0)
(0.00118859 -0.00121375 0)
(0.00173528 -0.000301632 0)
(0.00204462 0.000519052 0)
(0.00213961 0.00122313 0)
(0.00204918 0.00178434 0)
(0.00180826 0.0021754 0)
(0.0014579 0.0023682 0)
(0.00104475 0.00233427 0)
(0.000620804 0.00204573 0)
(0.000255518 0.00147634 0)
(4.90208e-05 0.000601795 0)
(-2.98625e-05 8.89951e-05 0)
(-0.000229894 0.000599003 0)
(-0.000692956 0.00131684 0)
(-0.00139179 0.00215302 0)
(-0.00231402 0.00304375 0)
(-0.00345206 0.00394209 0)
(-0.00479457 0.00481512 0)
(-0.00632804 0.00564141 0)
(-0.00803814 0.00640838 0)
(-0.00991028 0.00711007 0)
(-0.01193 0.00774516 0)
(-0.0140834 0.00831545 0)
(-0.0163571 0.00882453 0)
(-0.0187386 0.00927674 0)
(-0.021216 0.00967643 0)
(-0.023778 0.0100273 0)
(-0.0264135 0.0103323 0)
(-0.0291116 0.0105927 0)
(-0.0318613 0.0108091 0)
(-0.0346511 0.0109802 0)
(-0.0374692 0.011104 0)
(-0.0403027 0.0111771 0)
(-0.0431379 0.0111954 0)
(-0.0459599 0.0111541 0)
(-0.0487531 0.011048 0)
(-0.0515004 0.0108719 0)
(-0.0541838 0.0106205 0)
(-0.0567844 0.0102888 0)
(-0.0592824 0.00987265 0)
(-0.0616575 0.00936838 0)
(-0.0638889 0.00877342 0)
(-0.0659556 0.0080863 0)
(-0.0678368 0.0073069 0)
(-0.069512 0.00643647 0)
(-0.0709617 0.00547786 0)
(-0.0721672 0.0044355 0)
(-0.0731111 0.00331549 0)
(-0.0737781 0.00212564 0)
(-0.0741544 0.000875404 0)
(-0.0742289 -0.000424138 0)
(-0.0739929 -0.00176038 0)
(-0.0734408 -0.00311931 0)
(-0.0725697 -0.00448571 0)
(-0.0713804 -0.0058433 0)
(-0.069877 -0.00717504 0)
(-0.0680671 -0.00846336 0)
(-0.065962 -0.00969047 0)
(-0.0635766 -0.0108387 0)
(-0.0609296 -0.011891 0)
(-0.0580431 -0.0128308 0)
(-0.0549424 -0.013643 0)
(-0.0516562 -0.0143141 0)
(-0.0482158 -0.0148323 0)
(-0.044655 -0.0151882 0)
(-0.0410095 -0.0153747 0)
(-0.0373168 -0.0153878 0)
(-0.033615 -0.0152262 0)
(-0.0299427 -0.0148917 0)
(-0.0263384 -0.0143893 0)
(-0.0228393 -0.013727 0)
(-0.0194813 -0.012916 0)
(-0.0162979 -0.0119702 0)
(-0.0133196 -0.0109064 0)
(-0.0105734 -0.00974371 0)
(-0.00808221 -0.00850331 0)
(-0.00586427 -0.0072084 0)
(-0.0039327 -0.00588372 0)
(-0.00229515 -0.00455537 0)
(-0.000953457 -0.00325063 0)
(9.65454e-05 -0.00199781 0)
(0.00086524 -0.000826204 0)
(0.00136931 0.000233894 0)
(0.00163179 0.00115116 0)
(0.00168208 0.00189317 0)
(0.00155602 0.00242643 0)
(0.00129606 0.00271641 0)
(0.000950751 0.00272783 0)
(0.000574622 0.00242509 0)
(0.000239524 0.00177268 0)
(4.64911e-05 0.000733622 0)
(-4.08817e-05 0.00022097 0)
(-0.000297792 0.000992058 0)
(-0.000876743 0.00196506 0)
(-0.00173296 0.00304756 0)
(-0.00284389 0.00417322 0)
(-0.00419593 0.00529312 0)
(-0.0057728 0.00637299 0)
(-0.00755707 0.00739067 0)
(-0.00953146 0.00833338 0)
(-0.0116792 0.00919537 0)
(-0.0139843 0.00997589 0)
(-0.0164314 0.0106774 0)
(-0.0190065 0.0113044 0)
(-0.021696 0.0118619 0)
(-0.0244873 0.0123548 0)
(-0.0273685 0.0127874 0)
(-0.0303275 0.0131625 0)
(-0.0333527 0.0134818 0)
(-0.0364321 0.0137451 0)
(-0.0395531 0.013951 0)
(-0.0427027 0.0140964 0)
(-0.0458665 0.0141771 0)
(-0.0490296 0.0141881 0)
(-0.0521757 0.0141233 0)
(-0.0552872 0.0139765 0)
(-0.0583457 0.0137413 0)
(-0.0613314 0.0134114 0)
(-0.0642238 0.0129812 0)
(-0.0670013 0.0124454 0)
(-0.0696421 0.0118001 0)
(-0.0721236 0.0110424 0)
(-0.0744235 0.0101708 0)
(-0.0765193 0.0091856 0)
(-0.0783893 0.00808862 0)
(-0.0800125 0.00688364 0)
(-0.081369 0.00557635 0)
(-0.0824404 0.00417447 0)
(-0.0832102 0.00268771 0)
(-0.0836637 0.00112775 0)
(-0.0837891 -0.000491804 0)
(-0.0835767 -0.00215555 0)
(-0.0830203 -0.00384645 0)
(-0.0821166 -0.00554599 0)
(-0.0808659 -0.00723446 0)
(-0.0792717 -0.00889122 0)
(-0.0773418 -0.010495 0)
(-0.0750874 -0.0120243 0)
(-0.0725236 -0.0134577 0)
(-0.0696695 -0.0147743 0)
(-0.0665478 -0.0159542 0)
(-0.0631849 -0.016979 0)
(-0.0596106 -0.0178318 0)
(-0.0558577 -0.0184983 0)
(-0.0519619 -0.0189665 0)
(-0.0479611 -0.0192277 0)
(-0.0438952 -0.0192762 0)
(-0.0398053 -0.0191101 0)
(-0.035733 -0.0187311 0)
(-0.03172 -0.0181445 0)
(-0.0278071 -0.0173598 0)
(-0.0240338 -0.01639 0)
(-0.0204373 -0.0152515 0)
(-0.0170518 -0.0139646 0)
(-0.0139078 -0.012552 0)
(-0.0110318 -0.0110397 0)
(-0.00844515 -0.00945576 0)
(-0.00616386 -0.00783041 0)
(-0.00419817 -0.00619558 0)
(-0.00255207 -0.00458466 0)
(-0.00122313 -0.00303229 0)
(-0.000202273 -0.00157425 0)
(0.000526336 -0.000247358 0)
(0.000985327 0.000910458 0)
(0.00120415 0.00186018 0)
(0.00121913 0.00256162 0)
(0.00107363 0.00297341 0)
(0.000817593 0.00305302 0)
(0.000507387 0.00275686 0)
(0.000215929 0.00204028 0)
(4.28255e-05 0.000854949 0)
(-5.19069e-05 0.000388073 0)
(-0.000366446 0.00147747 0)
(-0.00106347 0.00275167 0)
(-0.00208048 0.00411716 0)
(-0.00338442 0.00550683 0)
(-0.00495532 0.00687132 0)
(-0.00677153 0.00817637 0)
(-0.00881133 0.00940016 0)
(-0.0110542 0.0105306 0)
(-0.0134811 0.011563 0)
(-0.0160741 0.0124975 0)
(-0.0188167 0.0133378 0)
(-0.0216938 0.0140892 0)
(-0.0246911 0.0147577 0)
(-0.0277953 0.015349 0)
(-0.0309937 0.0158676 0)
(-0.0342739 0.0163166 0)
(-0.0376232 0.0166974 0)
(-0.0410289 0.0170096 0)
(-0.0444776 0.0172509 0)
(-0.0479549 0.0174175 0)
(-0.0514456 0.0175042 0)
(-0.0549333 0.0175046 0)
(-0.0584005 0.0174118 0)
(-0.0618282 0.0172182 0)
(-0.0651964 0.0169163 0)
(-0.0684839 0.0164988 0)
(-0.0716688 0.015959 0)
(-0.0747279 0.0152912 0)
(-0.077638 0.014491 0)
(-0.080375 0.0135551 0)
(-0.0829153 0.0124823 0)
(-0.085235 0.0112731 0)
(-0.0873111 0.00993009 0)
(-0.0891215 0.008458 0)
(-0.0906449 0.00686392 0)
(-0.0918619 0.00515719 0)
(-0.0927548 0.00334951 0)
(-0.0933079 0.00145485 0)
(-0.0935082 -0.000510581 0)
(-0.0933453 -0.00252854 0)
(-0.0928118 -0.00457884 0)
(-0.0919036 -0.00663964 0)
(-0.0906201 -0.00868767 0)
(-0.0889643 -0.0106986 0)
(-0.086943 -0.0126472 0)
(-0.0845673 -0.0145082 0)
(-0.0818519 -0.0162562 0)
(-0.0788157 -0.0178664 0)
(-0.0754819 -0.0193151 0)
(-0.0718771 -0.0205801 0)
(-0.0680321 -0.0216412 0)
(-0.0639809 -0.0224809 0)
(-0.0597607 -0.0230846 0)
(-0.0554114 -0.0234413 0)
(-0.0509753 -0.0235436 0)
(-0.0464961 -0.0233885 0)
(-0.0420185 -0.0229771 0)
(-0.0375877 -0.0223152 0)
(-0.0332482 -0.0214132 0)
(-0.0290432 -0.0202858 0)
(-0.0250139 -0.0189523 0)
(-0.0211986 -0.0174359 0)
(-0.0176318 -0.0157636 0)
(-0.0143438 -0.0139659 0)
(-0.0113595 -0.0120762 0)
(-0.00869842 -0.0101306 0)
(-0.00637373 -0.00816701 0)
(-0.00439209 -0.0062255 0)
(-0.00275323 -0.00434744 0)
(-0.00144982 -0.00257552 0)
(-0.000467265 -0.000953576 0)
(0.000216263 0.000473437 0)
(0.000629896 0.00165943 0)
(0.000810096 0.00255713 0)
(0.000800749 0.0031179 0)
(0.000652739 0.00329167 0)
(0.00042371 0.00302679 0)
(0.000186709 0.00226986 0)
(3.84195e-05 0.000962541 0)
(-6.29171e-05 0.000590519 0)
(-0.000435451 0.00205633 0)
(-0.00125172 0.00367875 0)
(-0.00243145 0.0053648 0)
(-0.00393094 0.00704815 0)
(-0.00572358 0.00868057 0)
(-0.00778214 0.0102291 0)
(-0.0100804 0.0116735 0)
(-0.0125943 0.0130032 0)
(-0.0153023 0.0142153 0)
(-0.0181846 0.0153116 0)
(-0.0212235 0.0162972 0)
(-0.0244025 0.0171788 0)
(-0.027707 0.0179635 0)
(-0.0311228 0.0186575 0)
(-0.0346368 0.019266 0)
(-0.0382359 0.0197921 0)
(-0.0419069 0.0202369 0)
(-0.0456363 0.0205995 0)
(-0.04941 0.020877 0)
(-0.0532127 0.0210645 0)
(-0.0570281 0.0211557 0)
(-0.0608389 0.021143 0)
(-0.0646261 0.0210182 0)
(-0.0683699 0.0207725 0)
(-0.0720487 0.0203973 0)
(-0.0756403 0.0198841 0)
(-0.0791212 0.0192254 0)
(-0.0824671 0.0184149 0)
(-0.0856533 0.0174475 0)
(-0.0886548 0.01632 0)
(-0.0914463 0.0150311 0)
(-0.094003 0.0135819 0)
(-0.0963006 0.0119755 0)
(-0.0983156 0.0102179 0)
(-0.100026 0.0083173 0)
(-0.10141 0.00628489 0)
(-0.10245 0.00413429 0)
(-0.103129 0.00188181 0)
(-0.103431 -0.000453779 0)
(-0.103347 -0.00285133 0)
(-0.102866 -0.00528753 0)
(-0.101984 -0.00773712 0)
(-0.100698 -0.0101732 0)
(-0.0990109 -0.0125677 0)
(-0.0969281 -0.0148914 0)
(-0.0944595 -0.017115 0)
(-0.0916192 -0.0192088 0)
(-0.0884258 -0.0211439 0)
(-0.0849017 -0.0228925 0)
(-0.0810741 -0.0244285 0)
(-0.076974 -0.0257278 0)
(-0.0726362 -0.0267695 0)
(-0.0680993 -0.0275358 0)
(-0.0634051 -0.0280129 0)
(-0.058598 -0.0281915 0)
(-0.0537243 -0.0280668 0)
(-0.0488321 -0.0276394 0)
(-0.04397 -0.0269148 0)
(-0.0391863 -0.0259043 0)
(-0.0345286 -0.0246242 0)
(-0.0300423 -0.0230961 0)
(-0.0257701 -0.0213465 0)
(-0.0217512 -0.0194067 0)
(-0.0180199 -0.0173119 0)
(-0.0146056 -0.015101 0)
(-0.0115316 -0.012816 0)
(-0.00881448 -0.0105017 0)
(-0.00646416 -0.00820497 0)
(-0.00448301 -0.00597439 0)
(-0.00286582 -0.00386005 0)
(-0.00159969 -0.0019133 0)
(-0.000663927 -0.000186606 0)
(-3.00397e-05 0.00126642 0)
(0.000338243 0.00239094 0)
(0.000485013 0.00313075 0)
(0.00046174 0.003428 0)
(0.000326957 0.00322303 0)
(0.000153256 0.00245412 0)
(3.35316e-05 0.00105403 0)
(-7.38969e-05 0.000828376 0)
(-0.000504496 0.00272913 0)
(-0.00144038 0.00474731 0)
(-0.00278356 0.00679195 0)
(-0.00447962 0.00879905 0)
(-0.00649521 0.0107229 0)
(-0.00879734 0.0125332 0)
(-0.0113551 0.0142124 0)
(-0.014141 0.0157527 0)
(-0.0171306 0.0171534 0)
(-0.0203023 0.0184187 0)
(-0.0236369 0.0195557 0)
(-0.0271172 0.0205727 0)
(-0.0307275 0.021478 0)
(-0.0344533 0.0222789 0)
(-0.0382809 0.0229807 0)
(-0.0421967 0.0235867 0)
(-0.0461872 0.0240979 0)
(-0.0502383 0.0245127 0)
(-0.054335 0.0248273 0)
(-0.0584614 0.0250357 0)
(-0.0626006 0.0251305 0)
(-0.066734 0.0251028 0)
(-0.0708419 0.0249429 0)
(-0.0749032 0.0246409 0)
(-0.0788956 0.0241869 0)
(-0.0827954 0.0235714 0)
(-0.0865781 0.022786 0)
(-0.0902185 0.0218237 0)
(-0.0936905 0.020679 0)
(-0.096968 0.0193484 0)
(-0.100025 0.0178309 0)
(-0.102834 0.0161278 0)
(-0.105372 0.0142431 0)
(-0.107612 0.0121836 0)
(-0.109531 0.00995907 0)
(-0.111108 0.00758218 0)
(-0.112322 0.00506857 0)
(-0.113155 0.00243678 0)
(-0.11359 -0.000291863 0)
(-0.113615 -0.00309335 0)
(-0.113219 -0.00594123 0)
(-0.112395 -0.00880689 0)
(-0.111139 -0.0116598 0)
(-0.109453 -0.0144679 0)
(-0.107339 -0.017198 0)
(-0.104807 -0.0198165 0)
(-0.10187 -0.0222894 0)
(-0.098544 -0.0245834 0)
(-0.0948519 -0.0266663 0)
(-0.0908201 -0.0285074 0)
(-0.0864796 -0.0300788 0)
(-0.0818661 -0.0313552 0)
(-0.077019 -0.0323154 0)
(-0.0719816 -0.0329425 0)
(-0.0668005 -0.0332243 0)
(-0.0615248 -0.0331542 0)
(-0.0562058 -0.0327313 0)
(-0.0508957 -0.0319609 0)
(-0.0456472 -0.0308545 0)
(-0.0405122 -0.0294297 0)
(-0.035541 -0.0277106 0)
(-0.0307813 -0.0257268 0)
(-0.0262772 -0.0235136 0)
(-0.0220681 -0.0211113 0)
(-0.018188 -0.0185644 0)
(-0.0146648 -0.0159215 0)
(-0.0115193 -0.0132342 0)
(-0.00876495 -0.0105568 0)
(-0.00640734 -0.00794559 0)
(-0.00444392 -0.00545865 0)
(-0.00286383 -0.00315532 0)
(-0.00164789 -0.0010961 0)
(-0.000768556 0.000657353 0)
(-0.000190037 0.00204225 0)
(0.000131702 0.00299441 0)
(0.000248465 0.00344804 0)
(0.000219452 0.00333551 0)
(0.000116507 0.00258712 0)
(2.83268e-05 0.00112765 0)
(-8.48235e-05 0.00110157 0)
(-0.000573292 0.00349584 0)
(-0.00162849 0.00595746 0)
(-0.0031348 0.00839888 0)
(-0.00502712 0.0107599 0)
(-0.00726532 0.0129987 0)
(-0.00981063 0.015089 0)
(-0.0126274 0.0170171 0)
(-0.0156844 0.0187788 0)
(-0.0189547 0.0203767 0)
(-0.0224145 0.021818 0)
(-0.0260433 0.0231121 0)
(-0.0298229 0.0242694 0)
(-0.0337369 0.0252996 0)
(-0.0377704 0.026211 0)
(-0.0419092 0.0270095 0)
(-0.0461395 0.0276984 0)
(-0.0504472 0.0282785 0)
(-0.0548178 0.0287473 0)
(-0.0592359 0.0291002 0)
(-0.0636851 0.0293302 0)
(-0.0681475 0.0294283 0)
(-0.072604 0.0293845 0)
(-0.0770341 0.0291876 0)
(-0.0814158 0.0288264 0)
(-0.0857257 0.0282896 0)
(-0.0899396 0.0275668 0)
(-0.0940317 0.0266487 0)
(-0.0979759 0.0255275 0)
(-0.101745 0.0241972 0)
(-0.105312 0.0226544 0)
(-0.10865 0.0208979 0)
(-0.111731 0.0189293 0)
(-0.114528 0.0167535 0)
(-0.117016 0.0143782 0)
(-0.11917 0.0118143 0)
(-0.120967 0.00907621 0)
(-0.122383 0.00618127 0)
(-0.1234 0.00315024 0)
(-0.124 6.92102e-06 0)
(-0.124167 -0.00322192 0)
(-0.12389 -0.00650677 0)
(-0.123158 -0.00981564 0)
(-0.121967 -0.0131144 0)
(-0.120315 -0.016367 0)
(-0.118203 -0.0195362 0)
(-0.115638 -0.0225839 0)
(-0.112632 -0.0254716 0)
(-0.1092 -0.0281613 0)
(-0.105362 -0.0306159 0)
(-0.101146 -0.0328002 0)
(-0.0965807 -0.0346813 0)
(-0.0917025 -0.0362297 0)
(-0.0865516 -0.0374199 0)
(-0.0811727 -0.0382311 0)
(-0.0756143 -0.038648 0)
(-0.0699282 -0.0386613 0)
(-0.0641689 -0.0382683 0)
(-0.0583927 -0.0374733 0)
(-0.0526566 -0.0362877 0)
(-0.0470175 -0.0347302 0)
(-0.041531 -0.0328268 0)
(-0.0362504 -0.0306102 0)
(-0.0312252 -0.0281198 0)
(-0.0265007 -0.0254008 0)
(-0.0221163 -0.022504 0)
(-0.0181049 -0.0194845 0)
(-0.0144923 -0.0164013 0)
(-0.0112963 -0.0133167 0)
(-0.00852609 -0.0102952 0)
(-0.00618235 -0.00740336 0)
(-0.00425674 -0.00470916 0)
(-0.00273194 -0.00228175 0)
(-0.00158171 -0.000191326 0)
(-0.000770957 0.00149085 0)
(-0.000255933 0.00269228 0)
(1.5345e-05 0.00333898 0)
(0.000102661 0.0033553 0)
(7.70452e-05 0.00266386 0)
(2.29041e-05 0.001182 0)
(-9.56656e-05 0.00140992 0)
(-0.000641542 0.00435594 0)
(-0.0018151 0.00730845 0)
(-0.00348325 0.0101847 0)
(-0.00557029 0.0129296 0)
(-0.00802935 0.0155068 0)
(-0.0108159 0.0178953 0)
(-0.0138895 0.0200861 0)
(-0.0172154 0.02208 0)
(-0.0207638 0.0238835 0)
(-0.0245091 0.0255073 0)
(-0.0284292 0.0269641 0)
(-0.0325051 0.0282663 0)
(-0.0367198 0.0294256 0)
(-0.0410579 0.0304512 0)
(-0.0455049 0.0313498 0)
(-0.0500467 0.0321247 0)
(-0.054669 0.0327763 0)
(-0.0593569 0.0333015 0)
(-0.0640948 0.0336946 0)
(-0.0688656 0.0339473 0)
(-0.0736511 0.0340495 0)
(-0.0784316 0.0339895 0)
(-0.0831859 0.0337548 0)
(-0.0878912 0.0333327 0)
(-0.0925237 0.0327108 0)
(-0.0970581 0.0318775 0)
(-0.101468 0.0308226 0)
(-0.105726 0.0295374 0)
(-0.109805 0.0280156 0)
(-0.113677 0.0262534 0)
(-0.117312 0.0242497 0)
(-0.120684 0.0220066 0)
(-0.123763 0.0195293 0)
(-0.126523 0.0168263 0)
(-0.128938 0.0139099 0)
(-0.130982 0.0107957 0)
(-0.132631 0.0075029 0)
(-0.133864 0.00405422 0)
(-0.134661 0.000475817 0)
(-0.135005 -0.00320292 0)
(-0.134881 -0.00694951 0)
(-0.134277 -0.0107287 0)
(-0.133186 -0.0145026 0)
(-0.131602 -0.0182315 0)
(-0.129525 -0.0218737 0)
(-0.12696 -0.0253867 0)
(-0.123916 -0.0287272 0)
(-0.120405 -0.0318522 0)
(-0.116447 -0.0347195 0)
(-0.112067 -0.0372886 0)
(-0.107295 -0.0395216 0)
(-0.102165 -0.0413838 0)
(-0.096718 -0.0428448 0)
(-0.0910006 -0.0438795 0)
(-0.0850626 -0.0444685 0)
(-0.0789585 -0.0445992 0)
(-0.0727461 -0.0442665 0)
(-0.0664856 -0.043473 0)
(-0.0602388 -0.0422294 0)
(-0.054068 -0.0405551 0)
(-0.0480345 -0.0384775 0)
(-0.0421978 -0.0360324 0)
(-0.0366138 -0.0332631 0)
(-0.0313339 -0.03022 0)
(-0.026404 -0.0269599 0)
(-0.0218631 -0.0235451 0)