/*--------------------------------*- C++ -*----------------------------------*\
  =========                 |
  \\      /  F ield         | OpenFOAM: The Open Source CFD Toolbox
   \\    /   O peration     | Website:  https://openfoam.org
    \\  /    A nd           | Version:  7
     \\/     M anipulation  |
\*---------------------------------------------------------------------------*/
FoamFile
{
    version     2.0;
    format      ascii;
    class       volVectorField;
    location    "0.525";
    object      U;
}
// * * * * * * * * * * * * * * * * * * * * * * * * * * * * * * * * * * * * * //

dimensions      [0 1 -1 0 0 0 0];

internalField   nonuniform List<vector> 
6400
(
(9.79782e-06 -1.01165e-05 0)
(2.40696e-05 -8.37675e-06 0)
(1.99382e-05 4.96e-07 0)
(-1.01974e-05 9.98279e-06 0)
(-6.61572e-05 1.8418e-05 0)
(-0.0001443 2.52522e-05 0)
(-0.000240706 3.05163e-05 0)
(-0.000351563 3.44341e-05 0)
(-0.000473501 3.72609e-05 0)
(-0.000603694 3.92313e-05 0)
(-0.000739838 4.05426e-05 0)
(-0.000880092 4.13545e-05 0)
(-0.00102301 4.17943e-05 0)
(-0.00116747 4.19624e-05 0)
(-0.00131261 4.19347e-05 0)
(-0.00145776 4.17647e-05 0)
(-0.00160242 4.14892e-05 0)
(-0.00174616 4.11324e-05 0)
(-0.00188864 4.0708e-05 0)
(-0.00202954 4.02193e-05 0)
(-0.00216857 3.96627e-05 0)
(-0.0023054 3.90296e-05 0)
(-0.0024397 3.83078e-05 0)
(-0.00257108 3.74814e-05 0)
(-0.00269914 3.65323e-05 0)
(-0.00282337 3.54406e-05 0)
(-0.00294326 3.41863e-05 0)
(-0.0030582 3.27493e-05 0)
(-0.00316754 3.111e-05 0)
(-0.00327058 2.92499e-05 0)
(-0.00336655 2.71522e-05 0)
(-0.00345466 2.48026e-05 0)
(-0.00353408 2.21897e-05 0)
(-0.00360393 1.9306e-05 0)
(-0.00366337 1.61484e-05 0)
(-0.00371152 1.27189e-05 0)
(-0.00374754 9.02507e-06 0)
(-0.00377063 5.08057e-06 0)
(-0.00378006 9.05741e-07 0)
(-0.00377516 -3.47155e-06 0)
(-0.00375538 -8.01818e-06 0)
(-0.00372027 -1.26926e-05 0)
(-0.00366956 -1.74469e-05 0)
(-0.0036031 -2.22268e-05 0)
(-0.00352096 -2.69733e-05 0)
(-0.00342337 -3.1623e-05 0)
(-0.00331078 -3.61091e-05 0)
(-0.00318385 -4.03635e-05 0)
(-0.00304343 -4.43183e-05 0)
(-0.00289059 -4.7907e-05 0)
(-0.00272662 -5.10674e-05 0)
(-0.00255295 -5.37419e-05 0)
(-0.00237122 -5.58806e-05 0)
(-0.00218318 -5.7442e-05 0)
(-0.0019907 -5.83943e-05 0)
(-0.00179575 -5.87163e-05 0)
(-0.00160033 -5.83981e-05 0)
(-0.00140648 -5.74416e-05 0)
(-0.0012162 -5.58598e-05 0)
(-0.00103145 -5.36768e-05 0)
(-0.000854122 -5.09262e-05 0)
(-0.000685971 -4.76506e-05 0)
(-0.000528633 -4.39e-05 0)
(-0.000383581 -3.97303e-05 0)
(-0.000252115 -3.52009e-05 0)
(-0.000135341 -3.03735e-05 0)
(-3.41521e-05 -2.53131e-05 0)
(5.07306e-05 -2.01e-05 0)
(0.000118834 -1.47756e-05 0)
(0.000169949 -9.42388e-06 0)
(0.000204083 -4.12285e-06 0)
(0.000221553 1.03756e-06 0)
(0.000223022 5.94139e-06 0)
(0.000209605 1.04335e-05 0)
(0.000183029 1.42648e-05 0)
(0.000145881 1.70444e-05 0)
(0.000101962 1.81512e-05 0)
(5.67819e-05 1.65815e-05 0)
(1.89323e-05 1.09514e-05 0)
(1.58559e-06 1.63751e-06 0)
(8.09263e-06 -2.41461e-05 0)
(4.23318e-06 -4.54809e-06 0)
(-4.82591e-05 3.96669e-05 0)
(-0.000158982 8.79387e-05 0)
(-0.000327784 0.000132821 0)
(-0.000549287 0.000171312 0)
(-0.000816008 0.000202741 0)
(-0.00111999 0.000227523 0)
(-0.0014537 0.000246487 0)
(-0.00181044 0.000260563 0)
(-0.00218446 0.000270643 0)
(-0.00257098 0.00027752 0)
(-0.00296608 0.000281872 0)
(-0.00336661 0.000284254 0)
(-0.00377004 0.000285106 0)
(-0.00417433 0.000284762 0)
(-0.00457785 0.000283466 0)
(-0.00497923 0.000281385 0)
(-0.0053773 0.000278623 0)
(-0.005771 0.000275226 0)
(-0.00615931 0.000271197 0)
(-0.00654122 0.000266505 0)
(-0.00691565 0.000261091 0)
(-0.00728147 0.000254875 0)
(-0.0076374 0.000247763 0)
(-0.00798208 0.00023965 0)
(-0.00831399 0.000230426 0)
(-0.00863148 0.000219981 0)
(-0.00893277 0.000208208 0)
(-0.00921595 0.000195009 0)
(-0.00947898 0.000180294 0)
(-0.00971975 0.000163992 0)
(-0.00993606 0.000146049 0)
(-0.0101257 0.000126436 0)
(-0.0102864 0.000105151 0)
(-0.0104159 8.22229e-05 0)
(-0.0105121 5.77136e-05 0)
(-0.010573 3.1723e-05 0)
(-0.0105967 4.38935e-06 0)
(-0.0105816 -2.41088e-05 0)
(-0.0105264 -5.35526e-05 0)
(-0.0104301 -8.36836e-05 0)
(-0.0102919 -0.000114206 0)
(-0.0101116 -0.000144791 0)
(-0.00988958 -0.00017508 0)
(-0.00962643 -0.000204692 0)
(-0.00932343 -0.000233232 0)
(-0.00898234 -0.000260295 0)
(-0.00860545 -0.000285482 0)
(-0.00819557 -0.000308404 0)
(-0.00775599 -0.000328692 0)
(-0.00729049 -0.000346012 0)
(-0.00680324 -0.000360067 0)
(-0.00629878 -0.000370612 0)
(-0.00578191 -0.000377454 0)
(-0.00525769 -0.000380462 0)
(-0.00473128 -0.000379568 0)
(-0.0042079 -0.000374771 0)
(-0.00369276 -0.000366131 0)
(-0.00319093 -0.000353774 0)
(-0.00270731 -0.000337881 0)
(-0.00224654 -0.000318687 0)
(-0.00181292 -0.000296471 0)
(-0.00141037 -0.000271553 0)
(-0.00104238 -0.000244284 0)
(-0.000711943 -0.00021504 0)
(-0.000421554 -0.000184223 0)
(-0.000173145 -0.000152276 0)
(3.19577e-05 -0.000119615 0)
(0.000193093 -8.67458e-05 0)
(0.000310312 -5.42168e-05 0)
(0.000384507 -2.26687e-05 0)
(0.000417553 7.10943e-06 0)
(0.000412533 3.41024e-05 0)
(0.000374051 5.6925e-05 0)
(0.000308672 7.36612e-05 0)
(0.000225306 8.16663e-05 0)
(0.000135572 7.73513e-05 0)
(5.60393e-05 5.65004e-05 0)
(1.06659e-05 1.88007e-05 0)
(-4.57572e-07 -2.01753e-05 0)
(-4.04669e-05 4.82506e-05 0)
(-0.000161428 0.000159047 0)
(-0.000365554 0.000278431 0)
(-0.00065042 0.000391155 0)
(-0.00100956 0.000490218 0)
(-0.00143359 0.000573251 0)
(-0.00191219 0.000640432 0)
(-0.00243525 0.000693166 0)
(-0.0029935 0.000733339 0)
(-0.00357879 0.00076293 0)
(-0.00418412 0.000783804 0)
(-0.00480361 0.000797613 0)
(-0.00543242 0.000805757 0)
(-0.00606653 0.000809372 0)
(-0.00670266 0.000809348 0)
(-0.00733808 0.00080635 0)
(-0.00797048 0.000800846 0)
(-0.00859783 0.000793136 0)
(-0.00921828 0.000783376 0)
(-0.00983007 0.000771602 0)
(-0.0104314 0.000757756 0)
(-0.0110206 0.000741706 0)
(-0.0115956 0.000723259 0)
(-0.0121545 0.000702181 0)
(-0.0126949 0.000678213 0)
(-0.0132145 0.000651079 0)
(-0.0137107 0.000620501 0)
(-0.0141807 0.000586213 0)
(-0.0146215 0.000547967 0)
(-0.0150302 0.00050555 0)
(-0.0154033 0.000458789 0)
(-0.0157376 0.000407565 0)
(-0.0160298 0.000351824 0)
(-0.0162764 0.000291587 0)
(-0.0164743 0.000226957 0)
(-0.0166202 0.000158127 0)
(-0.0167112 8.53897e-05 0)
(-0.0167446 9.14006e-06 0)
(-0.0167181 -7.01233e-05 0)
(-0.0166298 -0.000151794 0)
(-0.0164783 -0.000235166 0)
(-0.0162627 -0.000319439 0)
(-0.0159829 -0.000403725 0)
(-0.0156394 -0.000487066 0)
(-0.0152332 -0.000568447 0)
(-0.0147665 -0.000646817 0)
(-0.0142419 -0.000721111 0)
(-0.013663 -0.000790273 0)
(-0.013034 -0.000853279 0)
(-0.0123598 -0.000909165 0)
(-0.0116462 -0.000957048 0)
(-0.0108993 -0.000996153 0)
(-0.0101259 -0.00102583 0)
(-0.00933322 -0.00104556 0)
(-0.00852868 -0.00105501 0)
(-0.00771998 -0.00105397 0)
(-0.00691489 -0.00104244 0)
(-0.00612114 -0.00102055 0)
(-0.00534631 -0.00098861 0)
(-0.00459772 -0.000947082 0)
(-0.00388231 -0.000896562 0)
(-0.00320656 -0.000837773 0)
(-0.00257639 -0.000771546 0)
(-0.00199709 -0.000698807 0)
(-0.00147325 -0.000620565 0)
(-0.00100868 -0.000537905 0)
(-0.000606352 -0.000451998 0)
(-0.00026832 -0.000364093 0)
(4.36773e-06 -0.000275577 0)
(0.000211779 -0.000188004 0)
(0.000355262 -0.000103185 0)
(0.000437648 -2.3303e-05 0)
(0.000463523 4.89205e-05 0)
(0.000439583 0.000110013 0)
(0.000375078 0.000155497 0)
(0.000282063 0.000179677 0)
(0.000175543 0.000175592 0)
(7.64801e-05 0.00013572 0)
(1.59947e-05 5.59338e-05 0)
(-1.03192e-05 1.07414e-05 0)
(-9.18164e-05 0.000161776 0)
(-0.000289259 0.000364885 0)
(-0.000592713 0.0005774 0)
(-0.000995016 0.000777903 0)
(-0.00148793 0.000955678 0)
(-0.00206043 0.00110658 0)
(-0.00270046 0.0012304 0)
(-0.00339622 0.00132904 0)
(-0.00413674 0.00140535 0)
(-0.00491217 0.00146249 0)
(-0.0057139 0.00150357 0)
(-0.0065346 0.00153139 0)
(-0.00736803 0.00154839 0)
(-0.008209 0.00155657 0)
(-0.00905311 0.00155753 0)
(-0.00989666 0.00155249 0)
(-0.0107364 0.00154233 0)
(-0.0115696 0.0015276 0)
(-0.0123935 0.00150864 0)
(-0.0132057 0.00148552 0)
(-0.0140037 0.00145818 0)
(-0.014785 0.00142639 0)
(-0.0155468 0.00138984 0)
(-0.0162865 0.0013481 0)
(-0.0170009 0.00130074 0)
(-0.0176869 0.00124725 0)
(-0.018341 0.00118717 0)
(-0.0189595 0.00112003 0)
(-0.0195387 0.00104539 0)
(-0.0200743 0.000962885 0)
(-0.0205624 0.000872241 0)
(-0.0209985 0.000773268 0)
(-0.0213784 0.000665903 0)
(-0.0216979 0.000550222 0)
(-0.0219529 0.000426453 0)
(-0.0221393 0.000294993 0)
(-0.0222535 0.000156419 0)
(-0.0222922 1.14953e-05 0)
(-0.0222526 -0.000138825 0)
(-0.0221324 -0.000293397 0)
(-0.0219299 -0.000450894 0)
(-0.0216444 -0.000609825 0)
(-0.0212757 -0.000768543 0)
(-0.0208246 -0.000925279 0)
(-0.0202928 -0.00107817 0)
(-0.0196829 -0.00122528 0)
(-0.0189985 -0.00136468 0)
(-0.0182442 -0.00149443 0)
(-0.0174256 -0.00161267 0)
(-0.0165489 -0.00171766 0)
(-0.0156214 -0.00180779 0)
(-0.0146511 -0.00188165 0)
(-0.0136465 -0.00193806 0)
(-0.0126166 -0.00197611 0)
(-0.0115711 -0.00199513 0)
(-0.0105195 -0.00199479 0)
(-0.00947169 -0.00197502 0)
(-0.00843748 -0.00193609 0)
(-0.00742644 -0.00187854 0)
(-0.00644783 -0.00180317 0)
(-0.00551046 -0.00171107 0)
(-0.00462257 -0.00160353 0)
(-0.0037917 -0.00148207 0)
(-0.00302462 -0.00134837 0)
(-0.00232717 -0.00120429 0)
(-0.00170427 -0.00105186 0)
(-0.00115973 -0.000893243 0)
(-0.000696188 -0.000730822 0)
(-0.000315013 -0.000567211 0)
(-1.61245e-05 -0.000405355 0)
(0.000202168 -0.00024865 0)
(0.000343401 -0.000101123 0)
(0.000413234 3.23405e-05 0)
(0.000419795 0.000145726 0)
(0.000374065 0.000231604 0)
(0.000290048 0.000280909 0)
(0.000184831 0.000282982 0)
(8.21262e-05 0.000226229 0)
(1.7498e-05 0.000100318 0)
(-1.97631e-05 6.96145e-05 0)
(-0.000142855 0.000339333 0)
(-0.000418057 0.000659751 0)
(-0.000821559 0.000984304 0)
(-0.00133995 0.00128801 0)
(-0.00196237 0.00155773 0)
(-0.00267584 0.00178812 0)
(-0.00346673 0.0019788 0)
(-0.00432191 0.00213218 0)
(-0.00522916 0.00225212 0)
(-0.00617742 0.002343 0)
(-0.00715694 0.00240918 0)
(-0.00815926 0.00245471 0)
(-0.00917712 0.00248313 0)
(-0.0102043 0.00249742 0)
(-0.0112356 0.00249997 0)
(-0.0122664 0.00249262 0)
(-0.0132927 0.0024767 0)
(-0.0143109 0.00245311 0)
(-0.0153177 0.00242236 0)
(-0.0163098 0.0023846 0)
(-0.0172842 0.00233976 0)
(-0.0182375 0.00228753 0)
(-0.0191665 0.00222743 0)
(-0.0200676 0.00215886 0)
(-0.020937 0.00208115 0)
(-0.0217709 0.0019936 0)
(-0.0225648 0.00189547 0)
(-0.0233145 0.0017861 0)
(-0.0240153 0.00166484 0)
(-0.0246622 0.00153118 0)
(-0.0252503 0.00138473 0)
(-0.0257745 0.00122524 0)
(-0.0262298 0.00105268 0)
(-0.0266111 0.000867202 0)
(-0.0269136 0.000669223 0)
(-0.0271328 0.000459414 0)
(-0.0272643 0.000238722 0)
(-0.0273045 8.38149e-06 0)
(-0.0272501 -0.000230087 0)
(-0.0270987 -0.000474865 0)
(-0.0268484 -0.000723869 0)
(-0.0264985 -0.000974759 0)
(-0.026049 -0.00122497 0)
(-0.025501 -0.00147177 0)
(-0.0248567 -0.00171225 0)
(-0.0241195 -0.00194347 0)
(-0.0232936 -0.00216242 0)
(-0.0223847 -0.00236615 0)
(-0.0213992 -0.00255181 0)
(-0.020345 -0.00271673 0)
(-0.0192304 -0.00285848 0)
(-0.0180648 -0.00297489 0)
(-0.0168585 -0.00306418 0)
(-0.0156221 -0.00312493 0)
(-0.0143667 -0.00315616 0)
(-0.0131037 -0.00315733 0)
(-0.0118446 -0.00312837 0)
(-0.010601 -0.00306964 0)
(-0.00938397 -0.00298196 0)
(-0.00820447 -0.00286658 0)
(-0.0070728 -0.00272513 0)
(-0.00599864 -0.0025596 0)
(-0.00499082 -0.0023723 0)
(-0.00405729 -0.00216584 0)
(-0.00320493 -0.0019431 0)
(-0.0024395 -0.00170721 0)
(-0.00176546 -0.0014616 0)
(-0.00118592 -0.00120997 0)
(-0.000702472 -0.000956455 0)
(-0.000315005 -0.00070565 0)
(-2.1561e-05 -0.000462836 0)
(0.000181923 -0.000234173 0)
(0.000301872 -2.6973e-05 0)
(0.000347394 0.000149987 0)
(0.000330608 0.000286161 0)
(0.000266773 0.000369003 0)
(0.000174346 0.000383964 0)
(7.85982e-05 0.00031489 0)
(1.68488e-05 0.000144626 0)
(-2.82251e-05 0.000154742 0)
(-0.00019071 0.000579533 0)
(-0.000541221 0.00104276 0)
(-0.00104203 0.00149786 0)
(-0.00167284 0.00191885 0)
(-0.00241951 0.0022918 0)
(-0.00326675 0.00261109 0)
(-0.00419925 0.00287661 0)
(-0.0052026 0.00309158 0)
(-0.00626356 0.00326093 0)
(-0.00737014 0.00339032 0)
(-0.00851172 0.00348543 0)
(-0.00967902 0.00355158 0)
(-0.010864 0.00359345 0)
(-0.0120597 0.00361504 0)
(-0.01326 0.00361956 0)
(-0.0144598 0.00360953 0)
(-0.0156543 0.00358677 0)
(-0.0168393 0.00355253 0)
(-0.0180108 0.00350752 0)
(-0.0191649 0.00345199 0)
(-0.0202978 0.00338585 0)
(-0.0214058 0.00330869 0)
(-0.0224847 0.00321988 0)
(-0.0235305 0.00311862 0)
(-0.0245385 0.00300401 0)
(-0.0255043 0.00287509 0)
(-0.0264229 0.00273088 0)
(-0.027289 0.00257047 0)
(-0.0280974 0.00239305 0)
(-0.0288424 0.00219792 0)
(-0.0295182 0.0019846 0)
(-0.0301193 0.00175281 0)
(-0.0306397 0.00150254 0)
(-0.0310739 0.00123412 0)
(-0.0314165 0.000948185 0)
(-0.0316622 0.000645745 0)
(-0.0318065 0.000328202 0)
(-0.0318452 -2.64305e-06 0)
(-0.0317749 -0.000344593 0)
(-0.0315928 -0.000695045 0)
(-0.0312972 -0.00105103 0)
(-0.0308873 -0.00140922 0)
(-0.0303633 -0.001766 0)
(-0.0297268 -0.00211751 0)
(-0.0289804 -0.0024597 0)
(-0.0281279 -0.00278842 0)
(-0.0271747 -0.00309949 0)
(-0.0261269 -0.00338881 0)
(-0.0249923 -0.0036524 0)
(-0.0237794 -0.00388658 0)
(-0.0224982 -0.00408795 0)
(-0.0211592 -0.00425354 0)
(-0.0197739 -0.00438088 0)
(-0.0183545 -0.00446802 0)
(-0.0169134 -0.0045136 0)
(-0.0154635 -0.00451688 0)
(-0.0140179 -0.00447777 0)
(-0.0125895 -0.00439678 0)
(-0.0111908 -0.00427506 0)
(-0.00983401 -0.00411434 0)
(-0.00853084 -0.00391689 0)
(-0.00729208 -0.00368548 0)
(-0.00612765 -0.00342337 0)
(-0.00504643 -0.00313419 0)
(-0.00405612 -0.00282201 0)
(-0.00316313 -0.00249124 0)
(-0.00237242 -0.00214672 0)
(-0.00168741 -0.0017937 0)
(-0.00110982 -0.00143801 0)
(-0.000639507 -0.00108613 0)
(-0.000274251 -0.000745439 0)
(-9.57202e-06 -0.000424417 0)
(0.000161536 -0.000132985 0)
(0.000248884 0.00011719 0)
(0.000265384 0.000312357 0)
(0.000227145 0.000436432 0)
(0.000153536 0.000470909 0)
(7.05158e-05 0.000395002 0)
(1.52553e-05 0.000185305 0)
(-3.56723e-05 0.000263875 0)
(-0.000234504 0.000878822 0)
(-0.000655965 0.00151007 0)
(-0.00124926 0.00211387 0)
(-0.00198718 0.00266548 0)
(-0.00285194 0.00315174 0)
(-0.00382565 0.00356783 0)
(-0.00489112 0.0039146 0)
(-0.00603265 0.00419643 0)
(-0.007236 0.00441956 0)
(-0.00848841 0.00459104 0)
(-0.00977856 0.00471793 0)
(-0.0110965 0.00480682 0)
(-0.0124337 0.00486361 0)
(-0.0137824 0.00489328 0)
(-0.0151361 0.00489992 0)
(-0.016489 0.00488671 0)
(-0.0178358 0.004856 0)
(-0.0191717 0.00480939 0)
(-0.0204921 0.00474778 0)
(-0.0217925 0.00467153 0)
(-0.0230687 0.00458052 0)
(-0.0243162 0.00447426 0)
(-0.0255304 0.00435193 0)
(-0.0267064 0.00421253 0)
(-0.0278392 0.0040549 0)
(-0.0289236 0.00387782 0)
(-0.029954 0.00368007 0)
(-0.0309244 0.0034605 0)
(-0.031829 0.00321808 0)
(-0.0326614 0.00295198 0)
(-0.0334153 0.00266161 0)
(-0.0340843 0.00234669 0)
(-0.034662 0.00200731 0)
(-0.0351423 0.00164394 0)
(-0.0355193 0.00125752 0)
(-0.0357872 0.000849483 0)
(-0.0359411 0.000421742 0)
(-0.0359765 -2.32464e-05 0)
(-0.0358897 -0.000482488 0)
(-0.035678 -0.00095251 0)
(-0.0353394 -0.00142934 0)
(-0.0348733 -0.00190855 0)
(-0.0342803 -0.00238534 0)
(-0.033562 -0.00285461 0)
(-0.0327216 -0.00331101 0)
(-0.0317636 -0.00374909 0)
(-0.0306937 -0.00416336 0)
(-0.0295193 -0.00454845 0)
(-0.0282487 -0.00489918 0)
(-0.0268918 -0.0052107 0)
(-0.0254593 -0.00547862 0)
(-0.0239631 -0.00569907 0)
(-0.0224159 -0.00586883 0)
(-0.0208311 -0.00598537 0)
(-0.0192226 -0.00604696 0)
(-0.0176044 -0.00605265 0)
(-0.0159911 -0.00600233 0)
(-0.0143966 -0.0058967 0)
(-0.012835 -0.00573728 0)
(-0.0113195 -0.00552634 0)
(-0.00986298 -0.0052669 0)
(-0.00847717 -0.00496262 0)
(-0.00717292 -0.00461778 0)
(-0.00595989 -0.00423719 0)
(-0.00484642 -0.00382623 0)
(-0.00383941 -0.00339075 0)
(-0.00294419 -0.00293714 0)
(-0.00216438 -0.0024724 0)
(-0.00150172 -0.0020042 0)
(-0.000955976 -0.00154107 0)
(-0.00052467 -0.00109262 0)
(-0.000202939 -0.000669826 0)
(1.67123e-05 -0.000285309 0)
(0.000144661 4.62906e-05 0)
(0.000194425 0.000307984 0)
(0.000182741 0.000480153 0)
(0.000129606 0.000540405 0)
(6.11525e-05 0.000463559 0)
(1.34603e-05 0.000220958 0)
(-4.22353e-05 0.000394689 0)
(-0.000274232 0.0012328 0)
(-0.000761525 0.00205643 0)
(-0.00144145 0.0028266 0)
(-0.00228019 0.00352157 0)
(-0.00325625 0.00413047 0)
(-0.00434894 0.00465031 0)
(-0.00553906 0.00508366 0)
(-0.00680954 0.00543652 0)
(-0.00814514 0.00571675 0)
(-0.00953237 0.00593293 0)
(-0.0109593 0.0060936 0)
(-0.0124155 0.00620672 0)
(-0.0138919 0.00627935 0)
(-0.0153804 0.00631754 0)
(-0.0168739 0.0063262 0)
(-0.0183661 0.00630922 0)
(-0.0198514 0.00626943 0)
(-0.0213244 0.00620878 0)
(-0.02278 0.00612839 0)
(-0.0242134 0.00602869 0)
(-0.0256197 0.00590955 0)
(-0.0269939 0.00577034 0)
(-0.0283308 0.00561008 0)
(-0.0296251 0.00542754 0)
(-0.0308713 0.00522129 0)
(-0.0320633 0.00498985 0)
(-0.0331951 0.00473173 0)
(-0.0342602 0.00444554 0)
(-0.035252 0.00413005 0)
(-0.0361637 0.00378428 0)
(-0.0369882 0.00340756 0)
(-0.0377187 0.00299963 0)
(-0.0383482 0.00256068 0)
(-0.03887 0.00209142 0)
(-0.0392776 0.00159311 0)
(-0.0395652 0.00106764 0)
(-0.0397271 0.000517551 0)
(-0.0397588 -5.39838e-05 0)
(-0.0396562 -0.000643108 0)
(-0.0394164 -0.00124535 0)
(-0.0390377 -0.00185564 0)
(-0.0385193 -0.00246834 0)
(-0.037862 -0.00307736 0)
(-0.0370678 -0.00367622 0)
(-0.0361402 -0.00425818 0)
(-0.0350843 -0.00481636 0)
(-0.0339065 -0.00534386 0)
(-0.0326147 -0.00583391 0)
(-0.0312184 -0.00628003 0)
(-0.0297281 -0.00667616 0)
(-0.0281557 -0.00701679 0)
(-0.0265142 -0.00729709 0)
(-0.0248174 -0.00751306 0)
(-0.02308 -0.00766156 0)
(-0.0213171 -0.00774043 0)
(-0.0195441 -0.00774853 0)
(-0.0177765 -0.00768575 0)
(-0.0160298 -0.00755302 0)
(-0.014319 -0.00735228 0)
(-0.0126586 -0.00708644 0)
(-0.0110623 -0.00675933 0)
(-0.0095429 -0.0063756 0)
(-0.008112 -0.00594068 0)
(-0.00677993 -0.0054607 0)
(-0.00555555 -0.00494247 0)
(-0.00444616 -0.00439343 0)
(-0.00345732 -0.00382169 0)
(-0.00259275 -0.00323609 0)
(-0.00185416 -0.00264631 0)
(-0.00124112 -0.00206307 0)
(-0.000750877 -0.00149834 0)
(-0.000378168 -0.00096566 0)
(-0.000115023 -0.00048044 0)
(4.94603e-05 -6.03365e-05 0)
(0.000129342 0.000274419 0)
(0.0001419 0.000500727 0)
(0.000107634 0.000592463 0)
(5.26847e-05 0.000520404 0)
(1.19042e-05 0.000251628 0)
(-4.80579e-05 0.000545033 0)
(-0.000310199 0.00163695 0)
(-0.000858073 0.00267611 0)
(-0.00161839 0.00362965 0)
(-0.00255124 0.0044803 0)
(-0.00363147 0.00522067 0)
(-0.00483555 0.00585064 0)
(-0.00614224 0.00637521 0)
(-0.00753299 0.00680254 0)
(-0.00899157 0.00714243 0)
(-0.0105037 0.00740525 0)
(-0.012057 0.00760112 0)
(-0.0136406 0.00773941 0)
(-0.0152449 0.00782844 0)
(-0.0168615 0.00787527 0)
(-0.018483 0.00788569 0)
(-0.0201027 0.00786425 0)
(-0.0217146 0.00781427 0)
(-0.0233129 0.00773803 0)
(-0.0248922 0.00763686 0)
(-0.0264472 0.00751124 0)
(-0.0279725 0.007361 0)
(-0.0294627 0.00718539 0)
(-0.0309122 0.00698323 0)
(-0.032315 0.00675303 0)
(-0.0336652 0.00649311 0)
(-0.0349563 0.0062017 0)
(-0.0361815 0.00587704 0)
(-0.037334 0.00551747 0)
(-0.0384065 0.00512157 0)
(-0.0393916 0.00468822 0)
(-0.0402817 0.00421669 0)
(-0.0410695 0.00370673 0)
(-0.0417474 0.00315868 0)
(-0.0423083 0.00257348 0)
(-0.0427452 0.0019528 0)
(-0.0430516 0.00129904 0)
(-0.0432219 0.000615406 0)
(-0.0432508 -9.4126e-05 0)
(-0.0431343 -0.000824775 0)
(-0.0428694 -0.00157097 0)
(-0.042454 -0.00232644 0)
(-0.0418876 -0.00308424 0)
(-0.0411709 -0.00383687 0)
(-0.0403064 -0.00457638 0)
(-0.0392979 -0.00529452 0)
(-0.0381507 -0.00598287 0)
(-0.0368721 -0.006633 0)
(-0.0354705 -0.00723667 0)
(-0.0339561 -0.00778598 0)
(-0.0323404 -0.00827353 0)
(-0.0306364 -0.00869265 0)
(-0.028858 -0.00903748 0)
(-0.0270203 -0.00930315 0)
(-0.0251389 -0.00948589 0)
(-0.0232303 -0.0095831 0)
(-0.0213113 -0.00959342 0)
(-0.0193984 -0.00951678 0)
(-0.0175085 -0.00935437 0)
(-0.0156576 -0.00910862 0)
(-0.0138615 -0.00878314 0)
(-0.0121348 -0.00838267 0)
(-0.0104912 -0.00791298 0)
(-0.00894309 -0.00738079 0)
(-0.0075014 -0.00679366 0)
(-0.00617549 -0.00615998 0)
(-0.00497296 -0.00548894 0)
(-0.00389956 -0.00479049 0)
(-0.00295901 -0.00407548 0)
(-0.00215292 -0.00335572 0)
(-0.0014806 -0.00264423 0)
(-0.000938961 -0.00195544 0)
(-0.000522285 -0.00130554 0)
(-0.00022209 -0.000712787 0)
(-2.69148e-05 -0.000197884 0)
(7.78777e-05 0.000215701 0)
(0.000110139 0.000501454 0)
(9.09018e-05 0.00062967 0)
(4.64446e-05 0.000567424 0)
(1.08273e-05 0.000278274 0)
(-5.32609e-05 0.000713003 0)
(-0.000342785 0.00208695 0)
(-0.000946182 0.00336337 0)
(-0.0017807 0.0045165 0)
(-0.00280086 0.00553465 0)
(-0.00397807 0.00641495 0)
(-0.00528603 0.00716104 0)
(-0.00670143 0.00778106 0)
(-0.00820424 0.00828583 0)
(-0.0097772 0.00868749 0)
(-0.0114053 0.0089984 0)
(-0.0130757 0.00923046 0)
(-0.0147769 0.00939453 0)
(-0.0164992 0.00950021 0)
(-0.0182339 0.00955564 0)
(-0.0199732 0.00956745 0)
(-0.0217102 0.00954084 0)
(-0.0234386 0.00947963 0)
(-0.0251523 0.00938641 0)
(-0.0268455 0.00926268 0)
(-0.0285125 0.00910897 0)
(-0.0301477 0.00892503 0)
(-0.0317452 0.00870999 0)
(-0.033299 0.00846243 0)
(-0.0348028 0.00818062 0)
(-0.0362499 0.00786257 0)
(-0.0376336 0.00750621 0)
(-0.0389465 0.0071095 0)
(-0.0401813 0.00667053 0)
(-0.0413302 0.00618765 0)
(-0.0423852 0.0056596 0)
(-0.0433384 0.00508558 0)
(-0.0441816 0.00446541 0)
(-0.0449069 0.00379954 0)
(-0.0455066 0.00308922 0)
(-0.0459733 0.00233652 0)
(-0.0463 0.00154442 0)
(-0.0464807 0.000716832 0)
(-0.0465099 -0.0001414 0)
(-0.0463831 -0.00102447 0)
(-0.0460971 -0.00192566 0)
(-0.0456498 -0.0028374 0)
(-0.0450406 -0.00375133 0)
(-0.0442703 -0.00465846 0)
(-0.0433415 -0.00554927 0)
(-0.0422582 -0.00641387 0)
(-0.0410262 -0.00724219 0)
(-0.0396531 -0.00802417 0)
(-0.0381481 -0.00874996 0)
(-0.036522 -0.00941015 0)
(-0.0347872 -0.00999593 0)
(-0.0329575 -0.0104993 0)
(-0.031048 -0.0109134 0)
(-0.0290748 -0.0112323 0)
(-0.0270548 -0.0114516 0)
(-0.0250056 -0.0115682 0)
(-0.0229454 -0.0115806 0)
(-0.020892 -0.0114887 0)
(-0.0188636 -0.0112939 0)
(-0.0168775 -0.0109993 0)
(-0.0149505 -0.0106093 0)
(-0.0130984 -0.0101297 0)
(-0.0113358 -0.00956736 0)
(-0.00967598 -0.0089305 0)
(-0.00813047 -0.0082283 0)
(-0.00670912 -0.00747088 0)
(-0.00541985 -0.00666931 0)
(-0.00426853 -0.00583557 0)
(-0.00325887 -0.00498263 0)
(-0.0023923 -0.0041246 0)
(-0.00166783 -0.0032769 0)
(-0.00108192 -0.00245652 0)
(-0.000628347 -0.00168239 0)
(-0.000298027 -0.000975659 0)
(-7.88416e-05 -0.000360117 0)
(4.45363e-05 0.000137527 0)
(9.0667e-05 0.000487379 0)
(8.12805e-05 0.000656259 0)
(4.31505e-05 0.00060776 0)
(1.03418e-05 0.000302366 0)
(-5.79426e-05 0.000896924 0)
(-0.000372365 0.00257879 0)
(-0.00102656 0.0041127 0)
(-0.00192933 0.00548075 0)
(-0.00303018 0.00667766 0)
(-0.00429732 0.00770601 0)
(-0.00570183 0.00857393 0)
(-0.00721838 0.00929335 0)
(-0.00882547 0.00987826 0)
(-0.0105048 0.0103435 0)
(-0.0122407 0.0107037 0)
(-0.0140197 0.0109727 0)
(-0.01583 0.0111629 0)
(-0.0176616 0.0112854 0)
(-0.0195056 0.0113492 0)
(-0.0213539 0.011362 0)
(-0.0231996 0.0113296 0)
(-0.0250358 0.0112563 0)
(-0.0268565 0.0111449 0)
(-0.0286555 0.0109971 0)
(-0.0304269 0.0108135 0)
(-0.0321647 0.0105937 0)
(-0.0338627 0.0103367 0)
(-0.0355145 0.0100408 0)
(-0.0371134 0.00970396 0)
(-0.0386525 0.00932396 0)
(-0.0401244 0.00889838 0)
(-0.0415215 0.00842484 0)
(-0.0428357 0.00790119 0)
(-0.044059 0.00732554 0)
(-0.0451827 0.00669647 0)
(-0.0461984 0.00601313 0)
(-0.0470975 0.00527535 0)
(-0.0478715 0.00448377 0)
(-0.048512 0.00363993 0)
(-0.0490114 0.00274635 0)
(-0.0493621 0.0018066 0)
(-0.0495575 0.00082535 0)
(-0.0495918 -0.000191631 0)
(-0.0494603 -0.00123746 0)
(-0.0491593 -0.00230418 0)
(-0.0486865 -0.00338285 0)
(-0.0480413 -0.00446363 0)
(-0.0472243 -0.00553592 0)
(-0.0462382 -0.00658851 0)
(-0.0450871 -0.0076098 0)
(-0.0437772 -0.00858794 0)
(-0.0423163 -0.00951112 0)
(-0.0407142 -0.0103678 0)
(-0.0389822 -0.0111469 0)
(-0.0371335 -0.0118381 0)
(-0.0351828 -0.0124319 0)
(-0.033146 -0.0129204 0)
(-0.0310405 -0.0132965 0)
(-0.0288845 -0.0135551 0)
(-0.0266968 -0.0136926 0)
(-0.0244967 -0.0137071 0)
(-0.0223039 -0.0135987 0)
(-0.0201376 -0.0133691 0)
(-0.0180167 -0.0130218 0)
(-0.0159593 -0.0125623 0)
(-0.0139824 -0.0119974 0)
(-0.0121017 -0.0113354 0)
(-0.0103315 -0.0105861 0)
(-0.0086839 -0.00976051 0)
(-0.00716946 -0.00887058 0)
(-0.00579642 -0.00792948 0)
(-0.00457081 -0.00695139 0)
(-0.00349633 -0.00595161 0)
(-0.00257418 -0.00494665 0)
(-0.001803 -0.00395448 0)
(-0.00117875 -0.00299478 0)
(-0.000694594 -0.00208929 0)
(-0.000340715 -0.00126214 0)
(-0.000104197 -0.000540262 0)
(3.1159e-05 4.6359e-05 0)
(8.48428e-05 0.000464432 0)
(7.95596e-05 0.000677317 0)
(4.30846e-05 0.000645191 0)
(1.04809e-05 0.000325607 0)
(-6.218e-05 0.00109533 0)
(-0.000399275 0.0031088 0)
(-0.00109991 0.00491894 0)
(-0.00206535 0.00651625 0)
(-0.00324059 0.00790264 0)
(-0.00459088 0.00908677 0)
(-0.00608491 0.010082 0)
(-0.00769539 0.0109046 0)
(-0.00939943 0.0115722 0)
(-0.0111777 0.0121027 0)
(-0.0130139 0.0125132 0)
(-0.0148938 0.0128197 0)
(-0.0168056 0.0130364 0)
(-0.0187389 0.0131757 0)
(-0.0206845 0.0132479 0)
(-0.0226344 0.0132614 0)
(-0.0245812 0.0132227 0)
(-0.0265182 0.0131365 0)
(-0.0284389 0.0130061 0)
(-0.0303372 0.0128331 0)
(-0.0322068 0.0126182 0)
(-0.0340415 0.0123608 0)
(-0.0358349 0.0120598 0)
(-0.0375802 0.0117132 0)
(-0.0392705 0.0113187 0)
(-0.0408983 0.0108736 0)
(-0.0424561 0.0103752 0)
(-0.0439357 0.00982089 0)
(-0.0453287 0.00920808 0)
(-0.0466263 0.00853469 0)
(-0.0478198 0.00779913 0)
(-0.0488999 0.00700046 0)
(-0.0498575 0.00613856 0)
(-0.0506838 0.00521421 0)
(-0.0513697 0.00422925 0)
(-0.0519069 0.00318668 0)
(-0.0522875 0.00209068 0)
(-0.0525044 0.000946709 0)
(-0.0525512 -0.000238488 0)
(-0.0524228 -0.0014569 0)
(-0.0521151 -0.00269928 0)
(-0.0516256 -0.00395525 0)
(-0.0509533 -0.0052134 0)
(-0.0500987 -0.00646143 0)
(-0.0490642 -0.00768638 0)
(-0.0478541 -0.00887479 0)
(-0.0464746 -0.010013 0)
(-0.0449337 -0.0110872 0)
(-0.0432414 -0.0120841 0)
(-0.0414098 -0.0129908 0)
(-0.0394524 -0.0137954 0)
(-0.0373847 -0.0144868 0)
(-0.0352237 -0.0150557 0)
(-0.0329877 -0.015494 0)
(-0.0306961 -0.0157955 0)
(-0.0283691 -0.0159561 0)
(-0.0260277 -0.0159736 0)
(-0.0236928 -0.0158479 0)
(-0.0213853 -0.0155812 0)
(-0.0191259 -0.0151778 0)
(-0.016934 -0.0146437 0)
(-0.0148282 -0.0139873 0)
(-0.0128256 -0.0132183 0)
(-0.0109414 -0.0123484 0)
(-0.00918892 -0.0113903 0)
(-0.00757935 -0.0103583 0)
(-0.00612144 -0.0092679 0)
(-0.00482145 -0.00813558 0)
(-0.00368308 -0.00697918 0)
(-0.00270734 -0.00581782 0)
(-0.00189245 -0.0046722 0)
(-0.0012338 -0.00356479 0)
(-0.000723794 -0.00252029 0)
(-0.000351766 -0.00156591 0)
(-0.000103804 -0.00073181 0)
(3.74005e-05 -5.13463e-05 0)
(9.25558e-05 0.000438703 0)
(8.57024e-05 0.000698154 0)
(4.62154e-05 0.000683669 0)
(1.1227e-05 0.000349742 0)
(-6.60324e-05 0.00130691 0)
(-0.000423805 0.00367367 0)
(-0.00116691 0.00577732 0)
(-0.00218983 0.00761727 0)
(-0.00343351 0.0092032 0)
(-0.00486057 0.0105505 0)
(-0.00643743 0.0116783 0)
(-0.00813502 0.0126078 0)
(-0.00992911 0.0133605 0)
(-0.0117994 0.0139578 0)
(-0.0137289 0.0144197 0)
(-0.015703 0.0147644 0)
(-0.0177094 0.0150079 0)
(-0.0197375 0.0151642 0)
(-0.0217782 0.0152447 0)
(-0.0238231 0.0152587 0)
(-0.0258649 0.0152134 0)
(-0.0278966 0.015114 0)
(-0.0299119 0.0149639 0)
(-0.0319043 0.014765 0)
(-0.0338674 0.0145178 0)
(-0.0357949 0.0142218 0)
(-0.0376801 0.0138753 0)
(-0.0395161 0.0134764 0)
(-0.0412955 0.0130221 0)
(-0.0430108 0.0125096 0)
(-0.0446539 0.0119358 0)
(-0.0462164 0.0112975 0)
(-0.0476893 0.0105919 0)
(-0.0490637 0.00981674 0)
(-0.0503299 0.00897011 0)
(-0.0514785 0.00805102 0)
(-0.0524998 0.00705935 0)
(-0.0533843 0.00599604 0)
(-0.0541224 0.00486323 0)
(-0.0547054 0.00366436 0)
(-0.0551246 0.00240427 0)
(-0.0553723 0.00108922 0)
(-0.0554418 -0.000273057 0)
(-0.0553272 -0.00167337 0)
(-0.0550242 -0.00310115 0)
(-0.0545296 -0.00454452 0)
(-0.053842 -0.00599043 0)
(-0.0529616 -0.00742484 0)
(-0.0518906 -0.00883292 0)
(-0.0506329 -0.0101993 0)
(-0.0491946 -0.0115083 0)
(-0.0475837 -0.0127442 0)
(-0.0458104 -0.0138916 0)
(-0.0438867 -0.0149359 0)
(-0.0418269 -0.0158631 0)
(-0.0396468 -0.0166606 0)
(-0.0373644 -0.0173174 0)
(-0.0349988 -0.0178242 0)
(-0.0325706 -0.0181738 0)
(-0.0301017 -0.0183611 0)
(-0.0276144 -0.0183836 0)
(-0.0251314 -0.0182411 0)
(-0.0226756 -0.0179361 0)
(-0.0202693 -0.0174733 0)
(-0.017934 -0.0168601 0)
(-0.01569 -0.0161059 0)
(-0.0135562 -0.0152223 0)
(-0.0115492 -0.0142228 0)
(-0.00968371 -0.0131225 0)
(-0.00797179 -0.011938 0)
(-0.00642294 -0.0106873 0)
(-0.00504385 -0.00938968 0)
(-0.00383832 -0.00806563 0)
(-0.00280719 -0.00673718 0)
(-0.00194827 -0.0054279 0)
(-0.00125629 -0.00416332 0)
(-0.000722793 -0.0029712 0)
(-0.000336079 -0.001882 0)
(-8.10202e-05 -0.000929253 0)
(6.10811e-05 -0.000149838 0)
(0.000112498 0.000415816 0)
(9.90248e-05 0.000723782 0)
(5.22778e-05 0.000726957 0)
(1.25281e-05 0.000376423 0)
(-6.95459e-05 0.00153052 0)
(-0.000446197 0.00427039 0)
(-0.00122814 0.00668345 0)
(-0.00230375 0.00877847 0)
(-0.00361034 0.0105734 0)
(-0.00510815 0.0120909 0)
(-0.00676156 0.0133563 0)
(-0.00853985 0.0143962 0)
(-0.0104175 0.0152365 0)
(-0.0123735 0.0159023 0)
(-0.0143899 0.0164167 0)
(-0.0164518 0.0168002 0)
(-0.0185467 0.017071 0)
(-0.0206638 0.0172445 0)
(-0.0227937 0.0173334 0)
(-0.0249282 0.0173481 0)
(-0.0270598 0.0172963 0)
(-0.0291815 0.0171836 0)
(-0.0312868 0.0170137 0)
(-0.0333694 0.0167886 0)
(-0.0354226 0.0165088 0)
(-0.0374402 0.0161735 0)
(-0.0394151 0.015781 0)
(-0.0413404 0.0153286 0)
(-0.0432085 0.0148135 0)
(-0.0450115 0.0142321 0)
(-0.0467412 0.0135808 0)
(-0.0483887 0.0128564 0)
(-0.0499448 0.0120554 0)
(-0.0514 0.0111754 0)
(-0.0527443 0.0102141 0)
(-0.0539677 0.00917052 0)
(-0.0550601 0.00804445 0)
(-0.0560113 0.00683698 0)
(-0.0568113 0.00555053 0)
(-0.0574505 0.004189 0)
(-0.0579199 0.00275784 0)
(-0.0582111 0.00126415 0)
(-0.0583167 -0.000283338 0)
(-0.0582303 -0.00187427 0)
(-0.0579468 -0.00349669 0)
(-0.0574625 -0.00513722 0)
(-0.0567753 -0.00678114 0)
(-0.0558851 -0.00841261 0)
(-0.0547932 -0.0100149 0)
(-0.0535032 -0.0115706 0)