/*--------------------------------*- C++ -*----------------------------------*\
  =========                 |
  \\      /  F ield         | OpenFOAM: The Open Source CFD Toolbox
   \\    /   O peration     | Website:  https://openfoam.org
    \\  /    A nd           | Version:  7
     \\/     M anipulation  |
\*---------------------------------------------------------------------------*/
FoamFile
{
    version     2.0;
    format      ascii;
    class       volVectorField;
    location    "1.05";
    object      U;
}
// * * * * * * * * * * * * * * * * * * * * * * * * * * * * * * * * * * * * * //

dimensions      [0 1 -1 0 0 0 0];

internalField   nonuniform List<vector> 
6400
(
(1.09788e-05 -1.12773e-05 0)
(3.94521e-05 -1.74507e-05 0)
(6.70029e-05 -1.32703e-05 0)
(7.57075e-05 -5.19057e-06 0)
(5.88944e-05 3.71345e-06 0)
(1.65947e-05 1.19509e-05 0)
(-4.8939e-05 1.90019e-05 0)
(-0.000134581 2.4767e-05 0)
(-0.000237037 2.93429e-05 0)
(-0.000353286 3.29238e-05 0)
(-0.000480779 3.57301e-05 0)
(-0.000617511 3.79787e-05 0)
(-0.000762021 3.9866e-05 0)
(-0.00091334 4.15567e-05 0)
(-0.00107091 4.31806e-05 0)
(-0.00123451 4.48316e-05 0)
(-0.00140411 4.65694e-05 0)
(-0.00157985 4.84234e-05 0)
(-0.0017619 5.0396e-05 0)
(-0.00195039 5.24648e-05 0)
(-0.00214535 5.45874e-05 0)
(-0.00234666 5.67045e-05 0)
(-0.00255397 5.87437e-05 0)
(-0.00276669 6.06209e-05 0)
(-0.00298397 6.22438e-05 0)
(-0.00320462 6.35142e-05 0)
(-0.00342716 6.43306e-05 0)
(-0.00364979 6.45892e-05 0)
(-0.00387036 6.4186e-05 0)
(-0.00408645 6.3019e-05 0)
(-0.00429531 6.09919e-05 0)
(-0.00449394 5.8017e-05 0)
(-0.00467912 5.40176e-05 0)
(-0.00484743 4.89322e-05 0)
(-0.00499535 4.27189e-05 0)
(-0.0051193 3.53589e-05 0)
(-0.00521575 2.68613e-05 0)
(-0.00528126 1.72661e-05 0)
(-0.00531267 6.64855e-06 0)
(-0.00530711 -4.88498e-06 0)
(-0.00526216 -1.71833e-05 0)
(-0.00517598 -3.00591e-05 0)
(-0.00504734 -4.32903e-05 0)
(-0.0048758 -5.66226e-05 0)
(-0.00466171 -6.97743e-05 0)
(-0.00440633 -8.24439e-05 0)
(-0.00411183 -9.43205e-05 0)
(-0.0037813 -0.000105093 0)
(-0.00341876 -0.00011446 0)
(-0.00302903 -0.000122148 0)
(-0.00261774 -0.000127914 0)
(-0.00219111 -0.000131566 0)
(-0.00175589 -0.000132968 0)
(-0.0013191 -0.000132045 0)
(-0.000887929 -0.000128793 0)
(-0.000469458 -0.000123279 0)
(-7.05099e-05 -0.000115637 0)
(0.000302551 -0.000106066 0)
(0.000644001 -9.48132e-05 0)
(0.000948902 -8.21765e-05 0)
(0.00121321 -6.84807e-05 0)
(0.00143386 -5.40658e-05 0)
(0.00160881 -3.92738e-05 0)
(0.00173703 -2.44346e-05 0)
(0.00181848 -9.85451e-06 0)
(0.00185406 4.19181e-06 0)
(0.00184553 1.74659e-05 0)
(0.00179538 2.97652e-05 0)
(0.00170683 4.09145e-05 0)
(0.00158372 5.07534e-05 0)
(0.00143052 5.91128e-05 0)
(0.00125237 6.57813e-05 0)
(0.00105526 7.04558e-05 0)
(0.000846277 7.26726e-05 0)
(0.000634024 7.1716e-05 0)
(0.000429217 6.65291e-05 0)
(0.000245241 5.56984e-05 0)
(9.8205e-05 3.75926e-05 0)
(6.46216e-06 1.17985e-05 0)
(-1.15858e-05 -1.15646e-05 0)
(1.74044e-05 -3.96407e-05 0)
(5.27853e-05 -5.26495e-05 0)
(6.94746e-05 -2.69558e-05 0)
(3.89756e-05 1.57474e-05 0)
(-5.07373e-05 6.34571e-05 0)
(-0.000201231 0.000109652 0)
(-0.000408998 0.000151171 0)
(-0.000668159 0.000186869 0)
(-0.000971869 0.000216733 0)
(-0.00131342 0.000241371 0)
(-0.00168685 0.000261683 0)
(-0.00208723 0.000278664 0)
(-0.00251077 0.000293272 0)
(-0.00295476 0.000306355 0)
(-0.00341741 0.000318608 0)
(-0.0038977 0.00033055 0)
(-0.00439515 0.000342521 0)
(-0.00490957 0.000354694 0)
(-0.0054409 0.00036708 0)
(-0.00598898 0.00037955 0)
(-0.00655341 0.000391848 0)
(-0.00713333 0.000403619 0)
(-0.00772738 0.000414419 0)
(-0.00833352 0.000423737 0)
(-0.00894901 0.000431012 0)
(-0.00957032 0.000435647 0)
(-0.0101931 0.000437028 0)
(-0.0108122 0.000434535 0)
(-0.0114217 0.000427561 0)
(-0.0120148 0.000415525 0)
(-0.0125841 0.000397895 0)
(-0.0131214 0.000374206 0)
(-0.0136184 0.000344076 0)
(-0.014066 0.000307231 0)
(-0.014455 0.000263528 0)
(-0.0147764 0.000212971 0)
(-0.0150213 0.000155734 0)
(-0.0151811 9.21759e-05 0)
(-0.0152481 2.28543e-05 0)
(-0.0152155 -5.14746e-05 0)
(-0.0150777 -0.000129834 0)
(-0.0148304 -0.000211057 0)
(-0.0144714 -0.00029379 0)
(-0.014 -0.000376522 0)
(-0.0134177 -0.00045761 0)
(-0.0127282 -0.000535328 0)
(-0.0119375 -0.000607914 0)
(-0.0110537 -0.000673623 0)
(-0.0100873 -0.000730791 0)
(-0.00905045 -0.000777894 0)
(-0.0079574 -0.000813607 0)
(-0.0068238 -0.000836863 0)
(-0.00566647 -0.000846899 0)
(-0.00450302 -0.000843294 0)
(-0.00335136 -0.000825992 0)
(-0.00222931 -0.000795314 0)
(-0.00115406 -0.000751951 0)
(-0.000141818 -0.000696938 0)
(0.000792687 -0.000631611 0)
(0.00163652 -0.000557562 0)
(0.00237885 -0.000476574 0)
(0.00301117 -0.000390549 0)
(0.00352743 -0.000301436 0)
(0.0039241 -0.000211165 0)
(0.00420015 -0.000121593 0)
(0.00435697 -3.44503e-05 0)
(0.00439823 4.86746e-05 0)
(0.00432977 0.000126341 0)
(0.00415939 0.000197224 0)
(0.00389684 0.000260052 0)
(0.00355375 0.00031351 0)
(0.00314376 0.0003561 0)
(0.00268274 0.000385965 0)
(0.00218923 0.000400672 0)
(0.00168498 0.000397009 0)
(0.00119551 0.000370909 0)
(0.000750025 0.000317822 0)
(0.000380017 0.000233891 0)
(0.000120676 0.000120585 0)
(1.17259e-05 6.38396e-06 0)
(1.39777e-05 -6.82085e-05 0)
(2.74272e-05 -6.94123e-05 0)
(-6.28877e-06 4.60059e-06 0)
(-0.00011419 0.000114427 0)
(-0.000308306 0.000236288 0)
(-0.000590334 0.000356001 0)
(-0.000955951 0.000465781 0)
(-0.00139757 0.000562263 0)
(-0.00190621 0.000644834 0)
(-0.00247286 0.000714505 0)
(-0.00308931 0.000773162 0)
(-0.00374859 0.000823048 0)
(-0.0044452 0.000866426 0)
(-0.00517501 0.000905352 0)
(-0.00593516 0.000941542 0)
(-0.00672379 0.000976295 0)
(-0.00753977 0.00101048 0)
(-0.00838238 0.00104451 0)
(-0.00925103 0.00107841 0)
(-0.010145 0.00111183 0)
(-0.011063 0.00114406 0)
(-0.0120033 0.00117415 0)
(-0.0129633 0.00120089 0)
(-0.0139393 0.0012229 0)
(-0.0149266 0.00123867 0)
(-0.0159194 0.0012466 0)
(-0.0169106 0.00124504 0)
(-0.0178919 0.00123235 0)
(-0.0188538 0.00120693 0)
(-0.0197858 0.0011673 0)
(-0.0206764 0.0011121 0)
(-0.0215131 0.00104019 0)
(-0.022283 0.000950676 0)
(-0.0229725 0.000842976 0)
(-0.023568 0.000716866 0)
(-0.024056 0.000572536 0)
(-0.0244236 0.000410627 0)
(-0.0246583 0.000232272 0)
(-0.0247492 3.91155e-05 0)
(-0.0246867 -0.000166673 0)
(-0.024463 -0.000382402 0)
(-0.0240727 -0.000604897 0)
(-0.0235127 -0.000830537 0)
(-0.0227829 -0.00105532 0)
(-0.0218861 -0.00127496 0)
(-0.0208281 -0.00148498 0)
(-0.0196182 -0.00168084 0)
(-0.0182684 -0.00185808 0)
(-0.0167941 -0.00201246 0)
(-0.0152135 -0.00214012 0)
(-0.0135471 -0.00223767 0)
(-0.0118177 -0.00230241 0)
(-0.0100499 -0.00233236 0)
(-0.00826907 -0.00232642 0)
(-0.00650139 -0.00228438 0)
(-0.00477288 -0.00220697 0)
(-0.00310882 -0.00209583 0)
(-0.00153317 -0.00195349 0)
(-6.79857e-05 -0.00178327 0)
(0.00126713 -0.00158912 0)
(0.00245547 -0.00137556 0)
(0.00348352 -0.00114742 0)
(0.00434129 -0.000909759 0)
(0.00502238 -0.000667646 0)
(0.00552408 -0.000426039 0)
(0.00584725 -0.000189675 0)
(0.00599629 3.70044e-05 0)
(0.00597893 0.000249854 0)
(0.00580609 0.00044498 0)
(0.00549177 0.000618602 0)
(0.00505299 0.000766859 0)
(0.00450991 0.000885531 0)
(0.00388597 0.000969722 0)
(0.00320823 0.00101353 0)
(0.00250777 0.00100986 0)
(0.00181999 0.000950579 0)
(0.00118379 0.000827709 0)
(0.000639559 0.000636075 0)
(0.000235482 0.000380289 0)
(3.77312e-05 9.82365e-05 0)
(5.75789e-06 -7.72808e-05 0)
(-1.91362e-05 -3.58213e-05 0)
(-0.000128719 0.000114846 0)
(-0.000341018 0.000318588 0)
(-0.000664298 0.000540414 0)
(-0.00109861 0.000758276 0)
(-0.00163806 0.00095955 0)
(-0.00227341 0.00113836 0)
(-0.00299403 0.00129331 0)
(-0.00378933 0.00142579 0)
(-0.00464956 0.00153876 0)
(-0.00556637 0.00163592 0)
(-0.00653306 0.00172107 0)
(-0.00754447 0.00179773 0)
(-0.0085969 0.00186884 0)
(-0.00968778 0.00193665 0)
(-0.0108153 0.00200265 0)
(-0.0119783 0.00206755 0)
(-0.0131753 0.00213131 0)
(-0.014405 0.00219323 0)
(-0.0156653 0.00225199 0)
(-0.0169531 0.00230578 0)
(-0.0182646 0.00235233 0)
(-0.0195944 0.00238908 0)
(-0.0209358 0.0024132 0)
(-0.0222807 0.00242173 0)
(-0.0236194 0.00241164 0)
(-0.0249407 0.00237992 0)
(-0.0262319 0.0023237 0)
(-0.0274791 0.0022403 0)
(-0.0286671 0.00212736 0)
(-0.0297798 0.00198292 0)
(-0.0308003 0.00180551 0)
(-0.0317114 0.00159427 0)
(-0.0324958 0.001349 0)
(-0.0331365 0.00107031 0)
(-0.0336171 0.000759611 0)
(-0.0339227 0.000419209 0)
(-0.0340395 5.23375e-05 0)
(-0.033956 -0.000336841 0)
(-0.0336631 -0.00074328 0)
(-0.0331544 -0.00116108 0)
(-0.0324268 -0.00158359 0)
(-0.0314804 -0.00200353 0)
(-0.0303192 -0.00241314 0)
(-0.0289509 -0.00280438 0)
(-0.027387 -0.00316914 0)
(-0.0256431 -0.00349947 0)
(-0.023738 -0.00378784 0)
(-0.0216944 -0.00402733 0)
(-0.0195377 -0.00421198 0)
(-0.0172961 -0.00433689 0)
(-0.0149999 -0.00439853 0)
(-0.0126808 -0.00439479 0)
(-0.0103712 -0.00432519 0)
(-0.00810368 -0.00419083 0)
(-0.00591 -0.00399447 0)
(-0.00382056 -0.0037404 0)
(-0.00186359 -0.00343432 0)
(-6.4535e-05 -0.00308314 0)
(0.00155453 -0.00269478 0)
(0.0029754 -0.00227786 0)
(0.00418403 -0.00184145 0)
(0.00517085 -0.00139476 0)
(0.00593087 -0.000946926 0)
(0.00646366 -0.000506809 0)
(0.00677334 -8.28394e-05 0)
(0.0068684 0.000316999 0)
(0.00676157 0.000685115 0)
(0.0064697 0.00101413 0)
(0.00601363 0.00129658 0)
(0.00541823 0.00152457 0)
(0.00471244 0.00168931 0)
(0.00392947 0.00178075 0)
(0.00310698 0.00178747 0)
(0.00228721 0.00169708 0)
(0.001516 0.00149788 0)
(0.000840928 0.00118228 0)
(0.000323169 0.000753871 0)
(5.64469e-05 0.000246702 0)
(-4.48799e-06 -5.785e-05 0)
(-7.70041e-05 6.68632e-05 0)
(-0.000279335 0.000326091 0)
(-0.000615568 0.000650249 0)
(-0.00108725 0.000994893 0)
(-0.00169121 0.00133125 0)
(-0.00241901 0.00164247 0)
(-0.0032594 0.00192048 0)
(-0.00420016 0.00216327 0)
(-0.00522938 0.00237274 0)
(-0.0063362 0.00255308 0)
(-0.00751136 0.00270956 0)
(-0.00874732 0.00284765 0)
(-0.0100383 0.00297244 0)
(-0.01138 0.0030882 0)
(-0.0127693 0.0031982 0)
(-0.014204 0.00330456 0)
(-0.0156821 0.00340822 0)
(-0.0172019 0.00350903 0)
(-0.018761 0.00360576 0)
(-0.0203564 0.00369631 0)
(-0.0219841 0.00377777 0)
(-0.0236385 0.00384658 0)
(-0.0253128 0.0038987 0)
(-0.0269984 0.00392971 0)
(-0.0286848 0.003935 0)
(-0.03036 0.00390989 0)
(-0.0320099 0.00384976 0)
(-0.033619 0.00375023 0)
(-0.0351702 0.00360729 0)
(-0.0366451 0.00341745 0)
(-0.0380245 0.00317788 0)
(-0.039288 0.00288656 0)
(-0.0404153 0.00254243 0)
(-0.041386 0.00214551 0)
(-0.0421802 0.001697 0)
(-0.0427789 0.00119941 0)
(-0.0431647 0.000656579 0)
(-0.0433219 7.37342e-05 0)
(-0.0432375 -0.000542514 0)
(-0.0429011 -0.00118427 0)
(-0.0423056 -0.00184237 0)
(-0.0414477 -0.00250661 0)
(-0.0403278 -0.00316585 0)
(-0.0389505 -0.00380833 0)
(-0.0373249 -0.00442187 0)
(-0.0354643 -0.00499426 0)
(-0.0333863 -0.00551351 0)
(-0.0311127 -0.00596828 0)
(-0.0286692 -0.00634817 0)
(-0.026085 -0.00664413 0)
(-0.0233925 -0.00684871 0)
(-0.0206263 -0.00695642 0)
(-0.0178231 -0.00696392 0)
(-0.0150205 -0.00687017 0)
(-0.0122565 -0.00667655 0)
(-0.00956828 -0.00638687 0)
(-0.00699201 -0.00600723 0)
(-0.00456146 -0.00554591 0)
(-0.00230749 -0.00501307 0)
(-0.000257275 -0.00442043 0)
(0.00156623 -0.00378092 0)
(0.0031448 -0.00310826 0)
(0.00446532 -0.00241656 0)
(0.00551998 -0.00171998 0)
(0.00630637 -0.00103235 0)
(0.00682751 -0.000367072 0)
(0.0070917 0.000263089 0)
(0.00711244 0.00084588 0)
(0.00690823 0.0013694 0)
(0.00650244 0.00182175 0)
(0.00592323 0.0021906 0)
(0.00520347 0.00246269 0)
(0.0043808 0.00262341 0)
(0.00349772 0.00265671 0)
(0.00260173 0.00254561 0)
(0.00174441 0.00227389 0)
(0.000980186 0.0018293 0)
(0.000382435 0.00120937 0)
(6.82761e-05 0.000434682 0)
(-1.54776e-05 -5.97883e-06 0)
(-0.00014093 0.000249283 0)
(-0.000447134 0.000653045 0)
(-0.000921146 0.00112596 0)
(-0.00155581 0.00161637 0)
(-0.00234339 0.0020904 0)
(-0.003272 0.00252804 0)
(-0.00432781 0.00291978 0)
(-0.00549684 0.00326353 0)
(-0.0067659 0.00356202 0)
(-0.00812324 0.00382088 0)
(-0.00955896 0.00404715 0)
(-0.0110651 0.0042481 0)
(-0.0126354 0.00443046 0)
(-0.0142653 0.0045999 0)
(-0.0159514 0.00476069 0)
(-0.0176911 0.00491552 0)
(-0.0194822 0.00506552 0)
(-0.0213222 0.00521025 0)
(-0.023208 0.00534784 0)
(-0.0251359 0.00547517 0)
(-0.0271005 0.00558801 0)
(-0.0290952 0.00568127 0)
(-0.0311112 0.00574916 0)
(-0.0331383 0.00578543 0)
(-0.0351638 0.00578357 0)
(-0.0371732 0.00573701 0)
(-0.0391502 0.00563934 0)
(-0.0410765 0.00548451 0)
(-0.0429321 0.00526705 0)
(-0.0446958 0.00498229 0)
(-0.0463454 0.0046265 0)
(-0.0478577 0.00419718 0)
(-0.0492095 0.00369317 0)
(-0.0503776 0.00311485 0)
(-0.0513398 0.00246425 0)
(-0.0520746 0.00174522 0)
(-0.0525626 0.00096342 0)
(-0.0527863 0.000126414 0)
(-0.0527311 -0.000756398 0)
(-0.0523855 -0.00167387 0)
(-0.0517414 -0.00261321 0)
(-0.050795 -0.00356021 0)
(-0.0495465 -0.0044995 0)
(-0.0480009 -0.00541487 0)
(-0.0461676 -0.00628959 0)
(-0.0440609 -0.00710688 0)
(-0.0416999 -0.00785032 0)
(-0.0391082 -0.00850429 0)
(-0.0363137 -0.00905448 0)
(-0.0333484 -0.00948829 0)
(-0.0302477 -0.00979532 0)
(-0.0270501 -0.00996773 0)
(-0.0237962 -0.0100005 0)
(-0.0205281 -0.00989187 0)
(-0.0172885 -0.00964313 0)
(-0.0141199 -0.00925898 0)
(-0.0110637 -0.00874728 0)
(-0.00815904 -0.00811889 0)
(-0.00544211 -0.00738736 0)
(-0.00294536 -0.00656849 0)
(-0.000696666 -0.0056799 0)
(0.00128122 -0.00474048 0)
(0.00297117 -0.00376985 0)
(0.00436201 -0.00278787 0)
(0.00544871 -0.00181422 0)
(0.00623245 -0.000868058 0)
(0.00672059 3.21624e-05 0)
(0.00692651 0.000868663 0)
(0.00686943 0.00162419 0)
(0.00657426 0.00228163 0)
(0.00607136 0.00282358 0)
(0.00539646 0.00323174 0)
(0.00459053 0.0034865 0)
(0.00369991 0.00356674 0)
(0.00277652 0.00345026 0)
(0.00187713 0.00311508 0)
(0.00106271 0.00254201 0)
(0.000417128 0.00171868 0)
(7.48125e-05 0.000647315 0)
(-2.67606e-05 8.03401e-05 0)
(-0.000208265 0.000518003 0)
(-0.000625619 0.00110574 0)
(-0.00124715 0.00175769 0)
(-0.00205565 0.00241739 0)
(-0.00303781 0.00304775 0)
(-0.00417746 0.00362706 0)
(-0.00545768 0.00414545 0)
(-0.00686244 0.00460145 0)
(-0.00837722 0.0049992 0)
(-0.00998948 0.00534616 0)
(-0.0116888 0.00565135 0)
(-0.0134671 0.00592399 0)
(-0.015318 0.00617258 0)
(-0.0172368 0.00640416 0)
(-0.0192202 0.00662399 0)
(-0.0212653 0.00683527 0)
(-0.0233697 0.00703915 0)
(-0.0255305 0.00723477 0)
(-0.0277441 0.00741943 0)
(-0.0300058 0.00758877 0)
(-0.0323094 0.00773701 0)
(-0.0346468 0.00785729 0)
(-0.0370079 0.00794183 0)
(-0.0393805 0.00798231 0)
(-0.0417502 0.00797009 0)
(-0.0441002 0.00789654 0)
(-0.0464119 0.00775327 0)
(-0.0486644 0.00753246 0)
(-0.0508353 0.00722709 0)
(-0.0529007 0.00683124 0)
(-0.0548356 0.00634034 0)
(-0.0566143 0.0057514 0)
(-0.0582111 0.00506328 0)
(-0.0596003 0.00427683 0)
(-0.0607571 0.00339511 0)
(-0.061658 0.00242347 0)
(-0.0622813 0.00136963 0)
(-0.0626078 0.00024371 0)
(-0.0626212 -0.000941851 0)
(-0.0623083 -0.00217239 0)
(-0.06166 -0.00343121 0)
(-0.0606712 -0.00469983 0)
(-0.0593415 -0.00595831 0)
(-0.0576752 -0.00718567 0)
(-0.0556815 -0.00836029 0)
(-0.053375 -0.00946045 0)
(-0.0507752 -0.0104649 0)
(-0.0479068 -0.0113532 0)
(-0.044799 -0.0121068 0)
(-0.0414858 -0.0127091 0)
(-0.0380051 -0.0131461 0)
(-0.0343985 -0.0134072 0)
(-0.03071 -0.0134853 0)
(-0.026986 -0.0133773 0)
(-0.0232739 -0.0130842 0)
(-0.0196211 -0.0126112 0)
(-0.0160742 -0.0119677 0)
(-0.0126781 -0.0111672 0)
(-0.00947464 -0.0102264 0)
(-0.00650181 -0.00916557 0)
(-0.00379292 -0.00800722 0)
(-0.00137578 -0.00677584 0)
(0.000727887 -0.00549712 0)
(0.00250293 -0.00419732 0)
(0.00394103 -0.00290265 0)
(0.0050409 -0.00163886 0)
(0.00580821 -0.000430929 0)
(0.00625552 0.000697014 0)
(0.00640206 0.00172156 0)
(0.00627352 0.00261967 0)
(0.00590177 0.00336818 0)
(0.00532463 0.00394321 0)
(0.0045858 0.0043196 0)
(0.00373487 0.00447057 0)
(0.00282773 0.00436789 0)
(0.00192598 0.00398267 0)
(0.0010966 0.00328694 0)
(0.000431833 0.00225609 0)
(7.74624e-05 0.000872438 0)
(-3.8188e-05 0.000202259 0)
(-0.000277699 0.000877335 0)
(-0.000811068 0.00169112 0)
(-0.00158698 0.00255406 0)
(-0.00257732 0.00340731 0)
(-0.00376243 0.00421259 0)
(-0.00512124 0.00494814 0)
(-0.00663331 0.00560498 0)
(-0.00828027 0.00618328 0)
(-0.0100462 0.00668925 0)
(-0.0119178 0.00713269 0)
(-0.0138843 0.00752493 0)
(-0.0159376 0.00787737 0)
(-0.0180715 0.00820032 0)
(-0.0202815 0.00850226 0)
(-0.0225643 0.00878934 0)
(-0.0249174 0.00906519 0)
(-0.027338 0.00933085 0)
(-0.0298232 0.00958484 0)
(-0.032369 0.00982341 0)
(-0.0349699 0.0100407 0)
(-0.0376189 0.0102293 0)
(-0.0403067 0.0103801 0)
(-0.0430218 0.0104833 0)
(-0.0457504 0.0105282 0)
(-0.0484763 0.0105038 0)
(-0.0511808 0.0103993 0)
(-0.0538429 0.0102042 0)
(-0.0564395 0.00990866 0)
(-0.0589459 0.00950418 0)
(-0.0613357 0.00898351 0)
(-0.0635815 0.0083412 0)
(-0.065655 0.00757386 0)
(-0.067528 0.00668037 0)
(-0.0691724 0.00566217 0)
(-0.070561 0.00452339 0)
(-0.071668 0.00327104 0)
(-0.0724696 0.00191499 0)
(-0.0729442 0.000468066 0)
(-0.0730734 -0.00105411 0)
(-0.0728421 -0.00263323 0)
(-0.0722394 -0.00424848 0)
(-0.0712583 -0.00587692 0)
(-0.0698968 -0.00749383 0)
(-0.0681581 -0.00907318 0)
(-0.0660503 -0.0105881 0)
(-0.0635872 -0.0120117 0)
(-0.060788 -0.0133173 0)
(-0.0576775 -0.0144794 0)
(-0.0542858 -0.0154745 0)
(-0.0506482 -0.0162813 0)
(-0.0468044 -0.016882 0)
(-0.0427986 -0.0172623 0)
(-0.0386784 -0.0174126 0)
(-0.0344941 -0.0173277 0)
(-0.0302976 -0.0170079 0)
(-0.0261416 -0.0164585 0)
(-0.0220786 -0.0156901 0)
(-0.0181592 -0.0147184 0)
(-0.0144317 -0.0135636 0)
(-0.0109403 -0.0122501 0)
(-0.00772434 -0.0108058 0)
(-0.0048175 -0.00926113 0)
(-0.00224681 -0.00764838 0)
(-3.21612e-05 -0.00600083 0)
(0.00181415 -0.004352 0)
(0.00328761 -0.00273503 0)
(0.00439161 -0.00118227 0)
(0.00513725 0.000274963 0)
(0.0055432 0.00160629 0)
(0.0056354 0.002782 0)
(0.0054467 0.00377248 0)
(0.00501666 0.00454762 0)
(0.00439129 0.00507611 0)
(0.00362316 0.00532487 0)
(0.00277185 0.00525885 0)
(0.00190342 0.00484122 0)
(0.00109022 0.00403409 0)
(0.000430774 0.00279962 0)
(7.73272e-05 0.00110059 0)
(-4.972e-05 0.000360531 0)
(-0.000348576 0.00133017 0)
(-0.00100132 0.002414 0)
(-0.00193647 0.00352128 0)
(-0.00311444 0.0045931 0)
(-0.00450874 0.00559207 0)
(-0.00609297 0.00649814 0)
(-0.00784279 0.00730465 0)
(-0.00973731 0.00801451 0)
(-0.0117591 0.00863688 0)
(-0.0138942 0.00918445 0)
(-0.0161316 0.00967131 0)
(-0.0184634 0.0101113 0)
(-0.0208836 0.0105166 0)
(-0.0233882 0.0108972 0)
(-0.0259745 0.0112601 0)
(-0.02864 0.0116092 0)
(-0.0313823 0.0119452 0)
(-0.0341983 0.012266 0)
(-0.0370839 0.0125664 0)
(-0.040033 0.0128389 0)
(-0.0430379 0.0130741 0)
(-0.0460882 0.0132606 0)
(-0.0491714 0.013386 0)
(-0.0522721 0.0134373 0)
(-0.0553724 0.013401 0)
(-0.0584518 0.0132637 0)
(-0.0614873 0.0130128 0)
(-0.0644537 0.0126364 0)
(-0.067324 0.0121243 0)
(-0.0700694 0.0114678 0)
(-0.0726601 0.0106608 0)
(-0.0750656 0.00969921 0)
(-0.077255 0.00858211 0)
(-0.0791977 0.00731146 0)
(-0.0808641 0.00589252 0)
(-0.0822258 0.00433393 0)
(-0.0832562 0.00264778 0)
(-0.0839313 0.000849609 0)
(-0.08423 -0.00104171 0)
(-0.0841347 -0.00300422 0)
(-0.0836316 -0.00501286 0)
(-0.0827116 -0.0070401 0)
(-0.0813702 -0.00905627 0)
(-0.0796083 -0.0110301 0)
(-0.0774321 -0.0129291 0)
(-0.0748539 -0.0147208 0)
(-0.0718917 -0.0163727 0)
(-0.0685697 -0.0178538 0)
(-0.0649181 -0.0191347 0)
(-0.0609726 -0.0201892 0)
(-0.0567749 -0.0209945 0)
(-0.0523712 -0.0215322 0)
(-0.0478123 -0.0217891 0)
(-0.0431525 -0.0217576 0)
(-0.0384486 -0.0214361 0)
(-0.0337591 -0.0208298 0)
(-0.0291423 -0.0199497 0)
(-0.024656 -0.0188137 0)
(-0.020355 -0.0174451 0)
(-0.0162909 -0.0158727 0)
(-0.0125101 -0.0141297 0)
(-0.00905304 -0.0122531 0)
(-0.00595296 -0.0102821 0)
(-0.00323542 -0.00825796 0)
(-0.00091754 -0.00622212 0)
(0.000992208 -0.00421604 0)
(0.00249419 -0.00228031 0)
(0.00359751 -0.000454368 0)
(0.00431977 0.00122357 0)
(0.00468674 0.00271627 0)
(0.00473196 0.00398694 0)
(0.00449645 0.00499854 0)
(0.0040284 0.00571292 0)
(0.00338322 0.00609005 0)
(0.00262398 0.00608736 0)
(0.00182087 0.00565937 0)
(0.001051 0.0047577 0)
(0.000417449 0.0033312 0)
(7.52156e-05 0.00132457 0)
(-6.13619e-05 0.000555738 0)
(-0.000420557 0.00187854 0)
(-0.00119504 0.00327779 0)
(-0.00229283 0.00466379 0)
(-0.00366254 0.00597984 0)
(-0.00527053 0.00719152 0)
(-0.00708476 0.00828232 0)
(-0.00907681 0.00924945 0)
(-0.0112232 0.0100998 0)
(-0.0135049 0.0108463 0)
(-0.0159072 0.0115053 0)
(-0.0184192 0.0120942 0)
(-0.0210331 0.0126294 0)
(-0.0237437 0.0131253 0)
(-0.0265476 0.0135933 0)
(-0.0294426 0.0140412 0)
(-0.0324268 0.0144732 0)
(-0.0354982 0.0148894 0)
(-0.038654 0.0152867 0)
(-0.0418898 0.0156584 0)
(-0.0451993 0.015995 0)
(-0.0485742 0.0162848 0)
(-0.0520034 0.0165141 0)
(-0.0554731 0.0166677 0)
(-0.0589668 0.0167297 0)
(-0.0624649 0.0166841 0)
(-0.0659453 0.0165148 0)
(-0.0693831 0.0162069 0)
(-0.0727512 0.0157463 0)
(-0.0760202 0.0151209 0)
(-0.0791592 0.0143208 0)
(-0.082136 0.0133387 0)
(-0.0849176 0.0121702 0)
(-0.0874705 0.0108142 0)
(-0.0897615 0.00927314 0)
(-0.091758 0.00755343 0)
(-0.0934289 0.00566524 0)
(-0.0947444 0.00362281 0)
(-0.0956776 0.00144432 0)
(-0.096204 -0.000848132 0)
(-0.0963028 -0.00322899 0)
(-0.0959569 -0.00566888 0)
(-0.0951537 -0.00813562 0)
(-0.0938858 -0.0105945 0)
(-0.0921507 -0.0130086 0)
(-0.0899522 -0.0153399 0)
(-0.0872999 -0.0175496 0)
(-0.0842099 -0.0195991 0)
(-0.080705 -0.0214508 0)
(-0.0768146 -0.0230695 0)
(-0.0725748 -0.0244226 0)
(-0.0680279 -0.0254818 0)
(-0.0632224 -0.0262234 0)
(-0.0582121 -0.02663 0)
(-0.0530552 -0.0266902 0)
(-0.0478138 -0.0264003 0)
(-0.0425521 -0.0257639 0)
(-0.0373356 -0.0247925 0)
(-0.0322291 -0.023505 0)
(-0.0272959 -0.021928 0)
(-0.0225955 -0.0200944 0)
(-0.0181826 -0.0180431 0)
(-0.0141055 -0.0158178 0)
(-0.0104049 -0.0134655 0)
(-0.0071132 -0.0110358 0)
(-0.00425331 -0.00857917 0)
(-0.00183857 -0.00614637 0)
(0.000127611 -0.00378724 0)
(0.00165167 -0.00155034 0)
(0.00274966 0.000517281 0)
(0.00344683 0.00236993 0)
(0.0037772 0.00396279 0)
(0.00378312 0.00525109 0)
(0.00351488 0.00618916 0)
(0.00303073 0.00672933 0)
(0.00239711 0.00682094 0)
(0.00168814 0.00640944 0)
(0.00098519 0.00543582 0)
(0.000394642 0.00383611 0)
(7.17159e-05 0.00153887 0)
(-7.31278e-05 0.000788362 0)
(-0.000493427 0.00252393 0)
(-0.00139132 0.00428485 0)
(-0.00265407 0.00598466 0)
(-0.00421828 0.00757105 0)
(-0.00604299 0.00901471 0)
(-0.00809037 0.0103045 0)
(-0.0103278 0.0114431 0)
(-0.0127292 0.0124426 0)
(-0.0152739 0.013321 0)
(-0.0179468 0.0140989 0)
(-0.0207369 0.0147973 0)
(-0.0236369 0.0154359 0)
(-0.0266424 0.0160312 0)
(-0.029751 0.0165962 0)
(-0.0329611 0.0171394 0)
(-0.0362717 0.017665 0)
(-0.0396815 0.0181726 0)
(-0.0431879 0.0186578 0)
(-0.0467867 0.019112 0)
(-0.0504715 0.0195237 0)
(-0.0542335 0.0198785 0)
(-0.0580611 0.0201599 0)
(-0.0619394 0.0203499 0)
(-0.0658507 0.0204297 0)
(-0.0697741 0.0203802 0)
(-0.073686 0.0201827 0)
(-0.0775595 0.0198195 0)
(-0.0813657 0.0192744 0)
(-0.0850731 0.0185334 0)
(-0.0886484 0.017585 0)
(-0.0920571 0.0164206 0)
(-0.0952635 0.0150353 0)
(-0.0982314 0.0134278 0)
(-0.100925 0.011601 0)
(-0.103308 0.00956214 0)
(-0.105346 0.00732276 0)
(-0.107006 0.00489908 0)
(-0.108257 0.0023118 0)
(-0.109072 -0.000413971 0)
(-0.109425 -0.00324852 0)
(-0.109295 -0.00615886 0)
(-0.108666 -0.00910805 0)
(-0.107526 -0.0120561 0)
(-0.105869 -0.0149604 0)
(-0.103694 -0.0177768 0)
(-0.10101 -0.02046 0)
(-0.0978274 -0.0229647 0)
(-0.0941685 -0.0252462 0)
(-0.0900608 -0.0272623 0)
(-0.0855399 -0.0289734 0)
(-0.0806484 -0.0303445 0)
(-0.0754364 -0.0313459 0)
(-0.0699604 -0.0319544 0)
(-0.0642827 -0.0321541 0)
(-0.0584704 -0.0319377 0)
(-0.0525941 -0.0313066 0)
(-0.0467268 -0.0302715 0)
(-0.0409417 -0.0288522 0)
(-0.0353109 -0.0270777 0)
(-0.0299034 -0.0249851 0)
(-0.0247834 -0.0226189 0)
(-0.0200085 -0.02003 0)
(-0.0156285 -0.0172737 0)
(-0.0116836 -0.0144089 0)
(-0.008204 -0.0114961 0)
(-0.00520904 -0.00859641 0)
(-0.0027068 -0.00577008 0)
(-0.000694254 -0.00307603 0)
(0.000842523 -0.000571294 0)
(0.00192791 0.00168891 0)
(0.00259619 0.00365073 0)
(0.00289095 0.00526081 0)
(0.00286464 0.00646516 0)
(0.00257834 0.00720788 0)
(0.00210191 0.00742973 0)
(0.00151328 0.00706684 0)
(0.000897837 0.00604972 0)
(0.000364538 0.00430243 0)
(6.72649e-05 0.00173934 0)
(-8.50191e-05 0.00105881 0)
(-0.000566997 0.00326741 0)
(-0.0015894 0.00543678 0)
(-0.00301852 0.00748586 0)
(-0.00477886 0.00936899 0)
(-0.00682205 0.011064 0)
(-0.00910446 0.0125672 0)
(-0.0115893 0.0138883 0)
(-0.0142477 0.0150459 0)
(-0.0170579 0.016064 0)
(-0.020004 0.0169683 0)
(-0.0230754 0.0177844 0)
(-0.0262655 0.018535 0)
(-0.0295707 0.0192394 0)
(-0.0329898 0.019912 0)
(-0.0365223 0.0205622 0)
(-0.0401682 0.0211938 0)
(-0.0439268 0.0218058 0)
(-0.0477963 0.0223921 0)
(-0.0517726 0.0229423 0)
(-0.0558495 0.0234422 0)
(-0.0600179 0.0238748 0)
(-0.0642655 0.0242203 0)
(-0.0685768 0.0244578 0)
(-0.072933 0.0245651 0)
(-0.077312 0.0245201 0)
(-0.0816884 0.024301 0)
(-0.0860338 0.0238875 0)
(-0.0903173 0.0232609 0)
(-0.0945052 0.0224049 0)
(-0.098562 0.0213063 0)
(-0.10245 0.0199554 0)
(-0.106132 0.0183463 0)
(-0.109568 0.0164773 0)
(-0.112719 0.0143516 0)
(-0.115545 0.0119769 0)
(-0.118009 0.00936613 0)
(-0.120074 0.00653723 0)
(-0.121703 0.00351322 0)
(-0.122866 0.000322146 0)
(-0.123533 -0.00300277 0)
(-0.123678 -0.0064245 0)
(-0.123279 -0.00990136 0)
(-0.122322 -0.0133881 0)
(-0.120794 -0.0168363 0)
(-0.118692 -0.0201953 0)
(-0.116018 -0.0234129 0)
(-0.112781 -0.0264365 0)
(-0.109 -0.029214 0)
(-0.1047 -0.0316949 0)
(-0.0999142 -0.0338319 0)
(-0.0946862 -0.0355822 0)
(-0.0890665 -0.0369087 0)
(-0.0831138 -0.0377811 0)
(-0.0768939 -0.0381779 0)
(-0.0704791 -0.0380868 0)
(-0.0639466 -0.0375056 0)
(-0.0573771 -0.0364432 0)
(-0.050853 -0.0349194 0)
(-0.0444563 -0.0329649 0)
(-0.0382668 -0.0306206 0)
(-0.0323596 -0.0279368 0)
(-0.0268033 -0.0249716 0)
(-0.0216581 -0.0217894 0)
(-0.0169742 -0.0184593 0)
(-0.0127904 -0.0150529 0)
(-0.00913326 -0.0116428 0)
(-0.00601695 -0.00830139 0)
(-0.00344276 -0.00509915 0)
(-0.0013996 -0.00210449 0)
(0.000135572 0.00061654 0)
(0.00119702 0.00299991 0)
(0.00182952 0.00498266 0)
(0.0020877 0.00650168 0)
(0.00203562 0.00749215 0)
(0.00174665 0.00788583 0)
(0.00130261 0.00760944 0)
(0.000792911 0.0065833 0)
(0.000328833 0.00472041 0)
(6.21937e-05 0.00192283 0)
(-9.70206e-05 0.00136741 0)
(-0.000641048 0.00410969 0)
(-0.00178852 0.0067345 0)
(-0.00338463 0.00916847 0)
(-0.00534169 0.0113748 0)
(-0.00760398 0.0133407 0)
(-0.0101221 0.0150718 0)
(-0.0128552 0.0165864 0)
(-0.0157717 0.0179112 0)
(-0.0188488 0.0190773 0)
(-0.0220702 0.0201164 0)
(-0.0254256 0.0210588 0)
(-0.0289094 0.0219313 0)
(-0.0325192 0.0227556 0)
(-0.0362549 0.0235478 0)
(-0.0401175 0.024318 0)
(-0.044108 0.0250698 0)
(-0.0482268 0.025801 0)
(-0.0524726 0.0265038 0)
(-0.0568421 0.0271656 0)
(-0.061329 0.0277694 0)
(-0.0659241 0.0282949 0)
(-0.0706147 0.0287193 0)
(-0.0753847 0.029018 0)
(-0.0802142 0.0291655 0)
(-0.0850797 0.0291363 0)
(-0.0899546 0.0289054 0)
(-0.0948086 0.0284493 0)
(-0.0996088 0.0277469 0)
(-0.104319 0.0267795 0)
(-0.108902 0.0255318 0)
(-0.113318 0.0239926 0)
(-0.117524 0.022155 0)
(-0.12148 0.0200166 0)
(-0.125141 0.0175805 0)
(-0.128465 0.0148549 0)
(-0.13141 0.0118536 0)
(-0.133935 0.00859619 0)
(-0.136 0.00510777 0)
(-0.137568 0.00141919 0)
(-0.138605 -0.0024335 0)
(-0.13908 -0.00640874 0)
(-0.138968 -0.0104603 0)
(-0.138246 -0.0145375 0)
(-0.136899 -0.0185862 0)
(-0.134918 -0.0225491 0)
(-0.1323 -0.0263666 0)
(-0.129051 -0.0299784 0)
(-0.125184 -0.0333239 0)
(-0.120722 -0.0363442 0)
(-0.115696 -0.0389831 0)
(-0.110147 -0.0411887 0)
(-0.104126 -0.042915 0)
(-0.0976938 -0.0441238 0)
(-0.0909183 -0.0447858 0)
(-0.0838766 -0.0448822 0)
(-0.0766522 -0.0444061 0)
(-0.0693339 -0.0433628 0)
(-0.0620135 -0.0417709 0)
(-0.054784 -0.039662 0)
(-0.0477372 -0.03708 0)
(-0.0409606 -0.0340808 0)
(-0.0345357 -0.03073 0)
(-0.028535 -0.0271015 0)
(-0.0230205 -0.0232755 0)
(-0.0180415 -0.019336 0)
(-0.0136339 -0.0153689 0)
(-0.00981922 -0.0114598 0)
(-0.00660434 -0.00769271 0)
(-0.00398197 -0.0041491 0)
(-0.00193109 -0.000907317 0)
(-0.000417826 0.00195703 0)
(0.000603661 0.00437022 0)
(0.00119022 0.00625904 0)
(0.00140906 0.00754906 0)
(0.00133727 0.00816263 0)
(0.00106082 0.00801694 0)
(0.000673401 0.00702247 0)
(0.000288817 0.00508202 0)
(5.67549e-05 0.00208697 0)
(-0.000109101 0.00171438 0)
(-0.000715311 0.00505106 0)
(-0.00198787 0.00817827 0)
(-0.00375076 0.0110326 0)
(-0.00590417 0.0135886 0)
(-0.00838507 0.0158449 0)
(-0.0111384 0.0178183 0)
(-0.0141194 0.0195378 0)
(-0.0172942 0.0210395 0)
(-0.0206387 0.0223624 0)
(-0.0241366 0.0235452 0)
(-0.0277783 0.0246237 0)
(-0.031559 0.0256287 0)
(-0.0354779 0.026585 0)
(-0.0395363 0.0275104 0)
(-0.0437365 0.0284154 0)
(-0.0480811 0.0293033 0)
(-0.0525714 0.0301706 0)
(-0.0572071 0.0310076 0)
(-0.0619853 0.0317989 0)
(-0.0669002 0.0325246 0)
(-0.0719423 0.0331609 0)
(-0.0770988 0.0336814 0)
(-0.0823526 0.0340578 0)
(-0.0876831 0.0342608 0)
(-0.0930655 0.0342612 0)
(-0.0984714 0.0340308 0)
(-0.103869 0.0335427 0)
(-0.109223 0.0327728 0)
(-0.114496 0.0316997 0)
(-0.119646 0.0303062 0)
(-0.124632 0.0285791 0)
(-0.129407 0.02651 0)
(-0.133928 0.0240958 0)
(-0.138147 0.0213393 0)
(-0.142017 0.0182486 0)
(-0.145492 0.0148385 0)
(-0.148526 0.0111298 0)
(-0.151076 0.00714939 0)
(-0.1531 0.00293075 0)
(-0.154558 -0.00148682 0)
(-0.155415 -0.00605793 0)
(-0.15564 -0.0107318 0)
(-0.155205 -0.0154526 0)
(-0.15409 -0.0201601 0)
(-0.15228 -0.0247901 0)
(-0.149767 -0.0292759 0)
(-0.146551 -0.0335487 0)
(-0.142642 -0.0375393 0)
(-0.138057 -0.0411793 0)
(-0.132824 -0.0444027 0)
(-0.126982 -0.0471476 0)
(-0.12058 -0.0493579 0)
(-0.113678 -0.0509854 0)
(-0.106347 -0.0519916 0)
(-0.0986669 -0.0523495 0)
(-0.0907268 -0.0520452 0)
(-0.0826233 -0.051079 0)
(-0.0744581 -0.0494665 0)
(-0.0663355 -0.0472387 0)
(-0.0583603 -0.0444418 0)
(-0.0506342 -0.0411362 0)
(-0.0432531 -0.0373953 0)
(-0.0363044 -0.0333029 0)
(-0.0298638 -0.0289513 0)
(-0.0239938 -0.0244381 0)
(-0.0187416 -0.019864 0)
(-0.0141379 -0.01533 0)
(-0.0101971 -0.0109355 0)
(-0.00691697 -0.00677705 0)
(-0.00427939 -0.00294708 0)
(-0.00225145 0.000465506 0)
(-0.00078652 0.00337479 0)