/*--------------------------------*- C++ -*----------------------------------*\
  =========                 |
  \\      /  F ield         | OpenFOAM: The Open Source CFD Toolbox
   \\    /   O peration     | Website:  https://openfoam.org
    \\  /    A nd           | Version:  7
     \\/     M anipulation  |
\*---------------------------------------------------------------------------*/
FoamFile
{
    version     2.0;
    format      ascii;
    class       surfaceScalarField;
    location    "0.325";
    object      phi;
}
// * * * * * * * * * * * * * * * * * * * * * * * * * * * * * * * * * * * * * //

dimensions      [0 3 -1 0 0 0 0];

internalField   nonuniform List<scalar> 
12640
(
1.37701e-10
-1.37917e-10
1.37056e-10
6.44223e-13
-1.02138e-10
2.39186e-10
-5.88402e-10
4.86256e-10
-1.29414e-09
7.05747e-10
-2.18257e-09
8.88453e-10
-3.21749e-09
1.03493e-09
-4.36674e-09
1.14925e-09
-5.60305e-09
1.23631e-09
-6.90382e-09
1.30078e-09
-8.25067e-09
1.34685e-09
-9.62878e-09
1.37811e-09
-1.10264e-08
1.39758e-09
-1.24341e-08
1.40774e-09
-1.38447e-08
1.41059e-09
-1.52524e-08
1.4077e-09
-1.66527e-08
1.40028e-09
-1.80419e-08
1.38925e-09
-1.94171e-08
1.37522e-09
-2.07757e-08
1.3586e-09
-2.21153e-08
1.3396e-09
-2.34336e-08
1.31832e-09
-2.47284e-08
1.29474e-09
-2.59971e-08
1.26874e-09
-2.72373e-08
1.24016e-09
-2.8446e-08
1.20876e-09
-2.96204e-08
1.17433e-09
-3.0757e-08
1.1366e-09
-3.18523e-08
1.09531e-09
-3.29025e-08
1.05021e-09
-3.39035e-08
1.00106e-09
-3.48512e-08
9.47619e-10
-3.57408e-08
8.8968e-10
-3.65679e-08
8.27065e-10
-3.73275e-08
7.59626e-10
-3.80148e-08
6.87251e-10
-3.86246e-08
6.09872e-10
-3.91521e-08
5.27469e-10
-3.95922e-08
4.40074e-10
-3.99399e-08
3.47783e-10
-4.01907e-08
2.50754e-10
-4.03399e-08
1.49213e-10
-4.03834e-08
4.34623e-11
-4.03172e-08
-6.61328e-11
-4.01381e-08
-1.79102e-10
-3.98432e-08
-2.94921e-10
-3.94302e-08
-4.12974e-10
-3.88977e-08
-5.32569e-10
-3.82447e-08
-6.52942e-10
-3.74715e-08
-7.73258e-10
-3.65788e-08
-8.92617e-10
-3.55688e-08
-1.01007e-09
-3.44442e-08
-1.1246e-09
-3.3209e-08
-1.23517e-09
-3.18683e-08
-1.34071e-09
-3.04282e-08
-1.44012e-09
-2.88959e-08
-1.53229e-09
-2.72798e-08
-1.6161e-09
-2.55894e-08
-1.69045e-09
-2.38351e-08
-1.75423e-09
-2.20288e-08
-1.80634e-09
-2.01831e-08
-1.8457e-09
-1.83119e-08
-1.87124e-09
-1.643e-08
-1.88189e-09
-1.45534e-08
-1.87662e-09
-1.2699e-08
-1.85435e-09
-1.0885e-08
-1.81405e-09
-9.13031e-09
-1.75464e-09
-7.45528e-09
-1.67504e-09
-5.88112e-09
-1.57416e-09
-4.43023e-09
-1.4509e-09
-3.12599e-09
-1.30424e-09
-1.99269e-09
-1.13331e-09
-1.05495e-09
-9.37752e-10
-3.36578e-10
-7.18377e-10
1.42272e-10
-4.78854e-10
3.7133e-10
-2.29064e-10
3.65059e-10
6.26808e-12
1.814e-10
1.83659e-10
1.814e-10
6.61756e-13
-1.38579e-10
-3.77952e-10
3.79265e-10
-1.2918e-09
1.15305e-09
-2.75329e-09
1.94776e-09
-4.72196e-09
2.67441e-09
-7.1328e-09
3.29931e-09
-9.91353e-09
3.81567e-09
-1.29941e-08
4.22982e-09
-1.6311e-08
4.55324e-09
-1.9809e-08
4.79877e-09
-2.34411e-08
4.97892e-09
-2.71681e-08
5.10508e-09
-3.09577e-08
5.18721e-09
-3.47837e-08
5.23378e-09
-3.86249e-08
5.2518e-09
-4.24642e-08
5.24693e-09
-4.62875e-08
5.22363e-09
-5.00836e-08
5.18529e-09
-5.38427e-08
5.13436e-09
-5.75566e-08
5.07249e-09
-6.12177e-08
5.0007e-09
-6.48189e-08
4.91949e-09
-6.8353e-08
4.82892e-09
-7.18131e-08
4.72876e-09
-7.51914e-08
4.61852e-09
-7.84803e-08
4.49756e-09
-8.1671e-08
4.36511e-09
-8.47548e-08
4.22034e-09
-8.77219e-08
4.06241e-09
-9.05621e-08
3.89046e-09
-9.32647e-08
3.70367e-09
-9.58184e-08
3.50129e-09
-9.82113e-08
3.28261e-09
-1.00431e-07
3.04705e-09
-1.02466e-07
2.79413e-09
-1.04302e-07
2.5235e-09
-1.05927e-07
2.23497e-09
-1.07328e-07
1.92852e-09
-1.08492e-07
1.60432e-09
-1.09407e-07
1.26274e-09
-1.10061e-07
9.04403e-10
-1.10442e-07
5.3015e-10
-1.1054e-07
1.41086e-10
-1.10344e-07
-2.61412e-10
-1.09848e-07
-6.75709e-10
-1.09043e-07
-1.09987e-09
-1.07924e-07
-1.53172e-09
-1.06488e-07
-1.96877e-09
-1.04732e-07
-2.4083e-09
-1.02658e-07
-2.84736e-09
-1.00268e-07
-3.28276e-09
-9.75671e-08
-3.71111e-09
-9.45628e-08
-4.12885e-09
-9.12657e-08
-4.53228e-09
-8.76888e-08
-4.91758e-09
-8.38481e-08
-5.28085e-09
-7.97622e-08
-5.61812e-09
-7.5453e-08
-5.92539e-09
-7.09448e-08
-6.19866e-09
-6.62651e-08
-6.43392e-09
-6.14442e-08
-6.62719e-09
-5.65154e-08
-6.7745e-09
-5.15147e-08
-6.87191e-09
-4.64811e-08
-6.91552e-09
-4.14563e-08
-6.90144e-09
-3.64848e-08
-6.82581e-09
-3.16141e-08
-6.68481e-09
-2.6894e-08
-6.47466e-09
-2.23774e-08
-6.19168e-09
-1.81192e-08
-5.83238e-09
-1.41765e-08
-5.39363e-09
-1.06076e-08
-4.8731e-09
-7.471e-09
-4.26994e-09
-4.82266e-09
-3.58611e-09
-2.71205e-09
-2.82899e-09
-1.17469e-09
-2.01622e-09
-2.19218e-10
-1.18454e-09
1.91791e-10
-4.0475e-10
1.80773e-10
1.94669e-10
3.62172e-10
-2.40673e-10
1.02087e-10
-1.16242e-09
1.30099e-09
-2.84721e-09
2.83785e-09
-5.29239e-09
4.39296e-09
-8.44439e-09
5.82641e-09
-1.2222e-08
7.0769e-09
-1.65331e-08
8.12678e-09
-2.12854e-08
8.98215e-09
-2.63925e-08
9.66036e-09
-3.17768e-08
1.01831e-08
-3.73706e-08
1.05727e-08
-4.3116e-08
1.08505e-08
-4.89644e-08
1.10356e-08
-5.48752e-08
1.11446e-08
-6.0815e-08
1.11916e-08
-6.67564e-08
1.11883e-08
-7.26765e-08
1.11438e-08
-7.85566e-08
1.10653e-08
-8.43803e-08
1.09581e-08
-9.01337e-08
1.08259e-08
-9.58039e-08
1.06709e-08
-1.01379e-07
1.04946e-08
-1.06847e-07
1.02972e-08
-1.12197e-07
1.00785e-08
-1.17416e-07
9.83772e-09
-1.22492e-07
9.57359e-09
-1.27412e-07
9.28472e-09
-1.32161e-07
8.96954e-09
-1.36725e-07
8.62639e-09
-1.41088e-07
8.25361e-09
-1.45234e-07
7.84961e-09
-1.49146e-07
7.4129e-09
-1.52805e-07
6.94214e-09
-1.56194e-07
6.43618e-09
-1.59294e-07
5.89412e-09
-1.62086e-07
5.31532e-09
-1.64551e-07
4.69946e-09
-1.66669e-07
4.04659e-09
-1.68422e-07
3.35713e-09
-1.69791e-07
2.63195e-09
-1.70759e-07
1.87238e-09
-1.71309e-07
1.08022e-09
-1.71426e-07
2.57848e-10
-1.71095e-07
-5.91866e-10
-1.70305e-07
-1.46548e-09
-1.69046e-07
-2.35898e-09
-1.6731e-07
-3.2678e-09
-1.65092e-07
-4.18685e-09
-1.6239e-07
-5.11049e-09
-1.59205e-07
-6.0326e-09
-1.55541e-07
-6.94662e-09
-1.51406e-07
-7.84556e-09
-1.46813e-07
-8.7221e-09
-1.41777e-07
-9.56859e-09
-1.36317e-07
-1.03772e-08
-1.30458e-07
-1.11398e-08
-1.24228e-07
-1.18482e-08
-1.17659e-07
-1.24942e-08
-1.10788e-07
-1.30695e-08
-1.03657e-07
-1.35656e-08
-9.63096e-08
-1.39744e-08
-8.87966e-08
-1.42875e-08
-8.11719e-08
-1.44966e-08
-7.34937e-08
-1.45937e-08
-6.58245e-08
-1.45706e-08
-5.82309e-08
-1.44194e-08
-5.07835e-08
-1.41322e-08
-4.35567e-08
-1.37015e-08
-3.66283e-08
-1.31201e-08
-3.00792e-08
-1.23815e-08
-2.39921e-08
-1.14807e-08
-1.84505e-08
-1.04148e-08
-1.35358e-08
-9.18466e-09
-9.32385e-09
-7.79802e-09
-5.87894e-09
-6.27392e-09
-3.24418e-09
-4.65098e-09
-1.42785e-09
-3.00087e-09
-3.84756e-10
-1.44785e-09
1.01437e-11
-2.00236e-10
3.72316e-10
-4.97321e-10
5.99412e-10
-1.99135e-09
2.79499e-09
-4.46891e-09
5.31539e-09
-7.88254e-09
7.8066e-09
-1.21538e-08
1.00977e-08
-1.71845e-08
1.21076e-08
-2.2868e-08
1.38103e-08
-2.90974e-08
1.52115e-08
-3.57711e-08
1.63341e-08
-4.27968e-08
1.72087e-08
-5.0092e-08
1.78679e-08
-5.75852e-08
1.83437e-08
-6.52151e-08
1.86655e-08
-7.293e-08
1.88595e-08
-8.06863e-08
1.8948e-08
-8.84477e-08
1.89497e-08
-9.61837e-08
1.88798e-08
-1.03868e-07
1.87501e-08
-1.1148e-07
1.85695e-08
-1.18998e-07
1.83443e-08
-1.26406e-07
1.80787e-08
-1.33687e-07
1.77752e-08
-1.40824e-07
1.74346e-08
-1.47802e-07
1.70567e-08
-1.54605e-07
1.66404e-08
-1.61215e-07
1.6184e-08
-1.67616e-07
1.56854e-08
-1.73788e-07
1.51421e-08
-1.79714e-07
1.45515e-08
-1.85371e-07
1.39112e-08
-1.9074e-07
1.32185e-08
-1.95798e-07
1.24712e-08
-2.00523e-07
1.16671e-08
-2.04892e-07
1.08046e-08
-2.0888e-07
9.8822e-09
-2.12464e-07
8.89899e-09
-2.15619e-07
7.85457e-09
-2.18321e-07
6.74914e-09
-2.20548e-07
5.5835e-09
-2.22275e-07
4.3592e-09
-2.23481e-07
3.07854e-09
-2.24145e-07
1.74462e-09
-2.24249e-07
3.6142e-10
-2.23775e-07
-1.06623e-09
-2.22707e-07
-2.53255e-09
-2.21036e-07
-4.03089e-09
-2.1875e-07
-5.55367e-09
-2.15844e-07
-7.09242e-09
-2.12317e-07
-8.63784e-09
-2.0817e-07
-1.01798e-08
-2.03409e-07
-1.17075e-08
-1.98045e-07
-1.32094e-08
-1.92093e-07
-1.46735e-08
-1.85575e-07
-1.60871e-08
-1.78515e-07
-1.74372e-08
-1.70944e-07
-1.87107e-08
-1.62898e-07
-1.98939e-08
-1.54419e-07
-2.09732e-08
-1.45554e-07
-2.19349e-08
-1.36354e-07
-2.27651e-08
-1.26879e-07
-2.34502e-08
-1.1719e-07
-2.39764e-08
-1.07356e-07
-2.43302e-08
-9.74515e-08
-2.44981e-08
-8.75553e-08
-2.44669e-08
-7.77512e-08
-2.42235e-08
-6.81282e-08
-2.37553e-08
-5.87793e-08
-2.30504e-08
-4.98015e-08
-2.20979e-08
-4.12946e-08
-2.08884e-08
-3.33601e-08
-1.94152e-08
-2.60987e-08
-1.76761e-08
-1.96076e-08
-1.56758e-08
-1.39757e-08
-1.34299e-08
-9.27732e-09
-1.09723e-08
-5.56281e-09
-8.36549e-09
-2.84705e-09
-5.71663e-09
-1.09487e-09
-3.20004e-09
-2.0604e-10
-1.08907e-09
1.66275e-10
-7.35117e-10
1.33454e-09
-2.78074e-09
4.8406e-09
-6.02587e-09
8.5605e-09
-1.03655e-08
1.21462e-08
-1.56873e-08
1.54194e-08
-2.18722e-08
1.82926e-08
-2.87989e-08
2.0737e-08
-3.63486e-08
2.27612e-08
-4.44091e-08
2.43946e-08
-5.28771e-08
2.56767e-08
-6.16602e-08
2.6651e-08
-7.06768e-08
2.73603e-08
-7.98564e-08
2.78451e-08
-8.91383e-08
2.81414e-08
-9.84711e-08
2.82808e-08
-1.07811e-07
2.82898e-08
-1.17121e-07
2.81901e-08
-1.2637e-07
2.79988e-08
-1.3553e-07
2.77291e-08
-1.44576e-07
2.73905e-08
-1.53487e-07
2.69893e-08
-1.62241e-07
2.65292e-08
-1.70818e-07
2.60121e-08
-1.79199e-07
2.54379e-08
-1.87364e-07
2.48052e-08
-1.95292e-07
2.41119e-08
-2.02962e-07
2.33551e-08
-2.10351e-07
2.25315e-08
-2.17437e-07
2.16375e-08
-2.24196e-07
2.06696e-08
-2.30602e-07
1.96243e-08
-2.36629e-07
1.84985e-08
-2.42251e-07
1.72891e-08
-2.4744e-07
1.59938e-08
-2.52169e-07
1.46108e-08
-2.56408e-07
1.31388e-08
-2.60131e-07
1.15774e-08
-2.63309e-07
9.92709e-09
-2.65915e-07
8.18913e-09
-2.67922e-07
6.36593e-09
-2.69304e-07
4.46099e-09
-2.70038e-07
2.47898e-09
-2.70103e-07
4.25831e-10
-2.69478e-07
-1.69128e-09
-2.68146e-07
-3.86383e-09
-2.66095e-07
-6.08201e-09
-2.63314e-07
-8.33466e-09
-2.59797e-07
-1.06094e-08
-2.55543e-07
-1.28925e-08
-2.50553e-07
-1.51693e-08
-2.44837e-07
-1.74239e-08
-2.38407e-07
-1.96394e-08
-2.31282e-07
-2.17982e-08
-2.23487e-07
-2.38819e-08
-2.15053e-07
-2.58717e-08
-2.06016e-07
-2.7748e-08
-1.96418e-07
-2.94912e-08
-1.8631e-07
-3.10813e-08
-1.75747e-07
-3.24983e-08
-1.6479e-07
-3.37221e-08
-1.53507e-07
-3.47326e-08
-1.41974e-07
-3.551e-08
-1.30269e-07
-3.60346e-08
-1.18481e-07
-3.62868e-08
-1.067e-07
-3.62477e-08
-9.50249e-08
-3.58986e-08
-8.35582e-08
-3.5222e-08
-7.24075e-08
-3.42011e-08
-6.16839e-08
-3.28214e-08
-5.15013e-08
-3.1071e-08
-4.19741e-08
-2.89424e-08
-3.32154e-08
-2.64348e-08
-2.53332e-08
-2.35579e-08
-1.8426e-08
-2.03371e-08
-1.25766e-08
-1.68217e-08
-7.84456e-09
-1.30975e-08
-4.25753e-09
-9.30366e-09
-1.80234e-09
-5.65523e-09
-4.1837e-10
-2.47304e-09
-2.52095e-10
-9.44927e-10
2.27946e-09
-3.49755e-09
7.39322e-09
-7.45805e-09
1.2521e-08
-1.26618e-08
1.735e-08
-1.89581e-08
2.17157e-08
-2.62032e-08
2.55377e-08
-3.42599e-08
2.87936e-08
-4.29975e-08
3.14989e-08
-5.22946e-08
3.36917e-08
-6.20398e-08
3.54219e-08
-7.21329e-08
3.67441e-08
-8.24852e-08
3.77127e-08
-9.30192e-08
3.83791e-08
-1.03668e-07
3.87899e-08
-1.14373e-07
3.89861e-08
-1.25086e-07
3.90025e-08
-1.35763e-07
3.88677e-08
-1.46369e-07
3.86048e-08
-1.56871e-07
3.82313e-08
-1.67241e-07
3.77603e-08
-1.77453e-07
3.72005e-08
-1.87481e-07
3.65575e-08
-1.97302e-07
3.58337e-08
-2.06894e-07
3.50295e-08
-2.16232e-07
3.41436e-08
-2.25293e-07
3.31731e-08
-2.34053e-07
3.21146e-08
-2.42485e-07
3.09639e-08
-2.50564e-07
2.97163e-08
-2.58262e-07
2.83674e-08
-2.6555e-07
2.69126e-08
-2.724e-07
2.53479e-08
-2.7878e-07
2.36695e-08
-2.84661e-07
2.18744e-08
-2.9001e-07
1.99603e-08
-2.94797e-07
1.79256e-08
-2.98989e-07
1.577e-08
-3.02557e-07
1.34942e-08
-3.05468e-07
1.11003e-08
-3.07693e-07
8.59163e-09
-3.09206e-07
5.97306e-09
-3.09978e-07
3.25108e-09
-3.09986e-07
4.33856e-10
-3.09208e-07
-2.46875e-09
-3.07627e-07
-5.4451e-09
-3.05227e-07
-8.48178e-09
-3.01998e-07
-1.15636e-08
-2.97934e-07
-1.46737e-08
-2.93033e-07
-1.77935e-08
-2.87299e-07
-2.09029e-08
-2.80743e-07
-2.39805e-08
-2.73379e-07
-2.70033e-08
-2.65229e-07
-2.99475e-08
-2.56323e-07
-3.27882e-08
-2.46695e-07
-3.54997e-08
-2.36387e-07
-3.80558e-08
-2.25449e-07
-4.04297e-08
-2.13936e-07
-4.25946e-08
-2.01911e-07
-4.45233e-08
-1.89444e-07
-4.61888e-08
-1.76612e-07
-4.75641e-08
-1.635e-07
-4.86226e-08
-1.50196e-07
-4.93379e-08
-1.36799e-07
-4.96841e-08
-1.23411e-07
-4.9636e-08
-1.1014e-07
-4.91693e-08
-9.71009e-08
-4.82612e-08
-8.44116e-08
-4.68905e-08
-7.21939e-08
-4.50391e-08
-6.05719e-08
-4.26931e-08
-4.96696e-08
-3.98447e-08
-3.9609e-08
-3.64955e-08
-3.05061e-08
-3.26608e-08
-2.24673e-08
-2.83758e-08
-1.55841e-08
-2.3705e-08
-9.927e-09
-1.87546e-08
-5.54057e-09
-1.36901e-08
-2.43863e-09
-8.75717e-09
-6.03941e-10
-4.30774e-09
-8.56038e-10
-1.12644e-09
3.40588e-09
-4.13273e-09
1.03995e-08
-8.74376e-09
1.7132e-08
-1.47389e-08
2.33452e-08
-2.19283e-08
2.89051e-08
-3.0142e-08
3.37514e-08
-3.92246e-08
3.78762e-08
-4.90335e-08
4.13078e-08
-5.9438e-08
4.40963e-08
-7.03198e-08
4.63037e-08
-8.15725e-08
4.79968e-08
-9.31019e-08
4.9242e-08
-1.04825e-07
5.01022e-08
-1.1667e-07
5.06347e-08
-1.28574e-07
5.08903e-08
-1.40484e-07
5.09121e-08
-1.52352e-07
5.07361e-08
-1.64139e-07
5.03913e-08
-1.75807e-07
4.99002e-08
-1.87326e-07
4.92794e-08
-1.98666e-07
4.85403e-08
-2.09799e-07
4.76901e-08
-2.20698e-07
4.67326e-08
-2.31337e-07
4.56685e-08
-2.41689e-07
4.44963e-08
-2.51729e-07
4.32129e-08
-2.61429e-07
4.1814e-08
-2.70759e-07
4.02946e-08
-2.79692e-07
3.86491e-08
-2.88197e-07
3.68719e-08
-2.96241e-07
3.49575e-08
-3.03794e-07
3.2901e-08
-3.10823e-07
3.06976e-08
-3.17292e-07
2.83438e-08
-3.23168e-07
2.58367e-08
-3.28418e-07
2.31747e-08
-3.33005e-07
2.03574e-08
-3.36897e-07
1.7386e-08
-3.40059e-07
1.42631e-08
-3.42461e-07
1.09934e-08
-3.44071e-07
7.58335e-09
-3.44862e-07
4.04134e-09
-3.44806e-07
3.78051e-10
-3.43881e-07
-3.3937e-09
-3.42067e-07
-7.2588e-09
-3.39349e-07
-1.11999e-08
-3.35716e-07
-1.51973e-08
-3.3116e-07
-1.92292e-08
-3.25682e-07
-2.32717e-08
-3.19286e-07
-2.72987e-08
-3.11984e-07
-3.12826e-08
-3.03793e-07
-3.51939e-08
-2.94739e-07
-3.90016e-08
-2.84854e-07
-4.26739e-08
-2.74176e-07
-4.61775e-08
-2.62753e-07
-4.94788e-08
-2.50639e-07
-5.25433e-08
-2.37897e-07
-5.53366e-08
-2.24597e-07
-5.78238e-08
-2.10815e-07
-5.99705e-08
-1.96637e-07
-6.17422e-08
-1.82154e-07
-6.31051e-08
-1.67467e-07
-6.40258e-08
-1.52679e-07
-6.44718e-08
-1.37903e-07
-6.44116e-08
-1.23257e-07
-6.38154e-08
-1.08863e-07
-6.26549e-08
-9.48488e-08
-6.0905e-08
-8.13435e-08
-5.85444e-08
-6.8479e-08
-5.55576e-08
-5.63866e-08
-5.1937e-08
-4.51951e-08
-4.76871e-08
-3.50272e-08
-4.28287e-08
-2.59966e-08
-3.74064e-08
-1.82035e-08
-3.14981e-08
-1.17308e-08
-2.52273e-08
-6.6411e-09
-1.87798e-08
-2.9753e-09
-1.2423e-08
-7.55539e-10
-6.5275e-09
-1.61158e-09
-1.28236e-09
4.68822e-09
-4.68861e-09
1.38058e-08
-9.88188e-09
2.23253e-08
-1.65918e-08
3.00551e-08
-2.45912e-08
3.69045e-08
-3.36835e-08
4.28436e-08
-4.36947e-08
4.78875e-08
-5.44694e-08
5.20824e-08
-6.58676e-08
5.54945e-08
-7.77641e-08
5.82002e-08
-9.00471e-08
6.02798e-08
-1.02618e-07
6.18127e-08
-1.15389e-07
6.28737e-08
-1.28286e-07
6.35311e-08
-1.41241e-07
6.38456e-08
-1.54198e-07
6.38691e-08
-1.67107e-07
6.36449e-08
-1.79924e-07
6.32082e-08
-1.9261e-07
6.25863e-08
-2.0513e-07
6.17997e-08
-2.17452e-07
6.08625e-08
-2.29546e-07
5.9784e-08
-2.41382e-07
5.85688e-08
-2.52932e-07
5.72182e-08
-2.64167e-07
5.57308e-08
-2.75057e-07
5.41031e-08
-2.85573e-07
5.233e-08
-2.95684e-07
5.04056e-08
-3.05358e-07
4.83234e-08
-3.14563e-07
4.60767e-08
-3.23265e-07
4.36591e-08
-3.31428e-07
4.10645e-08
-3.39018e-07
3.82875e-08
-3.45998e-07
3.53236e-08
-3.52331e-07
3.21698e-08
-3.5798e-07
2.8824e-08
-3.62909e-07
2.5286e-08
-3.6708e-07
2.15575e-08
-3.70459e-07
1.76419e-08
-3.73011e-07
1.3545e-08
-3.74702e-07
9.27503e-09
-3.75503e-07
4.84256e-09
-3.75386e-07
2.60931e-10
-3.74326e-07
-4.45384e-09
-3.72302e-07
-9.28288e-09
-3.69297e-07
-1.42045e-08
-3.653e-07
-1.91943e-08
-3.60305e-07
-2.42249e-08
-3.5431e-07
-2.92666e-08
-3.47322e-07
-3.42869e-08
-3.39353e-07
-3.92513e-08
-3.30424e-07
-4.41232e-08
-3.20561e-07
-4.88641e-08
-3.09801e-07
-5.3434e-08
-2.98187e-07
-5.77919e-08
-2.8577e-07
-6.18958e-08
-2.7261e-07
-6.57031e-08
-2.58775e-07
-6.9171e-08
-2.44343e-07
-7.22567e-08
-2.29396e-07
-7.49174e-08
-2.14027e-07
-7.71111e-08
-1.98335e-07
-7.87964e-08
-1.82429e-07
-7.99327e-08
-1.66419e-07
-8.04809e-08
-1.50428e-07
-8.04033e-08
-1.34579e-07
-7.96642e-08
-1.19003e-07
-7.82308e-08
-1.03834e-07
-7.60741e-08
-8.92083e-08
-7.31701e-08
-7.52639e-08
-6.9502e-08
-6.21379e-08
-6.50631e-08
-4.99645e-08
-5.98604e-08
-3.88726e-08
-5.39205e-08
-2.89827e-08
-4.72964e-08
-2.04036e-08
-4.00771e-08
-1.32306e-08
-3.24003e-08
-7.5433e-09
-2.44671e-08
-3.4063e-09
-1.656e-08
-8.73115e-10
-9.06069e-09
-2.4847e-09
-1.41604e-09
6.10426e-09
-5.17201e-09
1.75617e-08
-1.0881e-08
2.80343e-08
-1.82299e-08
3.74039e-08
-2.69576e-08
4.56322e-08
-3.68419e-08
5.2728e-08
-4.76905e-08
5.8736e-08
-5.93344e-08
6.37263e-08
-7.16245e-08
6.77845e-08
-8.44284e-08
7.10042e-08
-9.76295e-08
7.34809e-08
-1.11125e-07
7.5308e-08
-1.24824e-07
7.65729e-08
-1.38649e-07
7.73556e-08
-1.52529e-07
7.77265e-08
-1.66407e-07
7.77466e-08
-1.80229e-07
7.74667e-08
-1.93949e-07
7.69283e-08
-2.07526e-07
7.61635e-08
-2.20923e-07
7.51967e-08
-2.34106e-07
7.4045e-08
-2.47041e-07
7.27194e-08
-2.59698e-07
7.12257e-08
-2.72046e-07
6.95659e-08
-2.84053e-07
6.77384e-08
-2.9569e-07
6.57394e-08
-3.06923e-07
6.3563e-08
-3.1772e-07
6.12026e-08
-3.28047e-07
5.86505e-08
-3.37869e-07
5.58991e-08
-3.47151e-07
5.29407e-08
-3.55854e-07
4.97682e-08
-3.63942e-07
4.63755e-08
-3.71376e-07
4.27574e-08
-3.78116e-07
3.89101e-08
-3.84124e-07
3.48316e-08
-3.8936e-07
3.05216e-08
-3.93784e-07
2.59822e-08
-3.9736e-07
2.12178e-08
-4.00051e-07
1.62353e-08
-4.0182e-07
1.10449e-08
-4.02637e-07
5.65924e-09
-4.02471e-07
9.46256e-11
-4.01295e-07
-5.62954e-09
-3.99088e-07
-1.14904e-08
-3.9583e-07
-1.74616e-08
-3.91511e-07
-2.35136e-08
-3.86123e-07
-2.96132e-08
-3.79665e-07
-3.57242e-08
-3.72145e-07
-4.18074e-08
-3.63575e-07
-4.78207e-08
-3.53979e-07
-5.37197e-08
-3.43385e-07
-5.94576e-08
-3.31833e-07
-6.49861e-08
-3.1937e-07
-7.02553e-08
-3.06051e-07
-7.52143e-08
-2.91943e-07
-7.98117e-08
-2.77118e-07
-8.39957e-08
-2.6166e-07
-8.77149e-08
-2.45659e-07
-9.09182e-08
-2.29215e-07
-9.35552e-08
-2.12434e-07
-9.55768e-08
-1.95432e-07
-9.69353e-08
-1.78328e-07
-9.75846e-08
-1.6125e-07
-9.74812e-08
-1.4433e-07
-9.65839e-08
-1.27706e-07
-9.48557e-08
-1.11516e-07
-9.22639e-08
-9.59036e-08
-8.87824e-08
-8.1012e-08
-8.43936e-08
-6.69833e-08
-7.90918e-08
-5.39566e-08
-7.2887e-08
-4.20664e-08
-6.58108e-08
-3.14394e-08
-5.79234e-08
-2.21929e-08
-4.93237e-08
-1.44328e-08
-4.01604e-08
-8.25317e-09
-3.06468e-08
-3.73702e-09
-2.10761e-08
-9.59753e-10
-1.1838e-08
-3.44445e-09
-1.53067e-09
7.63493e-09
-5.59102e-09
2.16221e-08
-1.17539e-08
3.41972e-08
-1.96699e-08
4.532e-08
-2.90481e-08
5.50104e-08
-3.96428e-08
6.33226e-08
-5.12435e-08
7.03368e-08
-6.36684e-08
7.61512e-08
-7.67586e-08
8.08747e-08
-9.03751e-08
8.46207e-08
-1.04396e-07
8.7502e-08
-1.18715e-07
8.96269e-08
-1.33239e-07
9.10965e-08
-1.47886e-07
9.20026e-08
-1.62585e-07
9.24262e-08
-1.77276e-07
9.24373e-08
-1.91903e-07
9.20943e-08
-2.0642e-07
9.14448e-08
-2.20783e-07
9.05263e-08
-2.34953e-07
8.93668e-08
-2.48894e-07
8.79863e-08
-2.62573e-07
8.63978e-08
-2.75955e-07
8.46083e-08
-2.89009e-07
8.262e-08
-3.01703e-07
8.04317e-08
-3.14002e-07
7.80388e-08
-3.25874e-07
7.5435e-08
-3.37284e-07
7.26125e-08
-3.48196e-07
6.95628e-08
-3.58574e-07
6.62769e-08
-3.68379e-07
6.27461e-08
-3.77574e-07
5.89623e-08
-3.86116e-07
5.49183e-08
-3.93967e-07
5.0608e-08
-4.01084e-07
4.60273e-08
-4.07426e-07
4.11737e-08
-4.12952e-07
3.60471e-08
-4.17619e-07
3.06498e-08
-4.21389e-07
2.49871e-08
-4.24221e-07
1.90673e-08
-4.26078e-07
1.2902e-08
-4.26925e-07
6.50665e-09
-4.26731e-07
-9.97161e-11
-4.25466e-07
-6.89413e-09
-4.23107e-07
-1.38494e-08
-4.19634e-07
-2.09345e-08
-4.15034e-07
-2.8114e-08
-4.09299e-07
-3.53487e-08
-4.02427e-07
-4.25955e-08
-3.94427e-07
-4.98077e-08
-3.85312e-07
-5.69352e-08
-3.75107e-07
-6.3925e-08
-3.63843e-07
-7.07215e-08
-3.51562e-07
-7.7267e-08
-3.38315e-07
-8.35021e-08
-3.24163e-07
-8.93664e-08
-3.09176e-07
-9.47987e-08
-2.93434e-07
-9.9738e-08
-2.77026e-07
-1.04123e-07
-2.60049e-07
-1.07895e-07
-2.42611e-07
-1.10994e-07
-2.24825e-07
-1.13362e-07
-2.06814e-07
-1.14946e-07
-1.88706e-07
-1.15693e-07
-1.70636e-07
-1.15552e-07
-1.52742e-07
-1.14478e-07
-1.35168e-07
-1.1243e-07
-1.18059e-07
-1.09372e-07
-1.01565e-07
-1.05277e-07
-8.58328e-08
-1.00126e-07
-7.10095e-08
-9.39151e-08
-5.72391e-08
-8.66574e-08
-4.46607e-08
-7.83891e-08
-3.3407e-08
-6.91771e-08
-2.36021e-08
-5.91286e-08
-1.53607e-08
-4.84018e-08
-8.78753e-09
-3.722e-08
-3.97788e-09
-2.58858e-08
-1.01954e-09
-1.47963e-08
-4.46399e-09
-1.62907e-09
9.26401e-09
-5.9538e-09
2.59468e-08
-1.25146e-08
4.0758e-08
-2.09318e-08
5.37372e-08
-3.08884e-08
6.4967e-08
-4.21174e-08
7.45517e-08
-5.4392e-08
8.26113e-08
-6.75173e-08
8.92765e-08
-8.13253e-08
9.46827e-08
-9.56702e-08
9.89656e-08
-1.10425e-07
1.02257e-07
-1.2548e-07
1.04682e-07
-1.40739e-07
1.06355e-07
-1.56119e-07
1.07382e-07
-1.71547e-07
1.07854e-07
-1.86961e-07
1.07851e-07
-2.02304e-07
1.07438e-07
-2.17528e-07
1.06669e-07
-2.32589e-07
1.05587e-07
-2.47447e-07
1.04225e-07
-2.62065e-07
1.02604e-07
-2.76406e-07
1.00739e-07
-2.90438e-07
9.86399e-08
-3.04126e-07
9.63079e-08
-3.17436e-07
9.3742e-08
-3.30334e-07
9.09372e-08
-3.42786e-07
8.78866e-08
-3.54755e-07
8.45812e-08
-3.66203e-07
8.10113e-08
-3.77093e-07
7.71668e-08
-3.87385e-07
7.30378e-08
-3.97037e-07
6.86149e-08
-4.06009e-07
6.38899e-08
-4.14257e-07
5.88559e-08
-4.21737e-07
5.35078e-08
-4.28407e-07
4.7843e-08
-4.3422e-07
4.1861e-08
-4.39135e-07
3.55646e-08
-4.43108e-07
2.89598e-08
-4.46097e-07
2.20561e-08
-4.48062e-07
1.48669e-08
-4.48965e-07
7.40994e-09
-4.48772e-07
-2.92666e-10
-4.47452e-07
-8.21429e-09
-4.44978e-07
-1.63233e-08
-4.41329e-07
-2.45835e-08
-4.36489e-07
-3.29536e-08
-4.3045e-07
-4.13877e-08
-4.2321e-07
-4.98354e-08
-4.14776e-07
-5.82419e-08
-4.05163e-07
-6.65483e-08
-3.94395e-07
-7.46925e-08
-3.82508e-07
-8.26089e-08
-3.69545e-07
-9.02299e-08
-3.55561e-07
-9.74858e-08
-3.40622e-07
-1.04306e-07
-3.24803e-07
-1.10618e-07
-3.0819e-07
-1.16351e-07
-2.9088e-07
-1.21434e-07
-2.72976e-07
-1.25798e-07
-2.54594e-07
-1.29375e-07
-2.35857e-07
-1.321e-07
-2.16893e-07
-1.3391e-07
-1.9784e-07
-1.34746e-07
-1.78839e-07
-1.34553e-07
-1.60037e-07
-1.3328e-07
-1.41584e-07
-1.30883e-07
-1.23632e-07
-1.27324e-07
-1.06335e-07
-1.22574e-07
-8.98457e-08
-1.16615e-07
-7.43155e-08
-1.09445e-07
-5.98928e-08
-1.0108e-07
-4.67212e-08
-9.15608e-08
-3.49378e-08
-8.09605e-08
-2.46721e-08
-6.93942e-08
-1.6045e-08
-5.70289e-08
-9.16744e-09
-4.40975e-08
-4.1408e-09
-3.09124e-08
-1.05662e-09
-1.78805e-08
-5.52062e-09
-1.71373e-09
1.09778e-08
-6.26805e-09
3.05011e-08
-1.31771e-08
4.7667e-08
-2.20361e-08
6.25962e-08
-3.25057e-08
7.54366e-08
-4.43002e-08
8.63461e-08
-5.71773e-08
9.54884e-08
-7.09306e-08
1.0303e-07
-8.53829e-08
1.09135e-07
-1.00382e-07
1.13965e-07
-1.15796e-07
1.17671e-07
-1.31511e-07
1.20397e-07
-1.47429e-07
1.22274e-07
-1.63466e-07
1.23419e-07
-1.79547e-07
1.23935e-07
-1.95607e-07
1.23911e-07
-2.11592e-07
1.23422e-07
-2.27451e-07
1.22528e-07
-2.43139e-07
1.21275e-07
-2.58615e-07
1.19701e-07
-2.73843e-07
1.17831e-07
-2.88784e-07
1.15681e-07
-3.03405e-07
1.13261e-07
-3.17671e-07
1.10574e-07
-3.31546e-07
1.07617e-07
-3.44996e-07
1.04387e-07
-3.57985e-07
1.00875e-07
-3.70474e-07
9.70708e-08
-3.82427e-07
9.29636e-08
-3.93802e-07
8.85418e-08
-4.04558e-07
8.37943e-08
-4.14653e-07
7.87103e-08
-4.24044e-07
7.32803e-08
-4.32684e-07
6.74964e-08
-4.40529e-07
6.13528e-08
-4.47532e-07
5.48459e-08
-4.53646e-07
4.79753e-08
-4.58826e-07
4.07438e-08
-4.63024e-07
3.31579e-08
-4.66196e-07
2.52283e-08
-4.68299e-07
1.697e-08
-4.69292e-07
8.40317e-09
-4.69138e-07
-4.47179e-10
-4.67802e-07
-9.55057e-09
-4.65254e-07
-1.88709e-08
-4.61471e-07
-2.83664e-08
-4.56435e-07
-3.79896e-08
-4.50135e-07
-4.76877e-08
-4.42569e-07
-5.7402e-08
-4.33741e-07
-6.70693e-08
-4.23668e-07
-7.66211e-08
-4.12376e-07
-8.59852e-08
-3.99899e-07
-9.50854e-08
-3.86286e-07
-1.03843e-07
-3.71595e-07
-1.12177e-07
-3.55896e-07
-1.20004e-07
-3.39271e-07
-1.27243e-07
-3.21812e-07
-1.3381e-07
-3.03622e-07
-1.39624e-07
-2.84815e-07
-1.44605e-07
-2.65514e-07
-1.48677e-07
-2.4585e-07
-1.51764e-07
-2.25961e-07
-1.53798e-07
-2.05994e-07
-1.54713e-07
-1.86098e-07
-1.54449e-07
-1.66428e-07
-1.5295e-07
-1.47141e-07
-1.5017e-07
-1.28396e-07
-1.46068e-07
-1.10353e-07
-1.40617e-07
-9.31694e-08
-1.33799e-07
-7.70016e-08
-1.25613e-07
-6.20016e-08
-1.1608e-07
-4.83166e-08
-1.05246e-07
-3.60873e-08
-9.31898e-08
-2.54465e-08
-8.0035e-08
-1.65177e-08
-6.59577e-08
-9.4142e-09
-5.1201e-08
-4.23734e-09
-3.60893e-08
-1.0747e-09
-2.10431e-08
-6.59532e-09
-1.78682e-09
1.27646e-08
-6.54085e-09
3.52552e-08
-1.37549e-08
5.4881e-08
-2.30032e-08
7.18445e-08
-3.39276e-08
8.6361e-08
-4.62258e-08
9.86443e-08
-5.96419e-08
1.08905e-07
-7.39586e-08
1.17346e-07
-8.89902e-08
1.24167e-07
-1.04578e-07
1.29552e-07
-1.20586e-07
1.33679e-07
-1.36896e-07
1.36708e-07
-1.53409e-07
1.38787e-07
-1.70038e-07
1.40048e-07
-1.86708e-07
1.40605e-07
-2.03353e-07
1.40557e-07
-2.19918e-07
1.39987e-07
-2.36352e-07
1.38962e-07
-2.5261e-07
1.37533e-07
-2.68651e-07
1.35742e-07
-2.84435e-07
1.33616e-07
-2.99928e-07
1.31174e-07
-3.15093e-07
1.28426e-07
-3.29895e-07
1.25375e-07
-3.44299e-07
1.22021e-07
-3.58267e-07
1.18356e-07
-3.71765e-07
1.14372e-07
-3.84752e-07
1.10058e-07
-3.9719e-07
1.05402e-07
-4.09038e-07
1.00389e-07
-4.20251e-07
9.50081e-08
-4.30788e-07
8.92463e-08
-4.406e-07
8.30929e-08
-4.49642e-07
7.65386e-08
-4.57866e-07
6.95764e-08
-4.65222e-07
6.2202e-08
-4.71661e-07
5.44143e-08
-4.77133e-07
4.62162e-08
-4.8159e-07
3.76144e-08
-4.84982e-07
2.86205e-08
-4.87263e-07
1.92512e-08
-4.88389e-07
9.5286e-09
-4.88317e-07
-5.19098e-10
-4.87009e-07
-1.08577e-08
-4.84434e-07
-2.14464e-08
-4.80562e-07
-3.22378e-08
-4.75374e-07
-4.31779e-08
-4.68856e-07
-5.42062e-08
-4.61002e-07
-6.52558e-08
-4.51817e-07
-7.62536e-08
-4.41317e-07
-8.71212e-08
-4.29528e-07
-9.7775e-08
-4.16486e-07
-1.08127e-07
-4.02242e-07
-1.18087e-07
-3.86858e-07
-1.2756e-07
-3.7041e-07
-1.36453e-07
-3.52985e-07
-1.44668e-07
-3.34683e-07
-1.52112e-07
-3.15616e-07
-1.58691e-07
-2.95905e-07
-1.64315e-07
-2.75684e-07
-1.68897e-07
-2.55094e-07
-1.72354e-07
-2.34284e-07
-1.74609e-07
-2.13409e-07
-1.75589e-07
-1.92628e-07
-1.75229e-07
-1.72106e-07
-1.73472e-07
-1.52008e-07
-1.70268e-07
-1.325e-07
-1.65576e-07
-1.13748e-07
-1.59369e-07
-9.59152e-08
-1.51631e-07
-7.91622e-08
-1.42366e-07
-6.36448e-08
-1.31598e-07
-4.95126e-08
-1.19378e-07
-3.69085e-08
-1.05794e-07
-2.5966e-08
-9.09775e-08
-1.68086e-08
-7.51151e-08
-9.54716e-09
-5.84624e-08
-4.27761e-09
-4.13588e-08
-1.07691e-09
-2.42438e-08
-7.67223e-09
-1.85021e-09
1.46148e-08
-6.77858e-09
4.01836e-08
-1.42604e-08
6.23628e-08
-2.38526e-08
8.14367e-08
-3.51807e-08
9.76891e-08
-4.79283e-08
1.11392e-07
-6.18274e-08
1.22804e-07
-7.66507e-08
1.3217e-07
-9.22048e-08
1.39721e-07
-1.08325e-07
1.45672e-07
-1.2487e-07
1.50224e-07
-1.41721e-07
1.53558e-07
-1.58774e-07
1.5584e-07
-1.75942e-07
1.57215e-07
-1.93148e-07
1.57811e-07
-2.10327e-07
1.57737e-07
-2.27423e-07
1.57083e-07
-2.44385e-07
1.55923e-07
-2.61167e-07
1.54316e-07
-2.77729e-07
1.52304e-07
-2.94033e-07
1.49919e-07
-3.1004e-07
1.47181e-07
-3.25717e-07
1.44102e-07
-3.41026e-07
1.40685e-07
-3.55933e-07
1.36928e-07
-3.70401e-07
1.32824e-07
-3.84392e-07
1.28363e-07
-3.97867e-07
1.23533e-07
-4.10785e-07
1.1832e-07
-4.23104e-07
1.12708e-07
-4.3478e-07
1.06684e-07
-4.45767e-07
1.00233e-07
-4.56017e-07
9.33433e-08
-4.65482e-07
8.6003e-08
-4.7411e-07
7.82043e-08
-4.81849e-07
6.99415e-08
-4.88648e-07
6.12129e-08
-4.94453e-07
5.20207e-08
-4.9921e-07
4.23719e-08
-5.02868e-07
3.22785e-08
-5.05375e-07
2.17585e-08
-5.06683e-07
1.08361e-08
-5.06744e-07
-4.57585e-10
-5.05517e-07
-1.20848e-08
-5.02964e-07
-2.39998e-08
-4.99052e-07
-3.61494e-08
-4.93757e-07
-4.84728e-08
-4.87062e-07
-6.09013e-08
-4.78959e-07
-7.33589e-08
-4.6945e-07
-8.57622e-08
-4.5855e-07
-9.80216e-08
-4.46284e-07
-1.10041e-07
-4.32691e-07
-1.2172e-07
-4.17823e-07
-1.32954e-07
-4.01748e-07
-1.43636e-07
-3.84546e-07
-1.53655e-07
-3.6631e-07
-1.62903e-07
-3.4715e-07
-1.71272e-07
-3.27186e-07
-1.78655e-07
-3.06551e-07
-1.8495e-07
-2.85389e-07
-1.9006e-07
-2.63851e-07
-1.93892e-07
-2.42099e-07
-1.96361e-07
-2.203e-07
-1.97388e-07
-1.98624e-07
-1.96906e-07
-1.77244e-07
-1.94851e-07
-1.56337e-07
-1.91175e-07
-1.36077e-07
-1.85837e-07
-1.16635e-07
-1.78811e-07
-9.81819e-08
-1.70085e-07
-8.08816e-08
-1.59667e-07
-6.48928e-08
-1.47586e-07
-5.03672e-08
-1.33903e-07
-3.74476e-08
-1.18714e-07
-2.62663e-08
-1.02159e-07
-1.69431e-08
-8.44383e-08
-9.58254e-09
-6.5823e-08
-4.26989e-09
-4.66715e-08
-1.0657e-09
-2.7448e-08
-8.73793e-09
-1.90555e-09
1.65203e-08
-6.98693e-09
4.52649e-08
-1.47049e-08
7.00808e-08
-2.4602e-08
9.13338e-08
-3.629e-08
1.09377e-07
-4.94401e-08
1.24542e-07
-6.37737e-08
1.37137e-07
-7.90545e-08
1.47451e-07
-9.5082e-08
1.55748e-07
-1.11686e-07
1.62276e-07
-1.28721e-07
1.67259e-07
-1.46065e-07
1.70902e-07
-1.63613e-07
1.73388e-07
-1.81275e-07
1.74877e-07
-1.98975e-07
1.75511e-07
-2.16647e-07
1.75409e-07
-2.34235e-07
1.74671e-07
-2.51688e-07
1.73376e-07
-2.68961e-07
1.71589e-07
-2.86012e-07
1.69356e-07
-3.02805e-07
1.66712e-07
-3.19303e-07
1.63679e-07
-3.35469e-07
1.60268e-07
-3.51268e-07
1.56484e-07
-3.66665e-07
1.52325e-07
-3.81622e-07
1.47781e-07
-3.96102e-07
1.42843e-07
-4.10065e-07
1.37496e-07
-4.23468e-07
1.31724e-07
-4.3627e-07
1.2551e-07
-4.48424e-07
1.18838e-07
-4.59883e-07
1.11692e-07
-4.70596e-07
1.04057e-07
-4.80514e-07
9.59206e-08
-4.89582e-07
8.72722e-08
-4.97745e-07
7.81049e-08
-5.04948e-07
6.84157e-08
-5.11133e-07
5.82058e-08
-5.16243e-07
4.74819e-08
-5.20221e-07
3.62564e-08
-5.23011e-07
2.45481e-08
-5.24557e-07
1.23829e-08
-5.2481e-07
-2.05357e-10
-5.23719e-07
-1.31753e-08
-5.21243e-07
-2.64763e-08
-5.17343e-07
-4.00494e-08
-5.11989e-07
-5.38263e-08
-5.05161e-07
-6.77299e-08
-4.96845e-07
-8.16743e-08